      -----------------------------------------------------------      
     |                   =====================                   |     
     |                           x T B                           |     
     |                   =====================                   |     
     |                         S. Grimme                         |     
     |          Mulliken Center for Theoretical Chemistry        |     
     |                    University of Bonn                     |     
      -----------------------------------------------------------      

   * xtb version 6.5.1 (fef0646) compiled by 'conda@b96dff2e9fd6' on 2023-01-04

   xtb is free software: you can redistribute it and/or modify it under
   the terms of the GNU Lesser General Public License as published by
   the Free Software Foundation, either version 3 of the License, or
   (at your option) any later version.
   
   xtb is distributed in the hope that it will be useful,
   but WITHOUT ANY WARRANTY; without even the implied warranty of
   MERCHANTABILITY or FITNESS FOR A PARTICULAR PURPOSE.  See the
   GNU Lesser General Public License for more details.
   
   Cite this work as:
   * C. Bannwarth, E. Caldeweyher, S. Ehlert, A. Hansen, P. Pracht,
     J. Seibert, S. Spicher, S. Grimme, WIREs Comput. Mol. Sci., 2020, 11,
     e01493. DOI: 10.1002/wcms.1493
   
   for GFN2-xTB:
   * C. Bannwarth, S. Ehlert and S. Grimme., J. Chem. Theory Comput., 2019,
     15, 1652-1671. DOI: 10.1021/acs.jctc.8b01176
   for GFN1-xTB:
   * S. Grimme, C. Bannwarth, P. Shushkov, J. Chem. Theory Comput., 2017,
     13, 1989-2009. DOI: 10.1021/acs.jctc.7b00118
   for GFN0-xTB:
   * P. Pracht, E. Caldeweyher, S. Ehlert, S. Grimme, ChemRxiv, 2019, preprint.
     DOI: 10.26434/chemrxiv.8326202.v1
   for GFN-FF:
   * S. Spicher and S. Grimme, Angew. Chem. Int. Ed., 2020, 59, 15665-15673.
     DOI: 10.1002/anie.202004239
   
   for ALPB and GBSA implicit solvation:
   * S. Ehlert, M. Stahn, S. Spicher, S. Grimme, J. Chem. Theory Comput.,
     2021, 17, 4250-4261. DOI: 10.1021/acs.jctc.1c00471
   
   for DFT-D4:
   * E. Caldeweyher, C. Bannwarth and S. Grimme, J. Chem. Phys., 2017,
     147, 034112. DOI: 10.1063/1.4993215
   * E. Caldeweyher, S. Ehlert, A. Hansen, H. Neugebauer, S. Spicher,
     C. Bannwarth and S. Grimme, J. Chem. Phys., 2019, 150, 154122.
     DOI: 10.1063/1.5090222
   * E. Caldeweyher, J.-M. Mewes, S. Ehlert and S. Grimme, Phys. Chem. Chem. Phys.
     2020, 22, 8499-8512. DOI: 10.1039/D0CP00502A
   
   for sTDA-xTB:
   * S. Grimme and C. Bannwarth, J. Chem. Phys., 2016, 145, 054103.
     DOI: 10.1063/1.4959605
   
   in the mass-spec context:
   * V. Asgeirsson, C. Bauer and S. Grimme, Chem. Sci., 2017, 8, 4879.
     DOI: 10.1039/c7sc00601b
   * J. Koopman and S. Grimme, ACS Omega 2019, 4, 12, 15120-15133.
     DOI: 10.1021/acsomega.9b02011
   
   for metadynamics refer to:
   * S. Grimme, J. Chem. Theory Comput., 2019, 155, 2847-2862
     DOI: 10.1021/acs.jctc.9b00143
   
   for SPH calculations refer to:
   * S. Spicher and S. Grimme, J. Chem. Theory Comput., 2021, 17, 1701-1714
     DOI: 10.1021/acs.jctc.0c01306
   
   with help from (in alphabetical order)
   P. Atkinson, C. Bannwarth, F. Bohle, G. Brandenburg, E. Caldeweyher
   M. Checinski, S. Dohm, S. Ehlert, S. Ehrlich, I. Gerasimov, C. Hölzer
   A. Katbashev, J. Koopman, C. Lavigne, S. Lehtola, F. März, M. Müller,
   F. Musil, H. Neugebauer, J. Pisarek, C. Plett, P. Pracht, F. Pultar,
   J. Seibert, P. Shushkov, S. Spicher, M. Stahn, M. Steiner, T. Strunk,
   J. Stückrath, T. Rose, and J. Unsleber
   
 * started run on 2023/01/23 at 20:08:48.267     

           -------------------------------------------------
          |                Calculation Setup                |
           -------------------------------------------------

          program call               : xtb init.xyz --opt -c 1 -u 0 -P 16 --input xtb.inp
          hostname                   : gpg-woodward
          coordinate file            : init.xyz
          omp threads                :                    16

   ID    Z sym.   atoms
    1    7 N      1
    2    6 C      2-6
    3    1 H      7-20

           -------------------------------------------------
          |                 G F N 2 - x T B                 |
           -------------------------------------------------

        Reference                      10.1021/acs.jctc.8b01176
      * Hamiltonian:
        H0-scaling (s, p, d)           1.850000    2.230000    2.230000
        zeta-weighting                 0.500000
      * Dispersion:
        s8                             2.700000
        a1                             0.520000
        a2                             5.000000
        s9                             5.000000
      * Repulsion:
        kExp                           1.500000    1.000000
        rExp                           1.000000
      * Coulomb:
        alpha                          2.000000
        third order                    shell-resolved
        anisotropic                    true
        a3                             3.000000
        a5                             4.000000
        cn-shift                       1.200000
        cn-exp                         4.000000
        max-rad                        5.000000


          ...................................................
          :                      SETUP                      :
          :.................................................:
          :  # basis functions                  38          :
          :  # atomic orbitals                  38          :
          :  # shells                           26          :
          :  # electrons                        38          :
          :  max. iterations                   250          :
          :  Hamiltonian                  GFN2-xTB          :
          :  restarted?                      false          :
          :  GBSA solvation                  false          :
          :  PC potential                    false          :
          :  electronic temp.          300.0000000     K    :
          :  accuracy                    1.0000000          :
          :  -> integral cutoff          0.2500000E+02      :
          :  -> integral neglect         0.1000000E-07      :
          :  -> SCF convergence          0.1000000E-05 Eh   :
          :  -> wf. convergence          0.1000000E-03 e    :
          :  Broyden damping             0.4000000          :
          ...................................................

 iter      E             dE          RMSdq      gap      omega  full diag
   1    -20.5113557 -0.205114E+02  0.334E+00   12.03       0.0  T
   2    -20.6197102 -0.108354E+00  0.183E+00    9.13       1.0  T
   3    -20.6226991 -0.298890E-02  0.113E+00    8.13       1.0  T
   4    -20.6233912 -0.692113E-03  0.161E-01    7.14       1.0  T
   5    -20.6234095 -0.182731E-04  0.763E-02    7.17       1.0  T
   6    -20.6234146 -0.511252E-05  0.935E-03    7.22       2.4  T
   7    -20.6234149 -0.343837E-06  0.408E-03    7.22       5.5  T
   8    -20.6234149 -0.181871E-07  0.103E-03    7.22      21.7  T
   9    -20.6234149 -0.188470E-08  0.293E-04    7.22      76.2  T
  10    -20.6234149 -0.561187E-10  0.776E-05    7.22     288.2  T

   *** convergence criteria satisfied after 10 iterations ***

         #    Occupation            Energy/Eh            Energy/eV
      -------------------------------------------------------------
         1        2.0000           -0.9013206             -24.5262
       ...           ...                  ...                  ...
        13        2.0000           -0.6191896             -16.8490
        14        2.0000           -0.6020937             -16.3838
        15        2.0000           -0.5853410             -15.9279
        16        2.0000           -0.5638510             -15.3432
        17        2.0000           -0.5531868             -15.0530
        18        2.0000           -0.5367599             -14.6060
        19        2.0000           -0.5283561             -14.3773 (HOMO)
        20                         -0.2629939              -7.1564 (LUMO)
        21                         -0.1464756              -3.9858
        22                         -0.1120308              -3.0485
        23                         -0.1098423              -2.9890
        24                         -0.0718404              -1.9549
       ...                                ...                  ...
        38                          0.1894071               5.1540
      -------------------------------------------------------------
                  HL-Gap            0.2653622 Eh            7.2209 eV
             Fermi-level           -0.3956750 Eh          -10.7669 eV

 SCC (total)                   0 d,  0 h,  0 min,  0.069 sec
 SCC setup                      ...        0 min,  0.001 sec (  1.070%)
 Dispersion                     ...        0 min,  0.001 sec (  0.909%)
 classical contributions        ...        0 min,  0.028 sec ( 40.536%)
 integral evaluation            ...        0 min,  0.002 sec (  3.256%)
 iterations                     ...        0 min,  0.031 sec ( 44.585%)
 molecular gradient             ...        0 min,  0.006 sec (  9.133%)
 printout                       ...        0 min,  0.000 sec (  0.262%)

         :::::::::::::::::::::::::::::::::::::::::::::::::::::
         ::                     SUMMARY                     ::
         :::::::::::::::::::::::::::::::::::::::::::::::::::::
         :: total energy             -20.332142797415 Eh    ::
         :: gradient norm              0.022593891999 Eh/a0 ::
         :: HOMO-LUMO gap              7.220873125825 eV    ::
         ::.................................................::
         :: SCC energy               -20.623414940718 Eh    ::
         :: -> isotropic ES            0.110771588397 Eh    ::
         :: -> anisotropic ES         -0.007185149671 Eh    ::
         :: -> anisotropic XC          0.015290722519 Eh    ::
         :: -> dispersion             -0.009255171366 Eh    ::
         :: repulsion energy           0.291292065657 Eh    ::
         :: add. restraining           0.000000000000 Eh    ::
         :: total charge               1.000000000000 e     ::
         :::::::::::::::::::::::::::::::::::::::::::::::::::::

      ----------------------------------------------------------- 
     |                   =====================                   |
     |                        A N C O P T                        |
     |                   =====================                   |
     |               Approximate Normal Coordinate               |
     |                Rational Function Optimizer                |
      ----------------------------------------------------------- 

          ...................................................
          :                      SETUP                      :
          :.................................................:
          :   optimization level            normal          :
          :   max. optcycles                   200          :
          :   ANC micro-cycles                  20          :
          :   degrees of freedom                54          :
          :.................................................:
          :   RF solver                   davidson          :
          :   write xtbopt.log                true          :
          :   linear?                        false          :
          :   energy convergence         0.5000000E-05 Eh   :
          :   grad. convergence          0.1000000E-02 Eh/α :
          :   maximium RF displ.         1.0000000          :
          :   Hlow (freq-cutoff)         0.1000000E-01      :
          :   Hmax (freq-cutoff)         5.0000000          :
          :   S6 in model hess.         20.0000000          :
          ...................................................

generating ANC from model Hessian ...
Using Lindh-Hessian (1995)
 Shifting diagonal of input Hessian by    8.1030786000772879E-003
 Lowest  eigenvalues of input Hessian
    0.000000    0.000000    0.000000    0.000000    0.000000    0.000000
    0.010000    0.010860    0.011357    0.014655    0.018469    0.018743
    0.022623    0.023045    0.029982    0.047409    0.050517    0.055410
 Highest eigenvalues
    1.195761    1.239676    1.283170    1.402508    1.404257    1.450268


........................................................................
.............................. CYCLE    1 ..............................
........................................................................
   1    -20.6234149 -0.206234E+02  0.228E-05    7.22       0.0  T
   2    -20.6234149 -0.326850E-12  0.128E-05    7.22    1745.4  T
   3    -20.6234149 -0.117240E-12  0.206E-06    7.22   10877.7  T
     SCC iter.                  ...        0 min,  0.003 sec
     gradient                   ...        0 min,  0.002 sec
 * total energy  :   -20.3321428 Eh     change       -0.1180922E-10 Eh
   gradient norm :     0.0225940 Eh/α   predicted     0.0000000E+00 (-100.00%)
   displ. norm   :     0.1268863 α      lambda       -0.1695028E-02
   maximum displ.:     0.0773227 α      in ANC's #19, #6, #35, ...

........................................................................
.............................. CYCLE    2 ..............................
........................................................................
   1    -20.6290273 -0.206290E+02  0.145E-01    7.09       0.0  T
   2    -20.6290328 -0.558518E-05  0.851E-02    7.11       1.0  T
   3    -20.6290334 -0.561553E-06  0.660E-03    7.12       3.4  T
   4    -20.6290335 -0.101973E-06  0.232E-03    7.12       9.6  T
   5    -20.6290335 -0.601402E-08  0.943E-04    7.12      23.7  T
   6    -20.6290335 -0.988429E-09  0.173E-04    7.12     129.2  T
     SCC iter.                  ...        0 min,  0.005 sec
     gradient                   ...        0 min,  0.002 sec
 * total energy  :   -20.3331072 Eh     change       -0.9643744E-03 Eh
   gradient norm :     0.0094401 Eh/α   predicted    -0.8611614E-03 ( -10.70%)
   displ. norm   :     0.0395363 α      lambda       -0.1554311E-03
   maximum displ.:     0.0283899 α      in ANC's #7, #19, #20, ...

........................................................................
.............................. CYCLE    3 ..............................
........................................................................
   1    -20.6303048 -0.206303E+02  0.283E-02    7.09       0.0  T
   2    -20.6303058 -0.991246E-06  0.160E-02    7.10       1.4  T
   3    -20.6303058 -0.784741E-07  0.349E-03    7.10       6.4  T
   4    -20.6303059 -0.644387E-08  0.943E-04    7.10      23.7  T
   5    -20.6303059 -0.665963E-09  0.353E-04    7.10      63.3  T
     SCC iter.                  ...        0 min,  0.004 sec
     gradient                   ...        0 min,  0.002 sec
 * total energy  :   -20.3332035 Eh     change       -0.9629547E-04 Eh
   gradient norm :     0.0033952 Eh/α   predicted    -0.7890354E-04 ( -18.06%)
   displ. norm   :     0.0165387 α      lambda       -0.2228282E-04
   maximum displ.:     0.0086838 α      in ANC's #7, #2, #23, ...

........................................................................
.............................. CYCLE    4 ..............................
........................................................................
   1    -20.6305802 -0.206306E+02  0.129E-02    7.10       0.0  T
   2    -20.6305804 -0.141282E-06  0.696E-03    7.10       3.2  T
   3    -20.6305804 -0.135240E-07  0.125E-03    7.10      17.9  T
   4    -20.6305804 -0.195055E-08  0.361E-04    7.10      61.9  T
   5    -20.6305804 -0.183057E-09  0.157E-04    7.10     142.3  T
     SCC iter.                  ...        0 min,  0.004 sec
     gradient                   ...        0 min,  0.003 sec
 * total energy  :   -20.3332168 Eh     change       -0.1329031E-04 Eh
   gradient norm :     0.0011590 Eh/α   predicted    -0.1116610E-04 ( -15.98%)
   displ. norm   :     0.0107146 α      lambda       -0.2584872E-05
   maximum displ.:     0.0081628 α      in ANC's #2, #9, #19, ...

........................................................................
.............................. CYCLE    5 ..............................
........................................................................
   1    -20.6305590 -0.206306E+02  0.712E-03    7.10       0.0  T
   2    -20.6305590 -0.470679E-07  0.376E-03    7.11       6.0  T
   3    -20.6305590 -0.248346E-08  0.841E-04    7.11      26.6  T
   4    -20.6305590 -0.954884E-09  0.180E-04    7.11     124.5  T
     SCC iter.                  ...        0 min,  0.003 sec
     gradient                   ...        0 min,  0.003 sec
 * total energy  :   -20.3332184 Eh     change       -0.1673924E-05 Eh
   gradient norm :     0.0003920 Eh/α   predicted    -0.1296397E-05 ( -22.55%)
   displ. norm   :     0.0035129 α      lambda       -0.2745958E-06
   maximum displ.:     0.0024766 α      in ANC's #2, #7, #23, ...

   *** GEOMETRY OPTIMIZATION CONVERGED AFTER 5 ITERATIONS ***

------------------------------------------------------------------------
 total energy gain   :        -0.0010756 Eh       -0.6750 kcal/mol
 total RMSD          :         0.0328258 a0        0.0174 Å
 total power (kW/mol):        -0.5648154 (step)  -46.6558 (real)
------------------------------------------------------------------------

 ANCopt (total)                0 d,  0 h,  0 min,  0.061 sec
 optimizer setup                ...        0 min,  0.000 sec (  0.197%)
 model hessian                  ...        0 min,  0.017 sec ( 27.336%)
 ANC generation                 ...        0 min,  0.001 sec (  1.477%)
 coordinate transformation      ...        0 min,  0.000 sec (  0.103%)
 single point calculation       ...        0 min,  0.041 sec ( 67.963%)
 optimization log               ...        0 min,  0.001 sec (  0.877%)
 hessian update                 ...        0 min,  0.000 sec (  0.661%)
 rational function              ...        0 min,  0.000 sec (  0.651%)

================
 final structure:
================
20
 xtb: 6.5.1 (fef0646)
N            0.85981920404254       -0.01271642563346       -0.01454372205563
C            2.35898789795487       -0.02237036680532       -0.02914322961632
C            2.87659356121829       -0.68951791005219       -1.29425920688360
C            4.40801474657498       -0.70105527718318       -1.31588956063027
C            4.94771217007945       -1.36934608346433       -2.58017369302868
C            6.47079626587516       -1.37796176126136       -2.59570505114523
H            0.49269970294561        0.43493122955925        0.83451074678883
H            0.50721511038949       -0.97806299502746       -0.06135587421269
H            0.50917038260900        0.49551518502427       -0.83743874025414
H            2.70827605723320       -0.55918833161361        0.85378054863333
H            2.71032695714012        1.00867136018358        0.02781953534206
H            2.51687318589670       -0.15322606639316       -2.17459089369948
H            2.51671783945398       -1.71882494732224       -1.34904836844918
H            4.78059726681115       -1.23611525908972       -0.44112907637637
H            4.78068757317845        0.32308471659280       -1.26524471012283
H            4.57946108544938       -0.83547321834743       -3.45819969700273
H            4.57906946947392       -2.39540354742342       -2.63375616776859
H            6.86094766207926       -0.36375715338888       -2.56445504068728
H            6.83441290813272       -1.85630489932299       -3.50029239500112
H            6.86052095346172       -1.92340824903115       -1.73989540383006

 Bond Distances (Angstroems)
 ---------------------------
N1-C2=1.4993         N1-H7=1.0276         N1-H8=1.0288         N1-H9=1.0288         C2-N1=1.4993         C2-C3=1.5210         
C2-H10=1.0907        C2-H11=1.0907        C3-C2=1.5210         C3-C4=1.5316         C3-H12=1.0918        C3-H13=1.0918        
C4-C3=1.5316         C4-C5=1.5285         C4-H14=1.0910        C4-H15=1.0910        C5-C4=1.5285         C5-C6=1.5232         
C5-H16=1.0916        C5-H17=1.0916        C6-C5=1.5232         C6-H18=1.0871        C6-H19=1.0860        C6-H20=1.0871        
H7-N1=1.0276         H8-N1=1.0288         H9-N1=1.0288         H10-C2=1.0907        H11-C2=1.0907        H12-C3=1.0918        
H13-C3=1.0918        H14-C4=1.0910        H15-C4=1.0910        H16-C5=1.0916        H17-C5=1.0916        H18-C6=1.0871        
H19-C6=1.0860        H20-C6=1.0871        
 C  H  Rav=1.0900 sigma=0.0021  Rmin=1.0860  Rmax=1.0918    11
 C  C  Rav=1.5261 sigma=0.0042  Rmin=1.5210  Rmax=1.5316     4
 N  H  Rav=1.0284 sigma=0.0005  Rmin=1.0276  Rmax=1.0288     3
 N  C  Rav=1.4993 sigma=0.0000  Rmin=1.4993  Rmax=1.4993     1

 selected bond angles (degree)
 --------------------
H7-N1-C2=111.60                H8-N1-C2=109.65                H8-N1-H7=108.90                H9-N1-C2=109.65                
H9-N1-H7=108.90                H9-N1-H8=108.08                C3-C2-N1=110.56                H10-C2-N1=108.39               
H10-C2-C3=110.39               H11-C2-N1=108.39               H11-C2-C3=110.39               H11-C2-H10=108.65              
C4-C3-C2=110.81                H12-C3-C2=110.07               H12-C3-C4=108.77               H13-C3-C2=110.07               
H13-C3-C4=108.77               H13-C3-H12=108.30              C5-C4-C3=111.59                H14-C4-C3=109.50               
H14-C4-C5=109.16               H15-C4-C3=109.50               H15-C4-C5=109.16               H15-C4-H14=107.85              
C6-C5-C4=111.34                H16-C5-C4=109.41               H16-C5-C6=109.38               H17-C5-C4=109.41               
H17-C5-C6=109.38               H17-C5-H16=107.84              H18-C6-C5=110.69               H19-C6-C5=110.23               
H19-C6-H18=108.34              H20-C6-C5=110.69               H20-C6-H18=108.47              H20-C6-H19=108.34              

 selected dihedral angles (degree)
 ---------------------------------
C3-C2-N1-H7=179.99            C3-C2-N1-H8= 59.25            C3-C2-N1-H9=300.74            H10-C2-N1-H7= 58.87           
H10-C2-N1-H8=298.13           H10-C2-N1-H9=179.62           H11-C2-N1-H7=301.12           H11-C2-N1-H8=180.37           
H11-C2-N1-H9= 61.86           C4-C3-C2-N1=179.93            C4-C3-C2-H10=299.86           C4-C3-C2-H11= 60.01           
H12-C3-C2-N1= 59.58           H12-C3-C2-H10=179.51          H12-C3-C2-H11=299.66          H13-C3-C2-N1=300.29           
H13-C3-C2-H10= 60.21          H13-C3-C2-H11=180.36          C5-C4-C3-C2=179.94            C5-C4-C3-H12=301.06           
C5-C4-C3-H13= 58.82           H14-C4-C3-C2= 58.97           H14-C4-C3-H12=180.09          H14-C4-C3-H13=297.85          
H15-C4-C3-C2=300.92           H15-C4-C3-H12= 62.04          H15-C4-C3-H13=179.80          C6-C5-C4-C3=180.01            
C6-C5-C4-H14=301.18           C6-C5-C4-H15= 58.84           H16-C5-C4-C3= 58.98           H16-C5-C4-H14=180.15          
H16-C5-C4-H15=297.81          H17-C5-C4-C3=301.04           H17-C5-C4-H14= 62.21          H17-C5-C4-H15=179.87          
H18-C6-C5-C4=299.84           H18-C6-C5-H16= 60.89          H18-C6-C5-H17=178.79          H19-C6-C5-C4=179.99           
H19-C6-C5-H16=301.04          H19-C6-C5-H17= 58.94          H20-C6-C5-C4= 60.14           H20-C6-C5-H16=181.19          
H20-C6-C5-H17=299.10          
           -------------------------------------------------
          |                Final Singlepoint                |
           -------------------------------------------------

          ...................................................
          :                      SETUP                      :
          :.................................................:
          :  # basis functions                  38          :
          :  # atomic orbitals                  38          :
          :  # shells                           26          :
          :  # electrons                        38          :
          :  max. iterations                   250          :
          :  Hamiltonian                  GFN2-xTB          :
          :  restarted?                      false          :
          :  GBSA solvation                  false          :
          :  PC potential                    false          :
          :  electronic temp.          300.0000000     K    :
          :  accuracy                    1.0000000          :
          :  -> integral cutoff          0.2500000E+02      :
          :  -> integral neglect         0.1000000E-07      :
          :  -> SCF convergence          0.1000000E-05 Eh   :
          :  -> wf. convergence          0.1000000E-03 e    :
          :  Broyden damping             0.4000000          :
          ...................................................

 iter      E             dE          RMSdq      gap      omega  full diag
   1    -20.6305590 -0.206306E+02  0.838E-05    7.11       0.0  T
   2    -20.6305590 -0.374456E-11  0.470E-05    7.11     476.1  T
   3    -20.6305590 -0.159872E-12  0.923E-06    7.11    2423.4  T

   *** convergence criteria satisfied after 3 iterations ***

         #    Occupation            Energy/Eh            Energy/eV
      -------------------------------------------------------------
         1        2.0000           -0.8983369             -24.4450
       ...           ...                  ...                  ...
        13        2.0000           -0.6190494             -16.8452
        14        2.0000           -0.6028046             -16.4031
        15        2.0000           -0.5851882             -15.9238
        16        2.0000           -0.5651292             -15.3779
        17        2.0000           -0.5536955             -15.0668
        18        2.0000           -0.5374866             -14.6258
        19        2.0000           -0.5293904             -14.4054 (HOMO)
        20                         -0.2682794              -7.3003 (LUMO)
        21                         -0.1647794              -4.4839
        22                         -0.1059157              -2.8821
        23                         -0.1045013              -2.8436
        24                         -0.0606920              -1.6515
       ...                                ...                  ...
        38                          0.1991012               5.4178
      -------------------------------------------------------------
                  HL-Gap            0.2611111 Eh            7.1052 eV
             Fermi-level           -0.3988349 Eh          -10.8528 eV

 SCC (total)                   0 d,  0 h,  0 min,  0.007 sec
 SCC setup                      ...        0 min,  0.000 sec (  2.562%)
 Dispersion                     ...        0 min,  0.000 sec (  4.752%)
 classical contributions        ...        0 min,  0.000 sec (  1.552%)
 integral evaluation            ...        0 min,  0.001 sec ( 12.075%)
 iterations                     ...        0 min,  0.003 sec ( 39.830%)
 molecular gradient             ...        0 min,  0.002 sec ( 36.700%)
 printout                       ...        0 min,  0.000 sec (  1.538%)

         :::::::::::::::::::::::::::::::::::::::::::::::::::::
         ::                     SUMMARY                     ::
         :::::::::::::::::::::::::::::::::::::::::::::::::::::
         :: total energy             -20.333218431566 Eh    ::
         :: gradient norm              0.000391951499 Eh/a0 ::
         :: HOMO-LUMO gap              7.105194239514 eV    ::
         ::.................................................::
         :: SCC energy               -20.630559009229 Eh    ::
         :: -> isotropic ES            0.110340548814 Eh    ::
         :: -> anisotropic ES         -0.007987859532 Eh    ::
         :: -> anisotropic XC          0.014974420823 Eh    ::
         :: -> dispersion             -0.009241695124 Eh    ::
         :: repulsion energy           0.297361792861 Eh    ::
         :: add. restraining           0.000000000000 Eh    ::
         :: total charge               1.000000000000 e     ::
         :::::::::::::::::::::::::::::::::::::::::::::::::::::

           -------------------------------------------------
          |                Property Printout                |
           -------------------------------------------------

    * Orbital Energies and Occupations

         #    Occupation            Energy/Eh            Energy/eV
      -------------------------------------------------------------
         1        2.0000           -0.8983369             -24.4450
       ...           ...                  ...                  ...
         7        2.0000           -0.7258691             -19.7519
         8        2.0000           -0.6954807             -18.9250
         9        2.0000           -0.6900686             -18.7777
        10        2.0000           -0.6687098             -18.1965
        11        2.0000           -0.6468545             -17.6018
        12        2.0000           -0.6381822             -17.3658
        13        2.0000           -0.6190494             -16.8452
        14        2.0000           -0.6028046             -16.4031
        15        2.0000           -0.5851882             -15.9238
        16        2.0000           -0.5651292             -15.3779
        17        2.0000           -0.5536955             -15.0668
        18        2.0000           -0.5374866             -14.6258
        19        2.0000           -0.5293904             -14.4054 (HOMO)
        20                         -0.2682794              -7.3003 (LUMO)
        21                         -0.1647794              -4.4839
        22                         -0.1059157              -2.8821
        23                         -0.1045013              -2.8436
        24                         -0.0606920              -1.6515
        25                         -0.0367087              -0.9989
        26                         -0.0183166              -0.4984
        27                         -0.0043894              -0.1194
        28                          0.0162116               0.4411
        29                          0.0375739               1.0224
        30                          0.0392567               1.0682
       ...                                ...                  ...
        38                          0.1991012               5.4178
      -------------------------------------------------------------
                  HL-Gap            0.2611111 Eh            7.1052 eV
             Fermi-level           -0.3988349 Eh          -10.8528 eV

     #   Z          covCN         q      C6AA      α(0)
     1   7 N        3.482    -0.128    23.766     7.241
     2   6 C        3.731    -0.034    21.271     6.583
     3   6 C        3.803    -0.081    22.046     6.685
     4   6 C        3.804    -0.068    21.792     6.646
     5   6 C        3.801    -0.058    21.615     6.619
     6   6 C        3.753    -0.112    22.707     6.795
     7   1 H        0.859     0.270     0.810     1.410
     8   1 H        0.859     0.272     0.802     1.402
     9   1 H        0.859     0.272     0.802     1.402
    10   1 H        0.924     0.107     1.723     2.053
    11   1 H        0.924     0.107     1.723     2.053
    12   1 H        0.924     0.062     2.181     2.309
    13   1 H        0.924     0.062     2.180     2.309
    14   1 H        0.924     0.051     2.304     2.374
    15   1 H        0.924     0.051     2.304     2.374
    16   1 H        0.924     0.041     2.431     2.438
    17   1 H        0.924     0.041     2.431     2.438
    18   1 H        0.925     0.045     2.385     2.415
    19   1 H        0.925     0.054     2.272     2.357
    20   1 H        0.925     0.045     2.385     2.415

 Mol. C6AA /au·bohr⁶  :       2228.880218
 Mol. C8AA /au·bohr⁸  :      46017.349112
 Mol. α(0) /au        :         70.320652


Wiberg/Mayer (AO) data.
largest (>0.10) Wiberg bond orders for each atom

 ---------------------------------------------------------------------------
     #   Z sym  total        # sym  WBO       # sym  WBO       # sym  WBO
 ---------------------------------------------------------------------------
     1   7 N    3.675 --     2 C    0.919     7 H    0.913     8 H    0.910
                             9 H    0.910
     2   6 C    3.884 --     3 C    1.008    10 H    0.967    11 H    0.967
                             1 N    0.919
     3   6 C    3.979 --     2 C    1.008     4 C    0.994    13 H    0.972
                            12 H    0.972
     4   6 C    3.987 --     5 C    1.004     3 C    0.994    15 H    0.976
                            14 H    0.976
     5   6 C    3.994 --     6 C    1.019     4 C    1.004    16 H    0.978
                            17 H    0.978
     6   6 C    3.992 --     5 C    1.019    18 H    0.987    20 H    0.987
                            19 H    0.985
     7   1 H    0.927 --     1 N    0.913
     8   1 H    0.926 --     1 N    0.910
     9   1 H    0.926 --     1 N    0.910
    10   1 H    0.989 --     2 C    0.967
    11   1 H    0.989 --     2 C    0.967
    12   1 H    0.996 --     3 C    0.972
    13   1 H    0.996 --     3 C    0.972
    14   1 H    0.997 --     4 C    0.976
    15   1 H    0.997 --     4 C    0.976
    16   1 H    0.998 --     5 C    0.978
    17   1 H    0.998 --     5 C    0.978
    18   1 H    0.998 --     6 C    0.987
    19   1 H    0.997 --     6 C    0.985
    20   1 H    0.998 --     6 C    0.987
 ---------------------------------------------------------------------------

Topologies differ in total number of bonds
Writing topology from bond orders to xtbtopo.mol

molecular dipole:
                 x           y           z       tot (Debye)
 q only:        2.679      -0.235      -0.426
   full:        2.338      -0.183      -0.328       6.019
molecular quadrupole (traceless):
                xx          xy          yy          xz          yz          zz
 q only:       13.429      -3.345      -7.819      -6.245       1.632      -5.610
  q+dip:        8.368      -2.273      -4.441      -4.235       0.388      -3.927
   full:        9.536      -2.451      -5.329      -4.568       0.833      -4.207

           -------------------------------------------------
          |                Geometry Summary                 |
           -------------------------------------------------

      molecular mass/u    :       88.1715532
   center of mass at/Å    :        3.5913905      -0.6802744      -1.2761980
  moments of inertia/u·Å² :        0.3475143E+02   0.4499932E+03   0.4662161E+03
rotational constants/cm⁻¹ :        0.4850917E+00   0.3746197E-01   0.3615841E-01

 * 19 selected distances

     #   Z          #   Z                                           value/Å
     1   7 N        2   6 C                                       1.4992710
     2   6 C        3   6 C                                       1.5210261
     3   6 C        4   6 C                                       1.5316175 (max)
     4   6 C        5   6 C                                       1.5284962
     5   6 C        6   6 C                                       1.5231878
     1   7 N        7   1 H                                       1.0276472 (min)
     1   7 N        8   1 H                                       1.0287931
     1   7 N        9   1 H                                       1.0287907
     2   6 C       10   1 H                                       1.0907476
     2   6 C       11   1 H                                       1.0907480
     3   6 C       12   1 H                                       1.0917838
     3   6 C       13   1 H                                       1.0917809
     4   6 C       14   1 H                                       1.0910147
     4   6 C       15   1 H                                       1.0910146
     5   6 C       16   1 H                                       1.0915855
     5   6 C       17   1 H                                       1.0915872
     6   6 C       18   1 H                                       1.0871090
     6   6 C       19   1 H                                       1.0859593
     6   6 C       20   1 H                                       1.0871097

 * 4 distinct bonds (by element types)

   Z      Z             #   av. dist./Å        max./Å        min./Å
   1 H    6 C          11     1.0900400     1.0917838     1.0859593
   6 C    6 C           4     1.5260819     1.5316175     1.5210261
   1 H    7 N           3     1.0284104     1.0287931     1.0276472
   6 C    7 N           1     1.4992710     1.4992710     1.4992710


optimized geometry written to: xtbopt.xyz


           -------------------------------------------------
          | TOTAL ENERGY              -20.333218431566 Eh   |
          | GRADIENT NORM               0.000391951499 Eh/α |
          | HOMO-LUMO GAP               7.105194239514 eV   |
           -------------------------------------------------

------------------------------------------------------------------------
 * finished run on 2023/01/23 at 20:08:48.454     
------------------------------------------------------------------------
 total:
 * wall-time:     0 d,  0 h,  0 min,  0.187 sec
 *  cpu-time:     0 d,  0 h,  0 min, 19.494 sec
 * ratio c/w:   104.407 speedup
 SCF:
 * wall-time:     0 d,  0 h,  0 min,  0.069 sec
 *  cpu-time:     0 d,  0 h,  0 min,  8.952 sec
 * ratio c/w:   130.171 speedup
 ANC optimizer:
 * wall-time:     0 d,  0 h,  0 min,  0.068 sec
 *  cpu-time:     0 d,  0 h,  0 min,  4.284 sec
 * ratio c/w:    62.806 speedup

