20
 energy: -20.333218431566 gnorm: 0.000391951499 xtb: 6.5.1 (fef0646)
N            0.85981920404254       -0.01271642563346       -0.01454372205563
C            2.35898789795487       -0.02237036680532       -0.02914322961632
C            2.87659356121829       -0.68951791005219       -1.29425920688360
C            4.40801474657498       -0.70105527718318       -1.31588956063027
C            4.94771217007945       -1.36934608346433       -2.58017369302868
C            6.47079626587516       -1.37796176126136       -2.59570505114523
H            0.49269970294561        0.43493122955925        0.83451074678883
H            0.50721511038949       -0.97806299502746       -0.06135587421269
H            0.50917038260900        0.49551518502427       -0.83743874025414
H            2.70827605723320       -0.55918833161361        0.85378054863333
H            2.71032695714012        1.00867136018358        0.02781953534206
H            2.51687318589670       -0.15322606639316       -2.17459089369948
H            2.51671783945398       -1.71882494732224       -1.34904836844918
H            4.78059726681115       -1.23611525908972       -0.44112907637637
H            4.78068757317845        0.32308471659280       -1.26524471012283
H            4.57946108544938       -0.83547321834743       -3.45819969700273
H            4.57906946947392       -2.39540354742342       -2.63375616776859
H            6.86094766207926       -0.36375715338888       -2.56445504068728
H            6.83441290813272       -1.85630489932299       -3.50029239500112
H            6.86052095346172       -1.92340824903115       -1.73989540383006
