37
 energy: -58.307051903021 gnorm: 0.000270370915 xtb: 6.5.1 (fef0646)
N            0.87561093520146       -1.47241756740755        1.16569641532052
C            2.11677435167432       -1.02219308169116        1.81872066767219
C            3.32724588601003       -1.37783236981857        0.94442021822679
O            4.50642724812714       -0.74908157136121        1.40514735597847
C            5.19476696925426       -1.26732103111391        2.46262609128200
C            6.33327376586872       -0.53450363267907        2.86265472322667
C            6.71627126811383        0.67045208954804        2.20623153015041
C            7.81256484636720        1.36283475045153        2.59563942912530
C            7.11827205478185       -1.00562921385141        3.93983680512968
C            6.76437522940797       -2.20108095445214        4.61360936840438
C            5.63318908173188       -2.89361398577406        4.18798702905392
C            4.86155056736317       -2.43725502545328        3.13572775148848
C            7.57727281451939       -2.65011569825341        5.69475167661583
C            8.67425936848974       -1.95876603192395        6.08096395728559
C            9.05835109139035       -0.75280746979494        5.42198336153905
C           10.18691499961566       -0.02549181270882        5.80232580933349
C           10.53219829284018        1.14000615048353        5.14155933070421
C            9.76508120464661        1.60810830420528        4.09114222642591
C            8.62698608637404        0.91340021865779        3.67536448621113
C            8.26595112973624       -0.28147785457726        4.34527069097163
Cl           0.83631468666128       -0.42594315911628       -1.68779093414041
H            0.04986034500706       -1.14914523974840        1.67539045519231
H            0.84777999130084       -2.49154566175230        1.07876028498645
H            0.82364152238772       -1.08201562794472        0.18602393595265
H            2.20692851098838       -1.47380549884975        2.80815607714920
H            2.09509843179916        0.06271074611669        1.92552517805163
H            3.16316302100581       -0.97140144934185       -0.05787463494508
H            3.46904550598219       -2.46008575777582        0.86359110445374
H            6.10429427635663        1.01286518002896        1.38601840202619
H            8.09456195491993        2.27587992885715        2.09108950140103
H            5.35469720953179       -3.80674805564279        4.69246983385142
H            4.00415014556581       -3.01971784022223        2.84282698609363
H            7.29461383790249       -3.56269559049225        6.19944643169397
H            9.28723097085148       -2.30607571803396        6.90021612147683
H           10.79292360477782       -0.38324757243218        6.62212099019231
H           11.41002660789691        1.68922223181728        5.44944527183863
H           10.04166218554449        2.51891487203519        3.57996607058506
