24
 energy: -32.258735960953 gnorm: 0.000295850596 xtb: 6.5.1 (fef0646)
N            0.99155680005909        0.10287654887256        0.13105531311801
C            2.47990270114683        0.05603015498969        0.08337594981286
C            2.95388305158893       -0.02806703964875       -1.34358641378240
C            3.08493778082558       -1.28947658559880       -1.95829137649950
C            3.49685728092857       -1.39086747318664       -3.25643225428490
C            3.23409034497390        1.10788808057496       -2.05809436821972
C            3.65843532491346        1.03704243695545       -3.40025038662222
C            3.79463648584238       -0.23700321102035       -4.01231913890941
C            4.22931583188314       -0.30804310602268       -5.35187798286143
C            4.51294626362214        0.83055719704654       -6.05337948384656
C            4.37269505708606        2.09090890727229       -5.44957314217876
C            3.95493477424657        2.19314987366177       -4.15234306755629
H            0.66082818012201        0.12800746707569        1.10273091468031
H            0.59863129024092       -0.72470925269350       -0.33288219916635
H            0.64924419344422        0.93800869827523       -0.35868034715505
H            2.82360378915696       -0.81707290771129        0.63789510767991
H            2.87756521995867        0.95459055353402        0.55409871991808
H            2.87457677353211       -2.18457841277531       -1.39305217507218
H            3.60650322433494       -2.35709699986854       -3.72635957663714
H            3.15060570570220        2.08414080774532       -1.60401427767510
H            4.33665654629381       -1.27832157571332       -5.81544351592543
H            4.84740072797212        0.76992793093523       -7.07867946182658
H            4.60042912010808        2.97782317402102       -6.02234241020650
H            3.84995353201735        3.16277473327961       -3.68809442678386
