 Entering Gaussian System
 *********************************************
 Gaussian 98:
 frequency output generated by the xtb code
 *********************************************
                         Standard orientation:
 --------------------------------------------------------------------
  Center     Atomic     Atomic              Coordinates (Angstroms)
  Number     Number      Type              X           Y           Z
 --------------------------------------------------------------------
    1          7             0       -4.650687    0.267075    0.598196
    2          6             0       -3.165826    0.312398    0.744131
    3          6             0       -2.432053   -0.169558   -0.504281
    4          6             0       -0.937532   -0.130986   -0.367617
    5          6             0       -0.220557    1.019590   -0.715781
    6          6             0        1.142944    1.069983   -0.578566
    7          6             0        1.835660   -0.045520   -0.076716
    8         17             0        3.513611    0.003422    0.092168
    9          6             0        1.122545   -1.202335    0.282998
   10          6             0       -0.240766   -1.234189    0.138773
   11          1             0       -5.129192    0.596299    1.450337
   12          1             0       -4.977573   -0.691993    0.410159
   13          1             0       -4.966507    0.860276   -0.183574
   14          1             0       -2.866166   -0.295262    1.606401
   15          1             0       -2.854580    1.336357    0.983478
   16          1             0       -2.733473    0.435632   -1.365911
   17          1             0       -2.748029   -1.189727   -0.746798
   18          1             0       -0.752264    1.874022   -1.101951
   19          1             0        1.698267    1.953670   -0.852349
   20          1             0        1.662302   -2.054038    0.667218
   21          1             0       -0.788140   -2.121445    0.412926
 --------------------------------------------------------------------
     1 basis functions        1 primitive gaussians
     1 alpha electrons        1 beta electrons

 Harmonic frequencies (cm**-1), IR intensities (km*mol⁻¹),
 Raman scattering activities (A**4/amu), Raman depolarization ratios,
 reduced masses (AMU), force constants (mDyne/A) and normal coordinates:
                      1                      2                      3
                        a                      a                      a 
 Frequencies --    42.8948                56.3140                98.7923
 Red. masses --    18.6307                11.6315                 6.7886
 Frc consts  --     0.0000                 0.0000                 0.0000
 IR Inten    --     8.9340                 7.9509                 7.0391
 Raman Activ --     0.0000                 0.0000                 0.0000
 Depolar     --     0.0000                 0.0000                 0.0000
 Atom AN      X      Y      Z        X      Y      Z        X      Y      Z
   1   7     0.19   0.14   0.37    -0.00  -0.42   0.16     0.00   0.36  -0.14
   2   6     0.21   0.02   0.05    -0.00  -0.14   0.06    -0.00  -0.49   0.19
   3   6    -0.04  -0.03  -0.08     0.00   0.31  -0.12    -0.00  -0.01   0.00
   4   6    -0.02  -0.10  -0.25     0.00   0.23  -0.09    -0.00  -0.03   0.01
   5   6    -0.02  -0.10  -0.27     0.12   0.10  -0.26    -0.00  -0.05  -0.08
   6   6    -0.03  -0.07  -0.19     0.12  -0.00  -0.22    -0.00  -0.04  -0.09
   7   6    -0.04  -0.04  -0.10    -0.00   0.02  -0.01     0.00   0.01  -0.00
   8  17    -0.15   0.19   0.50    -0.00  -0.25   0.10     0.00   0.10  -0.04
   9   6    -0.03  -0.07  -0.19    -0.12   0.14   0.16     0.00   0.03   0.09
  10   6    -0.02  -0.10  -0.27    -0.11   0.25   0.12     0.00   0.01   0.10
  11   1     0.11   0.05   0.13    -0.00  -0.18   0.07    -0.00  -0.01   0.01
  12   1     0.02   0.04   0.12     0.04  -0.12  -0.00    -0.13   0.18  -0.25
  13   1     0.02   0.04   0.12    -0.05  -0.09   0.08     0.13   0.30   0.07
  14   1     0.09  -0.00  -0.00     0.05  -0.09  -0.03    -0.13  -0.33  -0.04
  15   1     0.09  -0.00   0.00    -0.05  -0.04   0.08     0.12  -0.22   0.25
  16   1    -0.04  -0.00  -0.01     0.00   0.17   0.03     0.00   0.10   0.07
  17   1    -0.04  -0.00  -0.01     0.00   0.11  -0.14    -0.00   0.03  -0.12
  18   1    -0.01  -0.03  -0.09     0.06   0.02  -0.13    -0.00  -0.03  -0.05
  19   1    -0.01  -0.02  -0.05     0.06  -0.03  -0.10    -0.00  -0.02  -0.05
  20   1    -0.01  -0.02  -0.05    -0.06   0.05   0.10     0.00   0.02   0.05
  21   1    -0.01  -0.03  -0.09    -0.06   0.10   0.08     0.00   0.01   0.05
                      4                      5                      6
                        a                      a                      a 
 Frequencies --   162.6788               208.3533               234.7832
 Red. masses --    12.7330                 2.5957                15.8277
 Frc consts  --     0.0000                 0.0000                 0.0000
 IR Inten    --     5.4600                 0.4274                 0.2217
 Raman Activ --     0.0000                 0.0000                 0.0000
 Depolar     --     0.0000                 0.0000                 0.0000
 Atom AN      X      Y      Z        X      Y      Z        X      Y      Z
   1   7    -0.24  -0.07  -0.18    -0.00   0.06  -0.02    -0.00  -0.04   0.01
   2   6    -0.26   0.09   0.24    -0.00  -0.24   0.09     0.00   0.06  -0.02
   3   6    -0.02   0.13   0.35    -0.00  -0.03   0.01     0.00   0.36  -0.14
   4   6     0.01   0.07   0.19     0.00   0.06  -0.02    -0.00  -0.07   0.03
   5   6     0.06  -0.03  -0.04    -0.00   0.07  -0.01     0.11  -0.14   0.06
   6   6     0.10  -0.13  -0.31     0.00   0.07  -0.03     0.07  -0.28   0.11
   7   6     0.11  -0.11  -0.28     0.00   0.07  -0.03    -0.00  -0.32   0.12
   8  17     0.12   0.10   0.26    -0.00  -0.11   0.04     0.00   0.48  -0.18
   9   6     0.10  -0.11  -0.31    -0.00   0.07  -0.03    -0.08  -0.28   0.10
  10   6     0.06  -0.01  -0.05     0.01   0.06  -0.03    -0.11  -0.14   0.05
  11   1    -0.15  -0.03  -0.09     0.00   0.53  -0.20     0.00   0.09  -0.03
  12   1    -0.02  -0.03  -0.08    -0.12  -0.04   0.50     0.00  -0.03   0.12
  13   1    -0.02  -0.03  -0.07     0.12  -0.36  -0.34    -0.00  -0.10  -0.07
  14   1    -0.12   0.03   0.09    -0.04  -0.12   0.01     0.02  -0.02  -0.04
  15   1    -0.12   0.04   0.09     0.04  -0.09   0.07    -0.02   0.01   0.05
  16   1    -0.00   0.03   0.10    -0.02   0.03   0.04     0.08   0.23   0.02
  17   1    -0.00   0.04   0.10     0.02  -0.00  -0.05    -0.08   0.16  -0.17
  18   1     0.02   0.00   0.01    -0.00   0.02   0.00     0.06  -0.03   0.01
  19   1     0.03  -0.05  -0.12    -0.00   0.02  -0.01     0.05  -0.10   0.04
  20   1     0.03  -0.04  -0.12     0.00   0.02  -0.01    -0.05  -0.10   0.04
  21   1     0.02   0.00   0.01     0.00   0.01  -0.02    -0.06  -0.03   0.01
                      7                      8                      9
                        a                      a                      a 
 Frequencies --   273.6175               330.3283               353.0305
 Red. masses --    15.1655                11.8203                 9.5288
 Frc consts  --     0.0000                 0.0000                 0.0000
 IR Inten    --    10.4464                 0.4098                 0.1423
 Raman Activ --     0.0000                 0.0000                 0.0000
 Depolar     --     0.0000                 0.0000                 0.0000
 Atom AN      X      Y      Z        X      Y      Z        X      Y      Z
   1   7     0.45  -0.13  -0.33    -0.05  -0.03  -0.09     0.00   0.01  -0.00
   2   6     0.30   0.09   0.23    -0.08   0.11   0.29    -0.00  -0.10   0.04
   3   6     0.15   0.08   0.20    -0.12   0.09   0.22    -0.00  -0.32   0.12
   4   6     0.08   0.01   0.04    -0.05  -0.11  -0.30     0.00   0.33  -0.13
   5   6    -0.04   0.06   0.01     0.02  -0.15  -0.32     0.16   0.26  -0.07
   6   6    -0.06   0.05  -0.04    -0.02   0.03   0.18     0.17  -0.17   0.07
   7   6    -0.17  -0.01  -0.04     0.02   0.15   0.40    -0.00  -0.27   0.10
   8  17    -0.44  -0.01  -0.03     0.22  -0.04  -0.11     0.00   0.17  -0.07
   9   6    -0.06  -0.06   0.00    -0.02   0.09   0.16    -0.17  -0.17   0.06
  10   6    -0.04  -0.04   0.04     0.02  -0.10  -0.34    -0.15   0.25  -0.12
  11   1    -0.02  -0.06  -0.16    -0.10  -0.02  -0.07     0.00   0.00  -0.00
  12   1     0.20  -0.05  -0.14     0.04  -0.02  -0.05    -0.02   0.01  -0.02
  13   1     0.20  -0.06  -0.14     0.04  -0.02  -0.05     0.02   0.02   0.00
  14   1     0.06   0.03   0.08    -0.05   0.03   0.09    -0.02   0.01   0.04
  15   1     0.06   0.03   0.07    -0.05   0.04   0.09     0.02  -0.02  -0.04
  16   1     0.02   0.03   0.07    -0.08   0.03   0.08    -0.15  -0.26  -0.04
  17   1     0.02   0.03   0.07    -0.08   0.03   0.09     0.14  -0.18   0.20
  18   1    -0.03   0.01   0.01     0.02  -0.06  -0.16     0.12   0.12  -0.02
  19   1     0.00   0.00  -0.00    -0.02   0.02   0.06     0.12  -0.09   0.04
  20   1     0.00  -0.00  -0.00    -0.02   0.02   0.06    -0.13  -0.09   0.03
  21   1    -0.03   0.00   0.01     0.02  -0.06  -0.16    -0.12   0.11  -0.06
                     10                     11                     12
                        a                      a                      a 
 Frequencies --   372.0362               420.3734               504.3767
 Red. masses --     8.9804                17.5284                10.0067
 Frc consts  --     0.0000                 0.0000                 0.0000
 IR Inten    --     0.0224                 2.6983                 8.2359
 Raman Activ --     0.0000                 0.0000                 0.0000
 Depolar     --     0.0000                 0.0000                 0.0000
 Atom AN      X      Y      Z        X      Y      Z        X      Y      Z
   1   7    -0.00   0.00  -0.00     0.24  -0.04  -0.11    -0.14   0.01   0.02
   2   6    -0.00  -0.00   0.00     0.13   0.03   0.08    -0.08   0.04   0.10
   3   6     0.00  -0.01   0.01    -0.28  -0.02  -0.06     0.02   0.02   0.06
   4   6     0.00   0.01  -0.00    -0.30  -0.04  -0.12     0.15  -0.19  -0.50
   5   6     0.05  -0.14  -0.40    -0.22  -0.02   0.17     0.11   0.02   0.04
   6   6    -0.04   0.15   0.40    -0.17  -0.10   0.02     0.08   0.10   0.17
   7   6     0.00  -0.01   0.00     0.10  -0.09  -0.22     0.06  -0.17  -0.46
   8  17    -0.00   0.00  -0.00     0.53   0.03   0.10    -0.18   0.01   0.02
   9   6     0.04  -0.16  -0.40    -0.17   0.10  -0.05     0.08   0.04   0.19
  10   6    -0.05   0.16   0.39    -0.22   0.13   0.11     0.11   0.00   0.04
  11   1    -0.00   0.01  -0.00    -0.02  -0.03  -0.07    -0.05   0.00   0.00
  12   1    -0.00  -0.00   0.01     0.11  -0.02  -0.06    -0.03   0.00   0.00
  13   1     0.00  -0.00  -0.00     0.11  -0.02  -0.06    -0.03   0.00   0.00
  14   1    -0.00  -0.00   0.00     0.06   0.00   0.01    -0.04   0.01   0.04
  15   1     0.00  -0.00  -0.00     0.06   0.01   0.01    -0.04   0.01   0.04
  16   1     0.00  -0.01  -0.00    -0.11   0.00  -0.00    -0.03   0.01   0.03
  17   1    -0.00  -0.01   0.01    -0.11  -0.00  -0.00    -0.03   0.01   0.03
  18   1     0.03  -0.09  -0.25    -0.05   0.04   0.11     0.01   0.08   0.20
  19   1    -0.02   0.09   0.24    -0.10   0.01   0.04     0.01   0.10   0.26
  20   1     0.02  -0.09  -0.24    -0.10   0.02   0.04     0.01   0.10   0.26
  21   1    -0.03   0.10   0.25    -0.05   0.05   0.11     0.01   0.07   0.20
                     13                     14                     15
                        a                      a                      a 
 Frequencies --   603.9878               660.4724               687.0199
 Red. masses --    11.3926                12.7697                12.4847
 Frc consts  --     0.0000                 0.0000                 0.0000
 IR Inten    --     0.0719                 2.0999                 2.9636
 Raman Activ --     0.0000                 0.0000                 0.0000
 Depolar     --     0.0000                 0.0000                 0.0000
 Atom AN      X      Y      Z        X      Y      Z        X      Y      Z
   1   7    -0.00  -0.01   0.00     0.03   0.00   0.00    -0.11   0.00   0.01
   2   6    -0.00  -0.02   0.01    -0.01   0.03   0.08    -0.00   0.01   0.02
   3   6    -0.00  -0.06   0.02    -0.30  -0.04  -0.10     0.27   0.03   0.07
   4   6    -0.00  -0.11   0.04    -0.14  -0.11  -0.29     0.25  -0.15  -0.40
   5   6     0.38  -0.25   0.13     0.15  -0.08   0.30    -0.15   0.25   0.10
   6   6     0.39   0.26  -0.06     0.20  -0.17  -0.15    -0.10   0.05  -0.28
   7   6     0.00   0.12  -0.05     0.16   0.13   0.34    -0.24   0.11   0.30
   8  17     0.00   0.07  -0.03    -0.28  -0.01  -0.04     0.24   0.00   0.01
   9   6    -0.38   0.24  -0.13     0.21   0.02  -0.23    -0.10  -0.22  -0.18
  10   6    -0.39  -0.27   0.06     0.15   0.25   0.17    -0.15  -0.12   0.25
  11   1     0.00   0.00  -0.00    -0.06  -0.01  -0.03     0.01   0.01   0.02
  12   1    -0.01   0.00  -0.00     0.05  -0.01  -0.02    -0.05   0.01   0.02
  13   1     0.01   0.00   0.00     0.05  -0.01  -0.02    -0.05   0.01   0.02
  14   1    -0.00   0.00   0.01     0.02   0.00   0.01    -0.03   0.01   0.02
  15   1     0.00  -0.00  -0.01     0.02   0.00   0.01    -0.03   0.01   0.02
  16   1    -0.03  -0.06  -0.01    -0.12  -0.00  -0.01     0.05   0.00   0.03
  17   1     0.03  -0.04   0.05    -0.12  -0.00  -0.01     0.05   0.01   0.02
  18   1     0.07  -0.09   0.04     0.10   0.02   0.08    -0.11   0.06   0.11
  19   1     0.08   0.09  -0.02     0.04  -0.06  -0.10     0.00   0.00  -0.05
  20   1    -0.07   0.08  -0.04     0.04  -0.02  -0.11     0.00  -0.03  -0.03
  21   1    -0.07  -0.09   0.03     0.11   0.04   0.07    -0.11   0.03   0.12
                     16                     17                     18
                        a                      a                      a 
 Frequencies --   789.9185               806.5532               835.5885
 Red. masses --     2.0483                 5.4555                 9.6748
 Frc consts  --     0.0000                 0.0000                 0.0000
 IR Inten    --    26.9812                33.7573                 0.3273
 Raman Activ --     0.0000                 0.0000                 0.0000
 Depolar     --     0.0000                 0.0000                 0.0000
 Atom AN      X      Y      Z        X      Y      Z        X      Y      Z
   1   7    -0.00   0.04  -0.01    -0.05   0.01   0.02    -0.03  -0.03  -0.08
   2   6     0.00   0.20  -0.08    -0.00   0.03   0.09     0.04  -0.02  -0.06
   3   6     0.00   0.19  -0.07    -0.10  -0.04  -0.09     0.40   0.07   0.20
   4   6     0.00  -0.01   0.00     0.06  -0.07  -0.19     0.03  -0.07  -0.19
   5   6    -0.01  -0.04   0.00    -0.00   0.18   0.15    -0.08  -0.18   0.16
   6   6    -0.02  -0.01  -0.00     0.03   0.21   0.14    -0.16  -0.32   0.18
   7   6    -0.00   0.01  -0.00    -0.07  -0.09  -0.24     0.21  -0.02  -0.05
   8  17     0.00  -0.00   0.00     0.05   0.01   0.03    -0.10  -0.00  -0.00
   9   6     0.03  -0.01   0.01     0.03  -0.07   0.24    -0.15   0.36  -0.08
  10   6     0.01  -0.04   0.03    -0.00  -0.04   0.24    -0.07   0.24   0.00
  11   1    -0.00  -0.06   0.02    -0.09  -0.01  -0.03     0.18   0.03   0.07
  12   1     0.21  -0.08   0.09     0.03  -0.01  -0.02    -0.12   0.02   0.05
  13   1    -0.21  -0.11  -0.01     0.03  -0.01  -0.02    -0.12   0.03   0.05
  14   1    -0.10  -0.39  -0.29     0.01   0.01   0.02    -0.05   0.00   0.01
  15   1     0.10  -0.10   0.48     0.01   0.01   0.02    -0.05   0.01   0.01
  16   1    -0.06  -0.29  -0.23    -0.07  -0.00  -0.01     0.12   0.02   0.05
  17   1     0.05  -0.06   0.37    -0.07  -0.00  -0.01     0.12   0.02   0.05
  18   1    -0.02  -0.02   0.02     0.03  -0.12  -0.37     0.04  -0.09  -0.11
  19   1    -0.02   0.01   0.01     0.09  -0.11  -0.34    -0.11  -0.10  -0.12
  20   1     0.02  -0.00  -0.01     0.09  -0.15  -0.33    -0.11  -0.00  -0.16
  21   1     0.02  -0.03  -0.01     0.03  -0.16  -0.36     0.04  -0.01  -0.14
                     19                     20                     21
                        a                      a                      a 
 Frequencies --   870.5825               873.4206               903.5352
 Red. masses --     2.9445                 3.1135                 6.1333
 Frc consts  --     0.0000                 0.0000                 0.0000
 IR Inten    --    10.6201                 7.1416                47.1588
 Raman Activ --     0.0000                 0.0000                 0.0000
 Depolar     --     0.0000                 0.0000                 0.0000
 Atom AN      X      Y      Z        X      Y      Z        X      Y      Z
   1   7     0.00  -0.15   0.06     0.00  -0.12   0.05    -0.32   0.09   0.22
   2   6    -0.00  -0.03   0.01    -0.00  -0.01   0.00     0.17   0.07   0.18
   3   6    -0.00   0.21  -0.08     0.00   0.19  -0.07     0.23  -0.10  -0.26
   4   6    -0.00   0.01  -0.00    -0.00   0.01  -0.00     0.08   0.02   0.05
   5   6     0.00  -0.10  -0.15    -0.03   0.03   0.20    -0.04  -0.01   0.04
   6   6    -0.01  -0.06  -0.11    -0.04   0.04   0.14    -0.07  -0.16  -0.02
   7   6    -0.00   0.01  -0.00    -0.00   0.01  -0.01     0.07   0.00   0.01
   8  17     0.00  -0.00   0.00     0.00  -0.00   0.00    -0.02  -0.00  -0.00
   9   6     0.02   0.03   0.12     0.04  -0.06  -0.13    -0.06   0.11  -0.12
  10   6    -0.00   0.02   0.17     0.03  -0.11  -0.17    -0.04   0.03   0.02
  11   1     0.00   0.12  -0.05     0.00   0.10  -0.04    -0.55  -0.06  -0.17
  12   1    -0.35   0.10  -0.09    -0.28   0.08  -0.07     0.18  -0.03  -0.12
  13   1     0.35   0.13   0.00     0.28   0.10   0.00     0.19  -0.06  -0.11
  14   1     0.22   0.03  -0.05     0.18   0.01  -0.05     0.10   0.01   0.02
  15   1    -0.22   0.06   0.02    -0.18   0.04   0.03     0.10   0.01   0.02
  16   1    -0.07  -0.15  -0.14    -0.08  -0.14  -0.13     0.11  -0.03  -0.09
  17   1     0.06  -0.02   0.21     0.07  -0.02   0.19     0.11  -0.04  -0.09
  18   1    -0.05   0.09   0.30     0.03  -0.15  -0.34     0.01  -0.04  -0.10
  19   1    -0.05   0.09   0.23     0.01  -0.10  -0.28    -0.06   0.03   0.14
  20   1     0.05  -0.08  -0.23    -0.01   0.11   0.28    -0.06   0.08   0.12
  21   1     0.05  -0.13  -0.29    -0.03   0.12   0.36     0.01  -0.04  -0.10
                     22                     23                     24
                        a                      a                      a 
 Frequencies --   909.3990               920.8653               986.0338
 Red. masses --     2.9930                 4.0105                10.4606
 Frc consts  --     0.0000                 0.0000                 0.0000
 IR Inten    --     7.3032                 0.0219                13.6614
 Raman Activ --     0.0000                 0.0000                 0.0000
 Depolar     --     0.0000                 0.0000                 0.0000
 Atom AN      X      Y      Z        X      Y      Z        X      Y      Z
   1   7     0.09  -0.03  -0.06    -0.00  -0.00   0.00    -0.45  -0.07  -0.20
   2   6    -0.05  -0.02  -0.05    -0.00   0.00  -0.00     0.67   0.02   0.07
   3   6    -0.06   0.03   0.08     0.00   0.01  -0.00    -0.06   0.02   0.04
   4   6    -0.02   0.00   0.01     0.00  -0.00  -0.00    -0.09   0.02   0.04
   5   6    -0.01   0.08   0.17    -0.03   0.08   0.21     0.03  -0.14   0.05
   6   6     0.04  -0.04  -0.19     0.03  -0.10  -0.27     0.04   0.14  -0.05
   7   6    -0.02  -0.00  -0.01     0.00   0.00  -0.00    -0.07  -0.00  -0.00
   8  17     0.01  -0.00  -0.01     0.00  -0.00   0.00     0.02   0.00   0.00
   9   6     0.04  -0.10  -0.16    -0.03   0.10   0.27     0.03  -0.14   0.05
  10   6    -0.01   0.05   0.18     0.02  -0.09  -0.21     0.03   0.14  -0.06
  11   1     0.16   0.02   0.05    -0.00   0.00  -0.00     0.07   0.01   0.03
  12   1    -0.06   0.01   0.04     0.00  -0.00   0.00    -0.23   0.01   0.03
  13   1    -0.06   0.02   0.03     0.00  -0.00  -0.00    -0.23   0.02   0.03
  14   1    -0.03  -0.00  -0.00    -0.00  -0.00   0.00     0.13  -0.01   0.03
  15   1    -0.03  -0.00  -0.01     0.00  -0.00   0.00     0.13   0.02   0.02
  16   1    -0.03   0.01   0.03    -0.01  -0.00  -0.00    -0.07   0.03   0.05
  17   1    -0.03   0.01   0.03     0.01  -0.00   0.00    -0.07   0.01   0.06
  18   1     0.05  -0.15  -0.41     0.04  -0.13  -0.34    -0.04  -0.06   0.03
  19   1    -0.03   0.16   0.42    -0.05   0.17   0.44    -0.04   0.07  -0.02
  20   1    -0.03   0.15   0.42     0.05  -0.17  -0.45    -0.04  -0.06   0.03
  21   1     0.05  -0.16  -0.40    -0.04   0.13   0.34    -0.04   0.06  -0.02
                     25                     26                     27
                        a                      a                      a 
 Frequencies --   996.4104              1042.1539              1094.8899
 Red. masses --     9.2664                 4.4969                 8.7799
 Frc consts  --     0.0000                 0.0000                 0.0000
 IR Inten    --    18.3214                 5.2803                27.6481
 Raman Activ --     0.0000                 0.0000                 0.0000
 Depolar     --     0.0000                 0.0000                 0.0000
 Atom AN      X      Y      Z        X      Y      Z        X      Y      Z
   1   7     0.12   0.04   0.10     0.00   0.14  -0.05     0.06  -0.06  -0.17
   2   6    -0.22  -0.00  -0.01    -0.00  -0.25   0.09    -0.10   0.20   0.52
   3   6     0.18  -0.00  -0.01     0.00   0.33  -0.13     0.15  -0.20  -0.52
   4   6    -0.09  -0.02  -0.05     0.00   0.15  -0.06    -0.00   0.03   0.09
   5   6     0.07  -0.41   0.17    -0.01  -0.14   0.04     0.01  -0.02  -0.01
   6   6     0.01   0.28  -0.10    -0.05  -0.07   0.03    -0.01  -0.03  -0.00
   7   6    -0.19  -0.01  -0.02     0.00   0.09  -0.03    -0.05   0.00   0.00
   8  17     0.06   0.00   0.01    -0.00  -0.00   0.00     0.01   0.00   0.00
   9   6     0.01  -0.28   0.11     0.04  -0.07   0.03    -0.01   0.02  -0.02
  10   6     0.07   0.42  -0.14     0.01  -0.13   0.06     0.01   0.01  -0.02
  11   1    -0.07  -0.01  -0.02    -0.00  -0.06   0.02     0.26   0.03   0.08
  12   1     0.09  -0.00  -0.02     0.18  -0.04   0.04    -0.14   0.01   0.08
  13   1     0.09  -0.01  -0.02    -0.18  -0.05  -0.01    -0.14   0.05   0.07
  14   1    -0.04   0.00  -0.01    -0.06   0.16   0.20    -0.15   0.08   0.20
  15   1    -0.04  -0.01  -0.00     0.06  -0.02  -0.25    -0.14   0.07   0.21
  16   1     0.10  -0.01  -0.03    -0.46  -0.07   0.01    -0.00  -0.04  -0.11
  17   1     0.10  -0.01  -0.03     0.46  -0.07   0.04     0.00  -0.05  -0.11
  18   1    -0.12  -0.20   0.04    -0.00  -0.04   0.03    -0.01  -0.00   0.02
  19   1    -0.15   0.15  -0.08    -0.12   0.03  -0.03     0.02  -0.01   0.02
  20   1    -0.15  -0.16   0.04     0.12   0.04  -0.00     0.02   0.02   0.00
  21   1    -0.12   0.18  -0.10     0.00  -0.04   0.01    -0.01   0.01   0.01
                     28                     29                     30
                        a                      a                      a 
 Frequencies --  1110.1914              1132.4625              1192.0507
 Red. masses --     8.9153                 3.2169                 2.2726
 Frc consts  --     0.0000                 0.0000                 0.0000
 IR Inten    --    56.5908                 8.8936                 3.7327
 Raman Activ --     0.0000                 0.0000                 0.0000
 Depolar     --     0.0000                 0.0000                 0.0000
 Atom AN      X      Y      Z        X      Y      Z        X      Y      Z
   1   7     0.01  -0.00  -0.01    -0.00  -0.05   0.02    -0.01  -0.00  -0.00
   2   6    -0.02   0.01   0.03     0.00   0.09  -0.03     0.00   0.01   0.02
   3   6    -0.01  -0.02  -0.04    -0.00  -0.11   0.04     0.09   0.00   0.01
   4   6     0.06   0.01   0.02     0.00   0.17  -0.07    -0.20  -0.01  -0.03
   5   6    -0.11   0.15  -0.07     0.09  -0.10   0.05     0.07   0.05  -0.01
   6   6     0.01   0.16  -0.06    -0.06  -0.15   0.05    -0.06   0.08  -0.03
   7   6     0.70   0.02   0.07     0.00   0.20  -0.07    -0.16  -0.01  -0.02
   8  17    -0.16  -0.00  -0.02    -0.00  -0.00   0.00     0.03   0.00   0.00
   9   6     0.01  -0.16   0.06     0.05  -0.14   0.06    -0.06  -0.08   0.02
  10   6    -0.11  -0.15   0.04    -0.09  -0.11   0.03     0.07  -0.05   0.02
  11   1     0.02   0.00   0.01     0.00   0.02  -0.01     0.00   0.00   0.00
  12   1    -0.01   0.00   0.01    -0.05   0.01  -0.01    -0.00  -0.00   0.00
  13   1    -0.01   0.00   0.00     0.05   0.01   0.00    -0.00   0.00   0.00
  14   1    -0.01   0.01   0.01    -0.03  -0.04  -0.05    -0.00  -0.00   0.00
  15   1    -0.01   0.00   0.01     0.03  -0.00   0.06    -0.00   0.00   0.00
  16   1    -0.03  -0.00  -0.00     0.08   0.03   0.03     0.08   0.01  -0.01
  17   1    -0.03   0.00  -0.01    -0.08   0.01  -0.04     0.08  -0.02   0.00
  18   1    -0.14  -0.02  -0.01     0.40   0.18  -0.02     0.49   0.29  -0.05
  19   1    -0.30   0.21  -0.11    -0.40   0.16  -0.10    -0.27   0.15  -0.09
  20   1    -0.30  -0.23   0.06     0.40   0.18  -0.02    -0.28  -0.17   0.03
  21   1    -0.13   0.01  -0.02    -0.39   0.16  -0.11     0.49  -0.26   0.16
                     31                     32                     33
                        a                      a                      a 
 Frequencies --  1200.4027              1237.5643              1245.1687
 Red. masses --     4.2268                 8.3694                 2.5152
 Frc consts  --     0.0000                 0.0000                 0.0000
 IR Inten    --     6.9081                 1.9099                10.1564
 Raman Activ --     0.0000                 0.0000                 0.0000
 Depolar     --     0.0000                 0.0000                 0.0000
 Atom AN      X      Y      Z        X      Y      Z        X      Y      Z
   1   7    -0.00  -0.26   0.10    -0.02  -0.00  -0.00    -0.00  -0.12   0.05
   2   6     0.00   0.38  -0.15     0.01   0.01   0.03    -0.00  -0.09   0.03
   3   6    -0.00  -0.09   0.04     0.24   0.02   0.07     0.00   0.23  -0.09
   4   6     0.00   0.11  -0.04    -0.60  -0.03  -0.10    -0.00  -0.16   0.06
   5   6    -0.04  -0.05   0.01    -0.18   0.02  -0.03     0.01   0.03  -0.01
   6   6     0.03  -0.02   0.01     0.12   0.17  -0.05    -0.06   0.04  -0.02
   7   6     0.00   0.04  -0.01     0.24   0.01   0.02    -0.00  -0.00   0.00
   8  17    -0.00   0.00  -0.00    -0.05  -0.00  -0.00     0.00  -0.00   0.00
   9   6    -0.03  -0.02   0.01     0.12  -0.16   0.08     0.06   0.05  -0.01
  10   6     0.04  -0.04   0.03    -0.18  -0.03  -0.01    -0.00   0.02  -0.01
  11   1     0.00   0.09  -0.03     0.00   0.00   0.00    -0.00   0.02  -0.01
  12   1    -0.23   0.03  -0.07    -0.00  -0.00   0.00    -0.09   0.00  -0.03
  13   1     0.23   0.07   0.03    -0.00   0.00   0.00     0.09   0.02   0.02
  14   1    -0.37  -0.10  -0.05     0.02   0.00   0.00    -0.44   0.10   0.25
  15   1     0.37  -0.04   0.10     0.02  -0.00   0.00     0.44  -0.10  -0.25
  16   1    -0.28   0.11   0.19     0.24  -0.00  -0.05     0.20  -0.14  -0.23
  17   1     0.28  -0.05  -0.22     0.24  -0.03  -0.04    -0.21   0.05   0.26
  18   1    -0.11  -0.07   0.02     0.03   0.06  -0.02     0.14   0.09  -0.02
  19   1     0.03  -0.02   0.01     0.30  -0.09   0.07     0.08  -0.04   0.02
  20   1    -0.03  -0.02   0.00     0.30   0.10  -0.01    -0.08  -0.05   0.01
  21   1     0.11  -0.06   0.03     0.03  -0.06   0.02    -0.14   0.08  -0.05
                     34                     35                     36
                        a                      a                      a 
 Frequencies --  1255.1020              1291.7773              1298.6689
 Red. masses --     5.4873                 3.9862                 7.6337
 Frc consts  --     0.0000                 0.0000                 0.0000
 IR Inten    --     1.0026                 2.7097                 0.0119
 Raman Activ --     0.0000                 0.0000                 0.0000
 Depolar     --     0.0000                 0.0000                 0.0000
 Atom AN      X      Y      Z        X      Y      Z        X      Y      Z
   1   7     0.00   0.03  -0.01     0.08   0.05   0.14     0.00  -0.00   0.00
   2   6    -0.00   0.01  -0.00     0.19  -0.10  -0.26     0.00  -0.07   0.02
   3   6    -0.00  -0.03   0.01     0.29  -0.04  -0.11     0.00  -0.01   0.00
   4   6     0.00   0.05  -0.02    -0.13   0.02   0.05     0.00   0.42  -0.16
   5   6    -0.19  -0.16   0.04    -0.03  -0.02  -0.00    -0.14  -0.08   0.02
   6   6     0.03  -0.08   0.03     0.01   0.04  -0.02     0.28  -0.20   0.11
   7   6     0.00   0.48  -0.18     0.03  -0.00   0.00     0.00   0.28  -0.11
   8  17     0.00  -0.01   0.00    -0.01  -0.00  -0.00     0.00   0.00  -0.00
   9   6    -0.03  -0.08   0.03     0.01  -0.04   0.01    -0.28  -0.22   0.05
  10   6     0.19  -0.14   0.08    -0.03   0.01  -0.01     0.14  -0.07   0.04
  11   1     0.00  -0.01   0.00    -0.18  -0.02  -0.06    -0.00  -0.01   0.00
  12   1     0.02  -0.00   0.01     0.00   0.03  -0.04    -0.00  -0.00   0.00
  13   1    -0.02  -0.00  -0.00     0.00  -0.05  -0.01     0.00  -0.00  -0.00
  14   1     0.08  -0.02  -0.04    -0.39   0.07   0.16    -0.07   0.03   0.07
  15   1    -0.08   0.02   0.04    -0.39   0.06   0.17     0.06  -0.02  -0.07
  16   1    -0.04   0.02   0.03    -0.34   0.09   0.18     0.25  -0.03  -0.11
  17   1     0.04  -0.01  -0.04    -0.34   0.06   0.19    -0.26   0.05   0.10
  18   1     0.25   0.13  -0.02     0.04   0.03   0.00    -0.28  -0.16   0.02
  19   1     0.38  -0.22   0.13     0.05  -0.01   0.01    -0.08   0.03  -0.02
  20   1    -0.38  -0.24   0.05     0.05   0.02   0.00     0.09   0.04  -0.00
  21   1    -0.25   0.11  -0.07     0.04  -0.02   0.02     0.27  -0.14   0.09
                     37                     38                     39
                        a                      a                      a 
 Frequencies --  1335.4735              1391.9465              1430.7976
 Red. masses --     4.1464                 2.9758                10.4123
 Frc consts  --     0.0000                 0.0000                 0.0000
 IR Inten    --     7.8329               213.8663                 1.3613
 Raman Activ --     0.0000                 0.0000                 0.0000
 Depolar     --     0.0000                 0.0000                 0.0000
 Atom AN      X      Y      Z        X      Y      Z        X      Y      Z
   1   7    -0.07  -0.03  -0.07     0.38  -0.00  -0.01     0.00   0.01  -0.00
   2   6    -0.28   0.05   0.11    -0.05   0.02   0.06     0.00  -0.00   0.00
   3   6     0.39  -0.04  -0.09     0.01   0.00   0.01    -0.00  -0.05   0.02
   4   6    -0.09   0.02   0.04    -0.01  -0.00  -0.01     0.00   0.20  -0.08
   5   6    -0.02  -0.02   0.00     0.00   0.01  -0.00     0.44  -0.01   0.05
   6   6    -0.00   0.02  -0.01     0.01  -0.00   0.00    -0.40  -0.09  -0.01
   7   6     0.02   0.00   0.00    -0.00  -0.00  -0.00     0.00   0.25  -0.09
   8  17    -0.00   0.00   0.00    -0.00   0.00   0.00    -0.00  -0.02   0.01
   9   6    -0.00  -0.03   0.01     0.01   0.01  -0.00     0.40  -0.07   0.07
  10   6    -0.02   0.01  -0.01     0.00  -0.01   0.00    -0.44  -0.03  -0.04
  11   1     0.06   0.01   0.02    -0.48  -0.09  -0.25    -0.00  -0.04   0.02
  12   1     0.04  -0.04   0.05    -0.48   0.16   0.07    -0.02   0.00   0.02
  13   1     0.04   0.06   0.01    -0.48  -0.07   0.15     0.02  -0.01  -0.02
  14   1     0.36  -0.07  -0.19     0.08  -0.07  -0.07    -0.01   0.00   0.00
  15   1     0.36  -0.08  -0.19     0.08   0.00  -0.10     0.01  -0.00  -0.00
  16   1    -0.37   0.06   0.18     0.01  -0.00   0.00     0.07   0.00  -0.01
  17   1    -0.37   0.08   0.17     0.01   0.00  -0.00    -0.07   0.01   0.01
  18   1     0.03   0.02   0.01    -0.01  -0.00   0.00    -0.12  -0.15   0.04
  19   1     0.03  -0.01   0.01    -0.01   0.00  -0.00     0.08  -0.13   0.06
  20   1     0.03   0.01   0.00    -0.01  -0.00   0.00    -0.08  -0.14   0.04
  21   1     0.03  -0.01   0.02    -0.01   0.00  -0.00     0.12  -0.14   0.07
                     40                     41                     42
                        a                      a                      a 
 Frequencies --  1436.5807              1440.6050              1445.4868
 Red. masses --     1.6542                 1.6845                 8.9004
 Frc consts  --     0.0000                 0.0000                 0.0000
 IR Inten    --    86.5324                73.9034                38.3884
 Raman Activ --     0.0000                 0.0000                 0.0000
 Depolar     --     0.0000                 0.0000                 0.0000
 Atom AN      X      Y      Z        X      Y      Z        X      Y      Z
   1   7    -0.00   0.20  -0.09     0.01   0.08   0.19     0.01  -0.01  -0.02
   2   6     0.00   0.03  -0.02    -0.03   0.02   0.06    -0.00   0.01   0.02
   3   6    -0.00   0.00   0.00     0.01  -0.01  -0.03    -0.14  -0.01  -0.02
   4   6     0.00  -0.01   0.01     0.02   0.00   0.01     0.43   0.01   0.05
   5   6    -0.03  -0.00  -0.00    -0.01  -0.02   0.00    -0.12  -0.23   0.07
   6   6     0.02   0.01  -0.00    -0.02   0.01  -0.01    -0.28   0.21  -0.11
   7   6    -0.00  -0.02   0.01     0.02  -0.00   0.00     0.30   0.01   0.03
   8  17    -0.00   0.00  -0.00    -0.00   0.00   0.00    -0.02  -0.00  -0.00
   9   6    -0.02   0.01  -0.00    -0.02  -0.01   0.00    -0.28  -0.22   0.05
  10   6     0.03   0.00   0.00    -0.01   0.01  -0.01    -0.12   0.22  -0.10
  11   1    -0.01  -0.69   0.26     0.22   0.01   0.14    -0.02  -0.00  -0.01
  12   1    -0.28   0.04   0.38    -0.16   0.18  -0.60     0.00  -0.01   0.04
  13   1     0.29  -0.17  -0.27    -0.14  -0.55  -0.35    -0.00   0.04   0.03
  14   1    -0.03  -0.00  -0.00     0.04  -0.03  -0.03    -0.02  -0.04  -0.02
  15   1     0.03  -0.00   0.01     0.05   0.00  -0.04    -0.02   0.02  -0.04
  16   1    -0.01   0.00   0.00    -0.00   0.04   0.02    -0.03  -0.01  -0.01
  17   1     0.01  -0.00  -0.01    -0.00  -0.01   0.04    -0.03   0.00  -0.01
  18   1     0.01   0.01  -0.00     0.02   0.01  -0.00     0.24   0.09  -0.01
  19   1    -0.00   0.01  -0.00     0.02  -0.01   0.00     0.23  -0.10   0.07
  20   1     0.00   0.01  -0.00     0.02   0.01  -0.00     0.23   0.12  -0.02
  21   1    -0.01   0.01  -0.00     0.02  -0.00   0.00     0.24  -0.08   0.06
                     43                     44                     45
                        a                      a                      a 
 Frequencies --  1482.1602              1501.9405              1523.5133
 Red. masses --     1.8803                 1.9958                11.4944
 Frc consts  --     0.0000                 0.0000                 0.0000
 IR Inten    --     9.9263                 8.8507                 0.0543
 Raman Activ --     0.0000                 0.0000                 0.0000
 Depolar     --     0.0000                 0.0000                 0.0000
 Atom AN      X      Y      Z        X      Y      Z        X      Y      Z
   1   7     0.01  -0.00  -0.01    -0.00   0.01   0.02    -0.00  -0.00   0.00
   2   6    -0.12  -0.09  -0.23     0.05   0.01   0.03     0.00   0.01  -0.00
   3   6    -0.01   0.01   0.03     0.14   0.09   0.24     0.00   0.05  -0.02
   4   6     0.03   0.00   0.00    -0.03   0.00   0.01    -0.00  -0.54   0.20
   5   6    -0.01  -0.01   0.01    -0.01  -0.01  -0.00     0.13   0.30  -0.10
   6   6    -0.02   0.01  -0.01     0.01   0.00   0.00     0.15  -0.25   0.11
   7   6     0.02   0.00   0.00    -0.00  -0.00  -0.00     0.00   0.41  -0.16
   8  17    -0.00  -0.00  -0.00    -0.00  -0.00  -0.00     0.00  -0.00   0.00
   9   6    -0.02  -0.01   0.00     0.01  -0.00   0.00    -0.15  -0.26   0.08
  10   6    -0.00   0.01  -0.01    -0.01   0.00  -0.00    -0.13   0.29  -0.12
  11   1    -0.03  -0.01  -0.02     0.01   0.00   0.01    -0.00   0.00  -0.00
  12   1    -0.06   0.02  -0.02    -0.01   0.01  -0.04    -0.00   0.00  -0.00
  13   1    -0.06  -0.03  -0.00    -0.01  -0.03  -0.02     0.00   0.00   0.00
  14   1     0.27   0.55   0.28    -0.05  -0.05  -0.01    -0.00  -0.00  -0.00
  15   1     0.27  -0.22   0.57    -0.05   0.03  -0.04     0.00   0.00   0.00
  16   1    -0.02  -0.05  -0.03    -0.23  -0.55  -0.30    -0.09  -0.01   0.02
  17   1    -0.02   0.02  -0.06    -0.22   0.21  -0.59     0.09  -0.02  -0.01
  18   1     0.02   0.01  -0.00     0.02   0.01  -0.00    -0.08   0.01  -0.01
  19   1     0.01  -0.01   0.00     0.00   0.00  -0.00    -0.09   0.00  -0.01
  20   1     0.01   0.01  -0.00     0.00  -0.00   0.00     0.09   0.01   0.01
  21   1     0.02  -0.01   0.00     0.02  -0.01   0.01     0.08   0.01   0.00
                     46                     47                     48
                        a                      a                      a 
 Frequencies --  1603.6537              2943.8819              2963.1645
 Red. masses --    11.5264                 1.9293                 2.0127
 Frc consts  --     0.0000                 0.0000                 0.0000
 IR Inten    --    40.9216                 7.5908                 2.9264
 Raman Activ --     0.0000                 0.0000                 0.0000
 Depolar     --     0.0000                 0.0000                 0.0000
 Atom AN      X      Y      Z        X      Y      Z        X      Y      Z
   1   7    -0.00   0.00   0.00     0.00  -0.00   0.00    -0.00   0.00  -0.00
   2   6     0.01  -0.00  -0.01     0.00   0.10  -0.04    -0.00  -0.26   0.10
   3   6     0.03   0.01   0.01    -0.00  -0.25   0.10     0.00  -0.11   0.05
   4   6    -0.27  -0.01  -0.03    -0.00  -0.01   0.00     0.00  -0.00   0.00
   5   6     0.47   0.14   0.00    -0.00   0.00  -0.00    -0.00   0.00  -0.00
   6   6    -0.42   0.06  -0.07     0.00  -0.00   0.00     0.00  -0.00   0.00
   7   6     0.15   0.00   0.01     0.00   0.00  -0.00    -0.00   0.00  -0.00
   8  17     0.01   0.00   0.00    -0.00   0.00  -0.00     0.00  -0.00   0.00
   9   6    -0.42  -0.08  -0.02    -0.00  -0.00   0.00    -0.00  -0.00   0.00
  10   6     0.47  -0.11   0.10     0.00   0.00  -0.00     0.00   0.00  -0.00
  11   1    -0.00   0.00   0.00    -0.00  -0.00   0.00    -0.00   0.00  -0.00
  12   1     0.00  -0.00  -0.00     0.01   0.01   0.00    -0.00  -0.01  -0.00
  13   1     0.00  -0.00  -0.00    -0.01   0.01  -0.01     0.00  -0.01   0.01
  14   1    -0.01  -0.00   0.00     0.07  -0.14   0.21    -0.17   0.33  -0.48
  15   1    -0.01   0.00  -0.00    -0.08  -0.25  -0.06     0.18   0.58   0.14
  16   1     0.01  -0.00  -0.01    -0.17   0.34  -0.50    -0.07   0.15  -0.22
  17   1     0.01  -0.00  -0.01     0.18   0.57   0.15     0.07   0.24   0.06
  18   1    -0.08  -0.08   0.02     0.01  -0.01   0.00     0.00  -0.00   0.00
  19   1     0.04  -0.07   0.03    -0.00   0.00  -0.00     0.00   0.00   0.00
  20   1     0.04   0.08  -0.02     0.00   0.00   0.00    -0.00   0.00  -0.00
  21   1    -0.08   0.08  -0.04    -0.01  -0.01   0.00    -0.00  -0.00   0.00
                     49                     50                     51
                        a                      a                      a 
 Frequencies --  2971.8784              2986.3857              3097.3445
 Red. masses --     1.4833                 1.5369                 1.7893
 Frc consts  --     0.0000                 0.0000                 0.0000
 IR Inten    --    16.4258                15.7441                11.5257
 Raman Activ --     0.0000                 0.0000                 0.0000
 Depolar     --     0.0000                 0.0000                 0.0000
 Atom AN      X      Y      Z        X      Y      Z        X      Y      Z
   1   7     0.00   0.00   0.00    -0.00   0.00   0.00     0.00   0.00  -0.00
   2   6     0.04   0.02   0.07    -0.09  -0.06  -0.16    -0.00   0.00  -0.00
   3   6    -0.09  -0.06  -0.16    -0.04  -0.03  -0.08     0.00   0.00  -0.00
   4   6    -0.01  -0.00  -0.00    -0.00  -0.00  -0.00     0.00   0.01  -0.00
   5   6     0.00  -0.00   0.00     0.00   0.00   0.00    -0.05   0.08  -0.03
   6   6     0.00   0.00  -0.00    -0.00  -0.00   0.00    -0.06  -0.09   0.03
   7   6     0.00   0.00   0.00     0.00   0.00   0.00     0.00  -0.00   0.00
   8  17    -0.00  -0.00  -0.00     0.00  -0.00  -0.00    -0.00   0.00  -0.00
   9   6     0.00  -0.00   0.00    -0.00   0.00  -0.00     0.09  -0.13   0.06
  10   6     0.00   0.00  -0.00     0.00  -0.00   0.00     0.07   0.12  -0.04
  11   1     0.00  -0.00  -0.00     0.00  -0.00  -0.01    -0.00   0.00  -0.00
  12   1     0.01   0.01  -0.00    -0.01  -0.02  -0.00    -0.00  -0.00  -0.00
  13   1     0.01  -0.01   0.01    -0.01   0.01  -0.02     0.00  -0.00   0.00
  14   1    -0.08   0.18  -0.23     0.16  -0.37   0.48    -0.00  -0.00   0.00
  15   1    -0.08  -0.27  -0.05     0.17   0.59   0.10     0.00  -0.00  -0.00
  16   1     0.15  -0.37   0.47     0.07  -0.17   0.22     0.00  -0.00   0.00
  17   1     0.16   0.60   0.11     0.07   0.28   0.05    -0.00  -0.01  -0.00
  18   1    -0.00   0.00  -0.00    -0.00   0.00  -0.00     0.17  -0.28   0.13
  19   1    -0.00  -0.00   0.00     0.00   0.00  -0.00     0.20   0.32  -0.10
  20   1    -0.00   0.00  -0.00     0.00  -0.00   0.00    -0.30   0.48  -0.22
  21   1    -0.00  -0.01   0.00    -0.00  -0.00   0.00    -0.27  -0.44   0.14
                     52                     53                     54
                        a                      a                      a 
 Frequencies --  3098.5247              3108.2072              3109.2956
 Red. masses --     1.7889                 1.8893                 1.8930
 Frc consts  --     0.0000                 0.0000                 0.0000
 IR Inten    --    14.5459                19.0713                 1.7173
 Raman Activ --     0.0000                 0.0000                 0.0000
 Depolar     --     0.0000                 0.0000                 0.0000
 Atom AN      X      Y      Z        X      Y      Z        X      Y      Z
   1   7     0.00  -0.00   0.00    -0.00   0.00  -0.00    -0.00  -0.00  -0.00
   2   6    -0.00  -0.00  -0.00    -0.00  -0.00   0.00    -0.00   0.00   0.00
   3   6     0.00   0.00   0.00    -0.00  -0.00   0.00     0.00   0.00  -0.00
   4   6     0.01  -0.00   0.00    -0.00   0.00  -0.00    -0.01  -0.00  -0.00
   5   6     0.07  -0.11   0.05     0.06  -0.09   0.04    -0.09   0.14  -0.07
   6   6     0.09   0.14  -0.04    -0.06  -0.08   0.03     0.08   0.12  -0.04
   7   6     0.01   0.00   0.00     0.00   0.00  -0.00     0.01  -0.00   0.00
   8  17    -0.00  -0.00  -0.00    -0.00  -0.00   0.00    -0.00  -0.00  -0.00
   9   6     0.06  -0.09   0.04     0.08  -0.12   0.06     0.05  -0.08   0.03
  10   6     0.04   0.07  -0.02    -0.09  -0.15   0.04    -0.06  -0.10   0.03
  11   1    -0.00   0.00   0.00     0.00  -0.00  -0.00     0.00  -0.00  -0.00
  12   1     0.00  -0.00   0.00     0.00  -0.00   0.00     0.00   0.00   0.00
  13   1    -0.00   0.00  -0.00    -0.00  -0.00   0.00     0.00  -0.00   0.00
  14   1     0.00  -0.00   0.00     0.00   0.00  -0.00     0.00  -0.00   0.00
  15   1     0.00   0.00   0.00    -0.00   0.00   0.00     0.00  -0.00  -0.00
  16   1    -0.00   0.00  -0.01    -0.00   0.00  -0.00     0.00  -0.00   0.00
  17   1    -0.00  -0.00  -0.00     0.00   0.01   0.00     0.00   0.00   0.00
  18   1    -0.25   0.41  -0.18    -0.19   0.30  -0.14     0.31  -0.50   0.22
  19   1    -0.32  -0.51   0.16     0.18   0.29  -0.09    -0.26  -0.42   0.13
  20   1    -0.21   0.33  -0.15    -0.26   0.42  -0.19    -0.16   0.25  -0.11
  21   1    -0.16  -0.26   0.08     0.31   0.50  -0.16     0.21   0.34  -0.10
                     55                     56                     57
                        a                      a                      a 
 Frequencies --  3202.9000              3207.6056              3227.1681
 Red. masses --     2.0330                 2.0308                 1.2894
 Frc consts  --     0.0000                 0.0000                 0.0000
 IR Inten    --    81.1726                84.3648                32.3630
 Raman Activ --     0.0000                 0.0000                 0.0000
 Depolar     --     0.0000                 0.0000                 0.0000
 Atom AN      X      Y      Z        X      Y      Z        X      Y      Z
   1   7    -0.05   0.04   0.27     0.02  -0.28   0.04    -0.13  -0.04  -0.04
   2   6     0.00   0.00   0.01     0.00  -0.01   0.00    -0.01  -0.00  -0.01
   3   6     0.00   0.00  -0.00    -0.00   0.00  -0.00     0.00   0.00   0.00
   4   6    -0.00   0.00   0.00     0.00  -0.00   0.00     0.00  -0.00  -0.00
   5   6    -0.00   0.00  -0.00    -0.00   0.00  -0.00     0.00  -0.00   0.00
   6   6    -0.00  -0.00   0.00    -0.00  -0.00   0.00     0.00  -0.00   0.00
   7   6     0.00  -0.00  -0.00     0.00   0.00  -0.00    -0.00   0.00   0.00
   8  17    -0.00   0.00   0.00    -0.00  -0.00   0.00     0.00  -0.00   0.00
   9   6     0.00  -0.00   0.00     0.00  -0.00   0.00     0.00   0.00  -0.00
  10   6    -0.00  -0.00  -0.00     0.00   0.00  -0.00     0.00   0.00  -0.00
  11   1     0.37  -0.27  -0.68    -0.11   0.05   0.21     0.19  -0.15  -0.38
  12   1    -0.05  -0.15  -0.00     0.21   0.62   0.13     0.19   0.65   0.12
  13   1    -0.14   0.29  -0.34    -0.19   0.36  -0.50     0.15  -0.33   0.42
  14   1    -0.00   0.01  -0.01    -0.00   0.01  -0.01     0.00  -0.01   0.01
  15   1    -0.00  -0.01  -0.00     0.00   0.02   0.00     0.01   0.02   0.00
  16   1     0.00   0.00  -0.00     0.00  -0.00   0.00    -0.00   0.00  -0.00
  17   1    -0.00  -0.00  -0.00    -0.00  -0.00   0.00    -0.00  -0.00  -0.00
  18   1     0.00  -0.00   0.00     0.00  -0.00   0.00    -0.00   0.00  -0.00
  19   1     0.00   0.00  -0.00     0.00   0.00  -0.00     0.00   0.00  -0.00
  20   1    -0.00   0.00  -0.00    -0.00   0.00  -0.00     0.00  -0.00   0.00
  21   1    -0.00  -0.00   0.00    -0.00  -0.00   0.00    -0.00  -0.00   0.00
