 Entering Gaussian System
 *********************************************
 Gaussian 98:
 frequency output generated by the xtb code
 *********************************************
                         Standard orientation:
 --------------------------------------------------------------------
  Center     Atomic     Atomic              Coordinates (Angstroms)
  Number     Number      Type              X           Y           Z
 --------------------------------------------------------------------
    1          7             0       -3.648529    1.347116   -1.766730
    2          6             0       -3.199480    2.618155   -1.120104
    3          6             0       -2.386277    2.368303    0.145974
    4          6             0       -1.134932    1.528306   -0.095739
    5          6             0       -0.376830    1.212294    1.187769
    6          7             0        0.751475    0.304978    0.957427
    7          6             0        0.646178   -1.168002    1.132670
    8          6             0        2.016853   -1.698520    0.545266
    9          6             0        1.877484   -2.697761   -0.565462
   10          6             0        0.702070   -3.100916   -1.045377
   11          6             0       -0.546116   -2.612718   -0.510084
   12          6             0       -0.586257   -1.736906    0.489795
   13          6             0        1.950725    0.686720    0.338462
   14          6             0        2.741038   -0.444884    0.094171
   15          6             0        3.978967   -0.310182   -0.497933
   16          6             0        4.425962    0.953555   -0.849057
   17          6             0        3.642629    2.073220   -0.610786
   18          6             0        2.403270    1.952058   -0.016932
   19         17             0       -4.141791   -0.842177    0.982136
   20          1             0       -2.866044    0.869091   -2.235052
   21          1             0       -4.384581    1.503129   -2.470528
   22          1             0       -4.014070    0.697529   -1.053947
   23          1             0       -4.074857    3.235950   -0.883682
   24          1             0       -2.611180    3.205391   -1.834857
   25          1             0       -3.017847    1.862178    0.885397
   26          1             0       -2.103181    3.319242    0.613552
   27          1             0       -0.471722    2.034961   -0.805502
   28          1             0       -1.407559    0.588836   -0.587086
   29          1             0       -1.043659    0.753169    1.922983
   30          1             0       -0.002613    2.128913    1.653476
   31          1             0        0.606881   -1.365989    2.214660
   32          1             0        2.599224   -2.158951    1.357155
   33          1             0        2.785531   -3.077757   -1.006794
   34          1             0        0.669884   -3.811577   -1.855936
   35          1             0       -1.465709   -2.977324   -0.939060
   36          1             0       -1.543274   -1.394351    0.849198
   37          1             0        4.581822   -1.183015   -0.682564
   38          1             0        5.392412    1.066810   -1.313131
   39          1             0        4.006473    3.048758   -0.890869
   40          1             0        1.791976    2.815761    0.176619
 --------------------------------------------------------------------
     1 basis functions        1 primitive gaussians
     1 alpha electrons        1 beta electrons

 Harmonic frequencies (cm**-1), IR intensities (km*mol⁻¹),
 Raman scattering activities (A**4/amu), Raman depolarization ratios,
 reduced masses (AMU), force constants (mDyne/A) and normal coordinates:
                      1                      2                      3
                        a                      a                      a 
 Frequencies --  -158.6485                35.0886                37.7876
 Red. masses --    16.8905                13.9688                12.1266
 Frc consts  --     0.0000                 0.0000                 0.0000
 IR Inten    --   106.5701                 0.5140                 4.4008
 Raman Activ --     0.0000                 0.0000                 0.0000
 Depolar     --     0.0000                 0.0000                 0.0000
 Atom AN      X      Y      Z        X      Y      Z        X      Y      Z
   1   7     0.15   0.34  -0.44    -0.03  -0.25   0.03    -0.21   0.09   0.06
   2   6     0.10   0.16  -0.07    -0.06  -0.17  -0.07    -0.25   0.07   0.11
   3   6    -0.06  -0.08  -0.02    -0.01  -0.06  -0.08    -0.13   0.03   0.03
   4   6    -0.02  -0.02  -0.02     0.06   0.05  -0.07    -0.06   0.18  -0.13
   5   6    -0.02  -0.01  -0.01     0.09   0.13  -0.06    -0.04   0.04  -0.17
   6   7    -0.01   0.00  -0.01     0.07   0.11  -0.03    -0.09   0.01  -0.27
   7   6    -0.00  -0.00  -0.01     0.00   0.10   0.00    -0.08   0.03  -0.14
   8   6    -0.00   0.00  -0.00    -0.06   0.02  -0.06    -0.02  -0.00   0.05
   9   6     0.00   0.01  -0.01    -0.18   0.14  -0.16     0.11  -0.07   0.09
  10   6     0.00   0.00  -0.01    -0.23   0.26  -0.14     0.16  -0.11  -0.00
  11   6    -0.00  -0.01   0.00    -0.17   0.25  -0.00     0.10  -0.08  -0.17
  12   6    -0.01  -0.01   0.00    -0.07   0.16   0.08    -0.01  -0.01  -0.24
  13   6    -0.00   0.00   0.00     0.10   0.04  -0.00    -0.01  -0.01  -0.12
  14   6    -0.00   0.01   0.00     0.04  -0.01   0.02     0.03  -0.02   0.06
  15   6    -0.00   0.01  -0.00     0.08  -0.08   0.08     0.12  -0.06   0.24
  16   6    -0.01   0.01  -0.01     0.18  -0.10   0.13     0.17  -0.07   0.24
  17   6    -0.01   0.01  -0.01     0.23  -0.06   0.10     0.13  -0.07   0.05
  18   6    -0.01   0.00   0.00     0.19   0.01   0.02     0.03  -0.03  -0.14
  19  17    -0.08  -0.32   0.46    -0.13  -0.31   0.14     0.08   0.03   0.26
  20   1     0.10   0.01   0.05    -0.01  -0.07   0.02    -0.07   0.08  -0.05
  21   1     0.20   0.17  -0.28    -0.01  -0.09   0.00    -0.11   0.01   0.07
  22   1    -0.19   0.14  -0.22    -0.01  -0.05   0.02     0.02  -0.02   0.02
  23   1     0.02   0.04  -0.03    -0.02  -0.06  -0.02    -0.08  -0.00   0.07
  24   1     0.06   0.08   0.03    -0.03  -0.06  -0.04    -0.10   0.05   0.03
  25   1    -0.04  -0.06  -0.05     0.01  -0.02  -0.01    -0.01  -0.03   0.00
  26   1    -0.04  -0.05   0.05    -0.03  -0.00  -0.03    -0.06   0.00   0.03
  27   1    -0.01   0.01   0.00     0.00   0.03  -0.02    -0.03   0.10  -0.02
  28   1     0.01  -0.01  -0.01     0.04   0.01  -0.02     0.01   0.07  -0.08
  29   1    -0.01  -0.01  -0.01     0.03   0.06  -0.00    -0.01   0.00  -0.06
  30   1    -0.01  -0.00  -0.00     0.03   0.05  -0.04    -0.00  -0.00  -0.03
  31   1    -0.00   0.00  -0.00     0.02   0.04   0.00    -0.06   0.03  -0.04
  32   1    -0.00   0.00  -0.00    -0.03  -0.03  -0.03    -0.03   0.01   0.04
  33   1     0.00   0.01  -0.00    -0.07   0.04  -0.07     0.05  -0.02   0.06
  34   1     0.00   0.00  -0.00    -0.09   0.10  -0.06     0.07  -0.05   0.01
  35   1     0.00  -0.01   0.00    -0.06   0.09   0.02     0.04  -0.04  -0.07
  36   1    -0.00  -0.01   0.00    -0.01   0.04   0.06    -0.02   0.00  -0.10
  37   1    -0.00   0.00  -0.00     0.01  -0.03   0.03     0.04  -0.02   0.12
  38   1    -0.00   0.00  -0.01     0.06  -0.05   0.06     0.07  -0.03   0.11
  39   1    -0.00   0.00  -0.00     0.09  -0.02   0.04     0.05  -0.02   0.01
  40   1    -0.00   0.00   0.00     0.07   0.01  -0.00    -0.00  -0.01  -0.08
                      4                      5                      6
                        a                      a                      a 
 Frequencies --    47.3133                55.4563                58.1585
 Red. masses --    23.7866                13.7938                17.8065
 Frc consts  --     0.0000                 0.0000                 0.0000
 IR Inten    --    13.4000                 5.0055                17.2832
 Raman Activ --     0.0000                 0.0000                 0.0000
 Depolar     --     0.0000                 0.0000                 0.0000
 Atom AN      X      Y      Z        X      Y      Z        X      Y      Z
   1   7     0.14  -0.06  -0.05     0.07   0.02  -0.02     0.04  -0.27   0.00
   2   6     0.02   0.00  -0.08    -0.10  -0.05   0.22     0.08  -0.20  -0.14
   3   6     0.03   0.10  -0.07    -0.13  -0.17   0.21     0.02  -0.11  -0.09
   4   6     0.09   0.17  -0.02     0.14   0.27   0.09     0.18   0.11  -0.03
   5   6    -0.07   0.05   0.04     0.09   0.12   0.08    -0.02  -0.05   0.05
   6   7    -0.08   0.03   0.10     0.07   0.10   0.06     0.02  -0.04   0.13
   7   6    -0.15   0.02  -0.01    -0.02   0.09   0.01    -0.04  -0.05  -0.07
   8   6    -0.13   0.00   0.03    -0.01   0.04   0.08     0.00  -0.01  -0.01
   9   6    -0.10  -0.06   0.08     0.02  -0.10   0.21     0.09  -0.06   0.02
  10   6    -0.08  -0.01   0.01     0.03  -0.09   0.17     0.12  -0.02  -0.10
  11   6    -0.10   0.09  -0.11     0.02   0.07  -0.01     0.09   0.07  -0.27
  12   6    -0.13   0.11  -0.13    -0.00   0.16  -0.09     0.01   0.04  -0.25
  13   6    -0.08   0.00   0.07     0.06   0.04  -0.00    -0.00  -0.01   0.10
  14   6    -0.12  -0.01   0.01    -0.01  -0.00  -0.03    -0.02   0.00  -0.01
  15   6    -0.15  -0.04  -0.05    -0.04  -0.07  -0.13    -0.06   0.03  -0.09
  16   6    -0.13  -0.04  -0.05    -0.02  -0.10  -0.19    -0.08   0.04  -0.05
  17   6    -0.08  -0.02   0.03     0.06  -0.06  -0.14    -0.04   0.04   0.10
  18   6    -0.05   0.00   0.10     0.10   0.01  -0.03     0.00   0.02   0.18
  19  17     0.71  -0.21   0.08    -0.22  -0.19  -0.32    -0.26   0.35   0.36
  20   1     0.03   0.04  -0.09     0.05   0.02   0.03     0.02  -0.13   0.08
  21   1    -0.03  -0.05   0.05     0.06   0.02  -0.05     0.06  -0.08  -0.05
  22   1     0.14  -0.05   0.01    -0.03  -0.02  -0.06    -0.06  -0.01   0.02
  23   1    -0.01  -0.02  -0.03    -0.05  -0.05   0.08     0.03  -0.04  -0.07
  24   1    -0.01   0.01  -0.03    -0.04   0.04   0.10     0.04  -0.09  -0.05
  25   1     0.02   0.02  -0.02    -0.02  -0.16   0.01     0.01  -0.07  -0.05
  26   1    -0.01   0.04  -0.02    -0.13  -0.06   0.14    -0.05  -0.03  -0.01
  27   1     0.04   0.08   0.03     0.01   0.19   0.09     0.07   0.10   0.05
  28   1     0.05   0.06  -0.05     0.13   0.10  -0.06     0.12   0.05  -0.08
  29   1    -0.05   0.00  -0.02     0.02   0.02   0.00    -0.04  -0.04  -0.03
  30   1    -0.03  -0.00   0.05     0.03   0.02   0.05    -0.03  -0.03   0.06
  31   1    -0.07  -0.01  -0.01    -0.03   0.02   0.00    -0.04  -0.05  -0.03
  32   1    -0.04   0.01   0.02    -0.00   0.04   0.04    -0.00   0.01   0.01
  33   1    -0.02  -0.04   0.05     0.01  -0.06   0.10     0.03  -0.04   0.04
  34   1    -0.02  -0.02   0.01     0.02  -0.06   0.08     0.05  -0.01  -0.02
  35   1    -0.02   0.04  -0.05     0.01   0.04  -0.02     0.04   0.03  -0.11
  36   1    -0.04   0.05  -0.06    -0.00   0.08  -0.06    -0.00   0.02  -0.10
  37   1    -0.05  -0.01  -0.03    -0.03  -0.03  -0.05    -0.02   0.01  -0.06
  38   1    -0.05  -0.02  -0.03    -0.01  -0.05  -0.08    -0.03   0.02  -0.04
  39   1    -0.02  -0.01   0.01     0.03  -0.02  -0.05    -0.01   0.02   0.04
  40   1     0.00   0.01   0.05     0.05   0.01   0.00     0.01   0.00   0.09
                      7                      8                      9
                        a                      a                      a 
 Frequencies --    76.5637                83.3651               119.0345
 Red. masses --    14.6643                13.4310                 9.2785
 Frc consts  --     0.0000                 0.0000                 0.0000
 IR Inten    --    11.0302                 5.3231                 3.4222
 Raman Activ --     0.0000                 0.0000                 0.0000
 Depolar     --     0.0000                 0.0000                 0.0000
 Atom AN      X      Y      Z        X      Y      Z        X      Y      Z
   1   7    -0.04   0.05   0.20     0.04  -0.03  -0.14    -0.19   0.06  -0.07
   2   6     0.12   0.12  -0.06    -0.06  -0.09   0.08    -0.08  -0.01   0.00
   3   6     0.20   0.30  -0.07    -0.17  -0.26   0.11    -0.09  -0.11  -0.01
   4   6    -0.02  -0.06   0.03    -0.12  -0.18   0.08    -0.27  -0.39   0.02
   5   6     0.01   0.04   0.04    -0.02  -0.04   0.05     0.02   0.06  -0.03
   6   7     0.00   0.01   0.08     0.00  -0.03   0.06     0.07   0.10   0.08
   7   6    -0.04   0.01   0.04     0.00  -0.02   0.11    -0.02   0.08  -0.05
   8   6     0.00  -0.00   0.16     0.01  -0.03   0.15    -0.02   0.05  -0.00
   9   6     0.11  -0.03   0.18     0.04   0.09   0.03     0.02  -0.12   0.15
  10   6     0.16   0.13  -0.07     0.05   0.32  -0.19     0.04  -0.08   0.08
  11   6     0.11   0.19  -0.23     0.04   0.27  -0.18     0.03   0.09  -0.10
  12   6     0.02   0.07  -0.13     0.02   0.03   0.04    -0.00   0.15  -0.15
  13   6    -0.01  -0.02   0.02    -0.02  -0.04   0.02     0.08   0.06   0.05
  14   6    -0.00  -0.02   0.10     0.03  -0.04   0.16    -0.02   0.02  -0.09
  15   6    -0.02  -0.06   0.06     0.04  -0.07   0.17    -0.07  -0.05  -0.21
  16   6    -0.06  -0.08  -0.09    -0.03  -0.10  -0.03     0.04  -0.05  -0.08
  17   6    -0.08  -0.08  -0.18    -0.10  -0.11  -0.23     0.20   0.01   0.18
  18   6    -0.05  -0.04  -0.11    -0.08  -0.08  -0.19     0.21   0.06   0.22
  19  17    -0.26  -0.37   0.03     0.22   0.29  -0.04     0.09   0.06   0.01
  20   1    -0.03  -0.02   0.04     0.03   0.01  -0.01    -0.06   0.02  -0.05
  21   1    -0.03   0.00   0.07     0.04   0.01  -0.06    -0.06   0.04   0.00
  22   1     0.00   0.04   0.08    -0.02  -0.02  -0.07    -0.04   0.01  -0.02
  23   1     0.06   0.07  -0.03    -0.03  -0.05   0.02    -0.01   0.01   0.01
  24   1     0.03  -0.02  -0.06    -0.00   0.00   0.06    -0.01  -0.01   0.01
  25   1     0.05   0.19   0.04    -0.06  -0.12  -0.01    -0.05   0.02   0.01
  26   1     0.14   0.11  -0.11    -0.07  -0.09   0.08     0.04  -0.04  -0.02
  27   1     0.02  -0.11  -0.04    -0.06  -0.05   0.00    -0.10  -0.22  -0.10
  28   1    -0.08  -0.03   0.07    -0.03  -0.06   0.04    -0.16  -0.16   0.14
  29   1     0.01   0.03   0.03     0.01   0.00   0.04     0.06   0.07   0.07
  30   1     0.01   0.02  -0.02    -0.00   0.00  -0.02     0.01   0.07  -0.12
  31   1    -0.05  -0.00   0.01    -0.01   0.00   0.03    -0.03   0.00  -0.02
  32   1    -0.01   0.02   0.06    -0.01  -0.03   0.04    -0.00   0.05   0.02
  33   1     0.04  -0.04   0.10     0.01   0.01   0.03     0.01  -0.08   0.09
  34   1     0.07   0.05  -0.03     0.02   0.14  -0.09     0.02  -0.06   0.05
  35   1     0.04   0.08  -0.11     0.01   0.11  -0.08     0.01   0.04  -0.05
  36   1    -0.01   0.01  -0.05     0.00  -0.02   0.03    -0.00   0.05  -0.06
  37   1    -0.00  -0.02   0.03     0.02  -0.02   0.09    -0.05  -0.03  -0.11
  38   1    -0.02  -0.03  -0.04    -0.01  -0.04  -0.01     0.00  -0.03  -0.04
  39   1    -0.03  -0.03  -0.09    -0.05  -0.04  -0.12     0.09   0.00   0.10
  40   1    -0.02  -0.01  -0.05    -0.04  -0.02  -0.10     0.09   0.03   0.11
                     10                     11                     12
                        a                      a                      a 
 Frequencies --   138.3284               180.2385               180.4664
 Red. masses --     9.0787                 9.6994                 7.8559
 Frc consts  --     0.0000                 0.0000                 0.0000
 IR Inten    --    11.1093                 9.9984                10.9969
 Raman Activ --     0.0000                 0.0000                 0.0000
 Depolar     --     0.0000                 0.0000                 0.0000
 Atom AN      X      Y      Z        X      Y      Z        X      Y      Z
   1   7    -0.41   0.22  -0.08     0.33  -0.10  -0.10     0.31   0.01  -0.19
   2   6    -0.08   0.08  -0.03    -0.19   0.02   0.04     0.00  -0.00   0.09
   3   6     0.05  -0.12  -0.16    -0.09   0.20   0.02     0.09  -0.08   0.02
   4   6     0.18   0.07  -0.24    -0.15   0.09   0.03     0.04  -0.13  -0.04
   5   6    -0.06  -0.11  -0.13    -0.07   0.06  -0.02     0.04  -0.05  -0.02
   6   7     0.04  -0.06   0.10    -0.11   0.03  -0.12     0.07  -0.03   0.05
   7   6     0.09  -0.06   0.14    -0.04   0.02   0.02     0.04  -0.02  -0.00
   8   6     0.08  -0.04   0.09    -0.02   0.03   0.07     0.03  -0.02  -0.05
   9   6     0.05   0.04   0.02     0.11   0.18  -0.07    -0.05  -0.12   0.05
  10   6     0.04   0.16  -0.04     0.16   0.13  -0.13    -0.09  -0.05   0.05
  11   6     0.05   0.09   0.06     0.13  -0.17   0.05    -0.06   0.13  -0.05
  12   6     0.08  -0.06   0.19     0.02  -0.20   0.08     0.00   0.10  -0.02
  13   6     0.05  -0.04   0.14     0.00   0.03   0.08    -0.01  -0.02  -0.06
  14   6     0.05  -0.03   0.08    -0.03   0.01   0.08     0.01  -0.00  -0.08
  15   6    -0.04  -0.04  -0.09    -0.11  -0.12  -0.11     0.05   0.09   0.01
  16   6    -0.08  -0.04  -0.16    -0.06  -0.17  -0.20     0.01   0.13   0.09
  17   6    -0.02  -0.03   0.03     0.10  -0.10   0.04    -0.07   0.09  -0.00
  18   6     0.06  -0.03   0.19     0.15   0.01   0.18    -0.10   0.00  -0.09
  19  17    -0.02  -0.05  -0.00    -0.12   0.04   0.08    -0.25  -0.00   0.15
  20   1    -0.19   0.11  -0.20     0.12   0.10  -0.10     0.03   0.25  -0.38
  21   1    -0.24   0.09   0.12     0.03  -0.09   0.02    -0.17  -0.04   0.21
  22   1     0.04  -0.00   0.00     0.20  -0.10  -0.03     0.43  -0.18  -0.03
  23   1     0.01   0.05   0.05    -0.12  -0.10   0.03    -0.04  -0.08   0.08
  24   1    -0.04   0.02  -0.02    -0.12   0.09   0.03    -0.06   0.09   0.06
  25   1     0.03  -0.09  -0.07    -0.01   0.10   0.04     0.03  -0.02   0.01
  26   1    -0.01  -0.05   0.01    -0.01   0.08  -0.04     0.05  -0.03   0.01
  27   1     0.07   0.10  -0.00    -0.04  -0.00  -0.01     0.01  -0.05  -0.02
  28   1     0.10   0.05  -0.16    -0.07   0.02   0.03    -0.00  -0.04   0.00
  29   1    -0.06  -0.06  -0.10    -0.01   0.02   0.00     0.02  -0.00   0.00
  30   1    -0.06  -0.04   0.02    -0.01   0.01  -0.01     0.01  -0.00  -0.02
  31   1     0.04  -0.01   0.04    -0.01   0.03   0.01     0.01  -0.02  -0.00
  32   1     0.03  -0.02   0.02    -0.01  -0.00   0.02     0.02   0.01  -0.01
  33   1     0.01   0.02  -0.00     0.05   0.12  -0.05    -0.02  -0.09   0.04
  34   1     0.00   0.08  -0.04     0.07   0.08  -0.08    -0.04  -0.04   0.04
  35   1     0.01   0.04   0.01     0.05  -0.10   0.04    -0.02   0.07  -0.03
  36   1     0.02  -0.03   0.07    -0.00  -0.11   0.04     0.01   0.05  -0.01
  37   1    -0.02  -0.01  -0.06    -0.07  -0.05  -0.05     0.03   0.04   0.01
  38   1    -0.05  -0.01  -0.09    -0.04  -0.07  -0.11     0.02   0.05   0.06
  39   1    -0.01  -0.01   0.01     0.05  -0.03   0.02    -0.03   0.03   0.00
  40   1     0.03  -0.01   0.09     0.08   0.02   0.08    -0.05  -0.01  -0.03
                     13                     14                     15
                        a                      a                      a 
 Frequencies --   197.9500               217.7707               270.3571
 Red. masses --     8.9425                 8.4558                 9.0206
 Frc consts  --     0.0000                 0.0000                 0.0000
 IR Inten    --     3.3710                 0.6433                 2.4257
 Raman Activ --     0.0000                 0.0000                 0.0000
 Depolar     --     0.0000                 0.0000                 0.0000
 Atom AN      X      Y      Z        X      Y      Z        X      Y      Z
   1   7     0.13  -0.05   0.07     0.06   0.00   0.05    -0.06  -0.04  -0.13
   2   6    -0.19   0.02   0.12    -0.25  -0.01   0.24    -0.20   0.01  -0.09
   3   6     0.05   0.12  -0.02     0.25  -0.02  -0.08    -0.13   0.25  -0.04
   4   6    -0.02   0.04  -0.16     0.12  -0.15  -0.29    -0.16   0.08   0.16
   5   6    -0.03  -0.09  -0.18     0.05   0.04  -0.20    -0.23  -0.29   0.15
   6   7    -0.06  -0.11  -0.24     0.09   0.02   0.21     0.05  -0.03   0.06
   7   6     0.10  -0.07   0.12    -0.06   0.01  -0.06     0.16  -0.05  -0.02
   8   6     0.08  -0.07   0.07    -0.04  -0.00  -0.01     0.12  -0.04  -0.12
   9   6    -0.00  -0.22   0.22    -0.05   0.09  -0.11    -0.04  -0.09  -0.09
  10   6    -0.04   0.13   0.01    -0.04  -0.09   0.04    -0.11  -0.14   0.10
  11   6    -0.01   0.29  -0.07    -0.06  -0.11   0.03    -0.04   0.14  -0.02
  12   6     0.06  -0.05   0.22    -0.06   0.09  -0.15     0.10   0.15  -0.03
  13   6    -0.05  -0.09  -0.14     0.08   0.00   0.19     0.11   0.01   0.12
  14   6    -0.01  -0.07  -0.15     0.07   0.00   0.18     0.14   0.02   0.07
  15   6    -0.03   0.03  -0.16     0.05   0.04   0.14     0.17   0.04   0.13
  16   6    -0.02   0.09   0.05    -0.08   0.03  -0.05     0.09   0.00  -0.10
  17   6    -0.00   0.07   0.20    -0.12   0.02  -0.11     0.03  -0.02  -0.17
  18   6    -0.06  -0.04   0.04    -0.01   0.01   0.10     0.14  -0.01   0.07
  19  17     0.04   0.03  -0.05     0.02   0.03  -0.02     0.00   0.02  -0.00
  20   1     0.12  -0.06   0.20     0.10  -0.01   0.15     0.01   0.00  -0.01
  21   1     0.17  -0.03  -0.13     0.14   0.01  -0.11     0.01  -0.02  -0.06
  22   1    -0.12   0.03  -0.02    -0.11   0.01  -0.05    -0.03  -0.01  -0.05
  23   1    -0.10  -0.07   0.08    -0.12  -0.12   0.20    -0.08  -0.03  -0.03
  24   1    -0.13   0.07   0.02    -0.21   0.12   0.05    -0.09   0.02  -0.03
  25   1     0.05   0.06   0.04     0.13   0.02   0.05    -0.04   0.14   0.03
  26   1     0.05   0.04  -0.04     0.13  -0.00  -0.07    -0.02   0.11  -0.09
  27   1    -0.00   0.01  -0.05     0.03  -0.08  -0.12    -0.00   0.02   0.09
  28   1    -0.03   0.02  -0.05    -0.00  -0.06  -0.04    -0.07   0.06  -0.00
  29   1    -0.02  -0.03  -0.07    -0.01   0.06  -0.05    -0.07  -0.21  -0.04
  30   1    -0.01  -0.04  -0.03    -0.00   0.04  -0.10    -0.15  -0.11   0.16
  31   1     0.06   0.04   0.05    -0.05  -0.04  -0.02     0.06  -0.04  -0.01
  32   1     0.06   0.03   0.02    -0.04  -0.04  -0.01     0.03  -0.04  -0.05
  33   1    -0.01  -0.16   0.12    -0.01   0.06  -0.06    -0.03  -0.07  -0.03
  34   1    -0.03   0.03   0.01    -0.01  -0.03   0.01    -0.06  -0.09   0.07
  35   1    -0.01   0.14  -0.05    -0.01  -0.05   0.02    -0.03   0.10  -0.02
  36   1     0.03  -0.02   0.10    -0.02   0.05  -0.07     0.04   0.10  -0.03
  37   1     0.00   0.02  -0.08     0.03   0.02   0.05     0.06   0.01   0.06
  38   1     0.00   0.05   0.03    -0.04   0.01  -0.05     0.01  -0.00  -0.06
  39   1     0.01   0.03   0.12    -0.07  -0.00  -0.09    -0.02  -0.01  -0.10
  40   1    -0.03  -0.02   0.04    -0.01  -0.00   0.02     0.04   0.00   0.03
                     16                     17                     18
                        a                      a                      a 
 Frequencies --   271.6944               281.8976               347.8269
 Red. masses --     9.7148                 9.7647                 9.8002
 Frc consts  --     0.0000                 0.0000                 0.0000
 IR Inten    --     1.0815                10.6631                 3.3193
 Raman Activ --     0.0000                 0.0000                 0.0000
 Depolar     --     0.0000                 0.0000                 0.0000
 Atom AN      X      Y      Z        X      Y      Z        X      Y      Z
   1   7    -0.03  -0.02  -0.03    -0.22  -0.02  -0.27    -0.18  -0.02  -0.22
   2   6     0.04  -0.01  -0.08    -0.26  -0.09  -0.04    -0.00  -0.21   0.11
   3   6    -0.14   0.04   0.05     0.01   0.18  -0.09     0.28  -0.00   0.00
   4   6    -0.08   0.12   0.08     0.08   0.15   0.19     0.21  -0.09   0.20
   5   6     0.27   0.23  -0.09     0.22   0.28   0.20     0.05  -0.16   0.23
   6   7    -0.03  -0.10  -0.33     0.09  -0.00   0.30    -0.06  -0.05  -0.34
   7   6    -0.01  -0.05  -0.05     0.05  -0.07   0.07    -0.14   0.05  -0.10
   8   6     0.04  -0.12   0.04     0.02  -0.07  -0.06    -0.06   0.07   0.12
   9   6    -0.06  -0.11   0.02     0.05  -0.08  -0.07    -0.06   0.05   0.18
  10   6    -0.08  -0.04   0.00     0.05  -0.04  -0.10    -0.02   0.14   0.01
  11   6    -0.08   0.01  -0.05     0.09  -0.03  -0.02    -0.12  -0.08  -0.02
  12   6    -0.04  -0.04  -0.00     0.09  -0.08   0.04    -0.18  -0.08  -0.03
  13   6     0.15  -0.14   0.12    -0.03  -0.08  -0.01     0.01   0.05  -0.12
  14   6     0.22  -0.12   0.20    -0.06  -0.07  -0.12     0.03   0.04   0.01
  15   6     0.17   0.10   0.11    -0.04  -0.03  -0.08     0.04   0.06   0.04
  16   6    -0.15   0.15  -0.17     0.02   0.01   0.15     0.01   0.05  -0.09
  17   6    -0.18   0.10  -0.04    -0.05  -0.03   0.07     0.07   0.08  -0.02
  18   6     0.01  -0.06   0.27    -0.13  -0.09  -0.11     0.09   0.08   0.02
  19  17     0.00  -0.01   0.01     0.02   0.04  -0.01     0.02   0.04  -0.02
  20   1    -0.03  -0.00  -0.04    -0.05   0.01  -0.07    -0.07  -0.01  -0.09
  21   1    -0.04  -0.01   0.02    -0.03   0.04  -0.09    -0.03   0.10  -0.05
  22   1     0.02  -0.01   0.01    -0.09  -0.03  -0.12    -0.09  -0.04  -0.12
  23   1     0.02   0.04  -0.08    -0.10  -0.08   0.06    -0.00  -0.09   0.12
  24   1     0.06  -0.04  -0.02    -0.15   0.04  -0.02    -0.06  -0.01   0.02
  25   1    -0.06  -0.00  -0.01     0.03   0.11   0.04     0.11   0.08   0.08
  26   1    -0.07   0.02   0.02    -0.01   0.10  -0.12     0.10   0.05  -0.11
  27   1    -0.07   0.02  -0.03     0.02  -0.00   0.02     0.11  -0.07   0.08
  28   1    -0.03   0.01   0.07     0.01   0.02   0.11     0.05  -0.02   0.06
  29   1     0.11   0.17   0.07     0.07   0.17   0.12     0.03  -0.12   0.03
  30   1     0.20   0.07  -0.12     0.15   0.08  -0.03     0.00  -0.07   0.13
  31   1    -0.00   0.02  -0.01     0.03  -0.05   0.01    -0.07   0.05  -0.02
  32   1    -0.03  -0.07   0.02     0.03  -0.01  -0.03    -0.03   0.05   0.06
  33   1    -0.03  -0.06   0.01     0.02  -0.02  -0.02    -0.01   0.01   0.06
  34   1    -0.03  -0.01   0.00     0.00  -0.00  -0.04     0.03   0.06  -0.02
  35   1    -0.03   0.02  -0.03     0.02  -0.00   0.00    -0.02  -0.08   0.00
  36   1    -0.00   0.01   0.01     0.02  -0.03   0.02    -0.05  -0.06   0.02
  37   1     0.10   0.06   0.02    -0.01  -0.01  -0.04     0.03   0.02   0.03
  38   1    -0.08   0.06  -0.13     0.03   0.02   0.09    -0.01   0.00  -0.05
  39   1    -0.10   0.04  -0.05    -0.02  -0.00   0.04     0.03   0.02   0.00
  40   1    -0.03  -0.05   0.12    -0.05  -0.03  -0.06     0.04   0.02   0.04
                     19                     20                     21
                        a                      a                      a 
 Frequencies --   370.5028               398.1639               429.0471
 Red. masses --     9.5302                10.2089                 9.6951
 Frc consts  --     0.0000                 0.0000                 0.0000
 IR Inten    --     1.6966                 0.6506                 0.8950
 Raman Activ --     0.0000                 0.0000                 0.0000
 Depolar     --     0.0000                 0.0000                 0.0000
 Atom AN      X      Y      Z        X      Y      Z        X      Y      Z
   1   7    -0.02  -0.02  -0.04     0.04   0.01   0.06     0.02   0.00   0.02
   2   6    -0.01  -0.03  -0.01    -0.06   0.09  -0.07    -0.04   0.05  -0.04
   3   6    -0.03   0.05   0.03    -0.12   0.04  -0.03    -0.07   0.03  -0.01
   4   6    -0.04   0.01   0.04    -0.07   0.04  -0.02    -0.05   0.01   0.00
   5   6     0.03  -0.12  -0.02    -0.05  -0.04  -0.02     0.01  -0.05  -0.02
   6   7     0.04  -0.09  -0.11     0.16   0.04   0.28     0.13   0.00   0.16
   7   6     0.00   0.01  -0.01    -0.13  -0.02  -0.08    -0.03   0.04  -0.04
   8   6     0.07  -0.05   0.17    -0.02  -0.04   0.13     0.03  -0.03   0.09
   9   6     0.05   0.27  -0.06    -0.11  -0.15   0.25     0.07   0.03   0.10
  10   6     0.03   0.06   0.19    -0.07   0.19  -0.17     0.06   0.23  -0.00
  11   6    -0.02  -0.01   0.14    -0.17  -0.22  -0.03     0.01  -0.11   0.20
  12   6    -0.04   0.33  -0.18    -0.16  -0.20  -0.04    -0.06   0.24  -0.12
  13   6     0.08  -0.16   0.02     0.19  -0.04   0.14    -0.09  -0.19  -0.36
  14   6     0.20  -0.12   0.21     0.17  -0.05   0.04    -0.06  -0.16  -0.40
  15   6    -0.04  -0.07  -0.32     0.09   0.14  -0.20     0.20  -0.02   0.14
  16   6    -0.03   0.03   0.04     0.19   0.19   0.00    -0.05   0.02  -0.06
  17   6    -0.01  -0.00   0.25     0.12   0.14  -0.06    -0.13  -0.04  -0.02
  18   6    -0.19  -0.16  -0.20     0.08  -0.06  -0.17     0.02  -0.11   0.22
  19  17    -0.00   0.00   0.00     0.00  -0.00   0.00    -0.00  -0.00   0.00
  20   1    -0.01  -0.00  -0.02     0.03   0.01   0.04     0.01   0.00   0.02
  21   1    -0.01   0.01  -0.01     0.01  -0.05   0.01     0.00  -0.03  -0.00
  22   1    -0.01  -0.01  -0.02     0.03   0.02   0.04     0.01   0.01   0.02
  23   1    -0.00  -0.00  -0.02    -0.02   0.03  -0.04    -0.02   0.01  -0.02
  24   1     0.01  -0.01  -0.00    -0.01   0.02  -0.02    -0.01   0.01  -0.01
  25   1    -0.01   0.04   0.02    -0.05  -0.01  -0.03    -0.03   0.01  -0.01
  26   1    -0.00   0.03  -0.02    -0.04  -0.00   0.02    -0.02   0.00   0.01
  27   1    -0.01   0.01   0.01    -0.03   0.03   0.00    -0.02   0.01   0.00
  28   1    -0.03   0.02  -0.01    -0.01   0.02  -0.02    -0.02   0.01  -0.01
  29   1     0.02  -0.06  -0.01    -0.02  -0.05  -0.04     0.01  -0.03  -0.01
  30   1     0.00  -0.05   0.02    -0.06  -0.01   0.02    -0.02  -0.01   0.01
  31   1    -0.05  -0.01  -0.00    -0.09  -0.04  -0.03    -0.05  -0.02  -0.02
  32   1    -0.03  -0.07   0.05    -0.03   0.02   0.07     0.02   0.06   0.05
  33   1     0.01   0.18  -0.12    -0.03  -0.07   0.09     0.02   0.10  -0.05
  34   1     0.01   0.06   0.01     0.02   0.11  -0.10     0.02   0.16  -0.08
  35   1     0.01   0.01   0.01    -0.04  -0.16   0.05     0.02  -0.09   0.08
  36   1    -0.01   0.18  -0.12    -0.05  -0.14   0.06    -0.02   0.08  -0.05
  37   1    -0.04  -0.01  -0.21     0.02   0.05  -0.14     0.16   0.03   0.19
  38   1    -0.01   0.04   0.01     0.06   0.05   0.01    -0.00   0.04   0.02
  39   1     0.01   0.01   0.14    -0.01   0.05  -0.03    -0.03   0.00   0.04
  40   1    -0.13  -0.08  -0.14    -0.03  -0.04  -0.11     0.06  -0.04   0.24
                     22                     23                     24
                        a                      a                      a 
 Frequencies --   468.0962               480.4710               500.2869
 Red. masses --     8.8646                10.1537                10.5284
 Frc consts  --     0.0000                 0.0000                 0.0000
 IR Inten    --    13.0724                 7.4015                 1.3278
 Raman Activ --     0.0000                 0.0000                 0.0000
 Depolar     --     0.0000                 0.0000                 0.0000
 Atom AN      X      Y      Z        X      Y      Z        X      Y      Z
   1   7     0.07   0.09   0.17     0.03   0.05   0.09     0.00   0.01   0.02
   2   6    -0.22   0.28  -0.19    -0.11   0.14  -0.09    -0.02   0.02  -0.02
   3   6    -0.06  -0.16  -0.35     0.00  -0.10  -0.20    -0.00  -0.02  -0.03
   4   6     0.13  -0.12   0.12     0.08  -0.10   0.10     0.01  -0.01   0.02
   5   6     0.06   0.03   0.26     0.01  -0.01   0.17     0.03  -0.03   0.01
   6   7    -0.09  -0.13  -0.04     0.07   0.19  -0.24    -0.09  -0.11  -0.16
   7   6    -0.04  -0.12   0.05     0.10   0.24  -0.11    -0.09  -0.02  -0.12
   8   6     0.05   0.07   0.03    -0.05  -0.14  -0.02     0.01   0.12  -0.16
   9   6    -0.00   0.18  -0.02    -0.00  -0.29   0.01     0.18   0.04   0.02
  10   6    -0.00  -0.05   0.16    -0.02   0.05  -0.25     0.10   0.16   0.16
  11   6    -0.08   0.05  -0.11     0.12  -0.08   0.18     0.01   0.08   0.08
  12   6    -0.09  -0.09   0.01     0.18   0.19  -0.05    -0.22   0.05   0.07
  13   6    -0.10  -0.04  -0.10     0.15   0.07   0.06     0.12  -0.01   0.35
  14   6     0.05   0.06   0.01    -0.03  -0.11   0.10    -0.02   0.04  -0.23
  15   6     0.07   0.06   0.00    -0.12  -0.11   0.02     0.01  -0.08  -0.21
  16   6     0.08   0.02  -0.14    -0.19  -0.05   0.15     0.19  -0.01   0.32
  17   6     0.08  -0.02   0.05    -0.10   0.05   0.00    -0.22  -0.17  -0.27
  18   6     0.03  -0.06  -0.04    -0.07   0.12   0.01    -0.00  -0.04   0.21
  19  17    -0.01  -0.02   0.00    -0.01  -0.01   0.00     0.00  -0.00  -0.00
  20   1     0.08   0.04   0.13     0.04   0.02   0.07     0.01   0.00   0.01
  21   1     0.02  -0.15   0.01     0.01  -0.07   0.01    -0.00  -0.01   0.00
  22   1     0.08   0.07   0.12     0.04   0.04   0.06     0.01   0.00   0.01
  23   1    -0.08   0.01   0.05    -0.04  -0.00   0.04    -0.01   0.00   0.01
  24   1    -0.17   0.15  -0.08    -0.09   0.08  -0.04    -0.02   0.01  -0.01
  25   1    -0.06  -0.12  -0.18    -0.02  -0.06  -0.10    -0.00  -0.01  -0.02
  26   1    -0.05  -0.10   0.03    -0.01  -0.05   0.01    -0.00  -0.01   0.00
  27   1     0.08  -0.05   0.06     0.06  -0.05   0.05     0.01  -0.01   0.01
  28   1     0.11  -0.07   0.06     0.06  -0.05   0.05     0.01  -0.01   0.01
  29   1     0.03   0.05   0.12     0.04  -0.09   0.02     0.01   0.01   0.02
  30   1     0.09   0.00   0.03    -0.05  -0.01   0.10     0.04  -0.02  -0.01
  31   1    -0.01  -0.04   0.01     0.01   0.10  -0.02     0.02  -0.03  -0.03
  32   1     0.02   0.00  -0.01    -0.04  -0.04   0.02     0.02   0.10  -0.01
  33   1    -0.01   0.06  -0.02     0.01  -0.09   0.03     0.04  -0.01   0.00
  34   1     0.03  -0.04   0.07    -0.05   0.06  -0.11     0.01   0.03   0.06
  35   1    -0.01   0.06  -0.10     0.01  -0.08   0.16     0.04  -0.03  -0.01
  36   1    -0.02   0.02  -0.02     0.05   0.00   0.02    -0.06   0.00   0.03
  37   1     0.02   0.01   0.03    -0.03  -0.02  -0.05    -0.04  -0.04  -0.11
  38   1     0.02   0.01  -0.05    -0.06  -0.02   0.04     0.08   0.04   0.16
  39   1     0.02   0.01   0.06    -0.00  -0.01  -0.04    -0.13  -0.06  -0.21
  40   1     0.03  -0.00   0.01    -0.07   0.00  -0.02    -0.01  -0.01   0.00
                     25                     26                     27
                        a                      a                      a 
 Frequencies --   537.7977               545.2151               554.7146
 Red. masses --    10.4229                10.2892                10.3093
 Frc consts  --     0.0000                 0.0000                 0.0000
 IR Inten    --     0.3426                 4.1646                 0.6607
 Raman Activ --     0.0000                 0.0000                 0.0000
 Depolar     --     0.0000                 0.0000                 0.0000
 Atom AN      X      Y      Z        X      Y      Z        X      Y      Z
   1   7    -0.00  -0.00  -0.00    -0.00  -0.00   0.00    -0.00   0.00  -0.00
   2   6    -0.02   0.02  -0.03     0.02  -0.01   0.02    -0.02   0.02  -0.02
   3   6    -0.04   0.04   0.01     0.02  -0.01   0.00    -0.03   0.01   0.00
   4   6    -0.01   0.03  -0.00     0.01   0.01  -0.01    -0.01   0.00   0.02
   5   6     0.14  -0.07  -0.07    -0.07   0.06   0.03     0.05  -0.04  -0.02
   6   7     0.05  -0.17   0.02    -0.05   0.02   0.11     0.22   0.16   0.07
   7   6     0.25  -0.23  -0.19    -0.11  -0.00  -0.28    -0.01   0.21  -0.10
   8   6     0.34   0.07   0.03     0.07  -0.03  -0.29    -0.07   0.26  -0.08
   9   6    -0.05  -0.03   0.19     0.33  -0.26  -0.13    -0.11   0.20   0.04
  10   6    -0.11   0.21   0.05     0.10   0.20   0.08    -0.01  -0.07   0.03
  11   6    -0.27  -0.18  -0.01     0.03   0.12   0.15    -0.04   0.06  -0.19
  12   6     0.11   0.02  -0.19    -0.33   0.09   0.13     0.02  -0.22   0.08
  13   6    -0.08   0.21   0.05    -0.09  -0.00   0.00     0.14  -0.01  -0.08
  14   6    -0.05   0.24   0.03     0.08   0.07   0.15     0.23   0.01  -0.06
  15   6    -0.07  -0.11   0.07     0.08   0.02   0.13     0.27  -0.28  -0.05
  16   6    -0.09  -0.16   0.02    -0.05  -0.05  -0.23    -0.16  -0.13   0.01
  17   6    -0.03  -0.12   0.07     0.08  -0.06   0.23    -0.21  -0.16   0.19
  18   6    -0.12   0.23  -0.00    -0.10  -0.05  -0.13    -0.25   0.08   0.05
  19  17    -0.00  -0.00   0.00     0.00   0.00  -0.00     0.00   0.00  -0.00
  20   1     0.00   0.00   0.01    -0.00  -0.00  -0.00     0.00   0.00   0.00
  21   1    -0.00  -0.01  -0.00     0.00   0.01   0.00    -0.00  -0.01  -0.00
  22   1     0.00   0.00   0.00    -0.00  -0.00  -0.01     0.00   0.00   0.00
  23   1    -0.01   0.01  -0.02     0.01  -0.00   0.01    -0.01   0.01  -0.01
  24   1    -0.00   0.00  -0.01     0.01  -0.00   0.01    -0.00   0.00  -0.01
  25   1    -0.02   0.01  -0.00     0.01  -0.00   0.00    -0.01   0.01  -0.00
  26   1    -0.02   0.01   0.01     0.01  -0.00   0.00    -0.01   0.01  -0.00
  27   1    -0.02   0.02  -0.01     0.01  -0.00  -0.00    -0.01   0.00  -0.01
  28   1    -0.01   0.02  -0.01     0.01  -0.00   0.00    -0.01  -0.00   0.01
  29   1     0.04   0.06   0.03    -0.03   0.03   0.01     0.03  -0.11  -0.06
  30   1     0.12  -0.02  -0.08    -0.01   0.02  -0.00    -0.08  -0.01   0.07
  31   1     0.03  -0.11  -0.06     0.04  -0.06  -0.08     0.01   0.06  -0.02
  32   1     0.16   0.08   0.00    -0.04   0.00  -0.03    -0.04   0.04  -0.02
  33   1    -0.06  -0.05  -0.01     0.06  -0.21   0.02    -0.02  -0.04   0.13
  34   1     0.03   0.09  -0.02    -0.07  -0.01   0.08     0.05  -0.14   0.12
  35   1    -0.08  -0.08   0.03     0.06  -0.10   0.06    -0.01  -0.03  -0.00
  36   1     0.09   0.06   0.03    -0.10  -0.06   0.11    -0.00  -0.16   0.10
  37   1    -0.07  -0.07   0.04    -0.00  -0.01   0.03     0.09  -0.07  -0.02
  38   1    -0.03  -0.04  -0.01    -0.05  -0.01  -0.13    -0.07   0.07  -0.02
  39   1     0.05  -0.06   0.00     0.03  -0.01   0.11    -0.01  -0.06   0.05
  40   1     0.01   0.10  -0.04    -0.03  -0.00  -0.07    -0.09   0.00   0.03
                     28                     29                     30
                        a                      a                      a 
 Frequencies --   571.9067               653.5839               687.7369
 Red. masses --    11.2065                11.0477                 9.7077
 Frc consts  --     0.0000                 0.0000                 0.0000
 IR Inten    --     3.3711                 4.7292                 3.9308
 Raman Activ --     0.0000                 0.0000                 0.0000
 Depolar     --     0.0000                 0.0000                 0.0000
 Atom AN      X      Y      Z        X      Y      Z        X      Y      Z
   1   7    -0.00  -0.00  -0.01    -0.00  -0.00  -0.01     0.01   0.00   0.01
   2   6    -0.07   0.06  -0.07    -0.03   0.02  -0.03     0.03  -0.03   0.04
   3   6    -0.10   0.06   0.01    -0.03   0.03   0.01     0.03  -0.03  -0.02
   4   6    -0.02   0.01   0.04    -0.00  -0.01   0.02    -0.01   0.01  -0.03
   5   6     0.29  -0.25  -0.12     0.17  -0.18  -0.07    -0.19   0.21   0.08
   6   7     0.34  -0.11   0.06    -0.00  -0.21  -0.08    -0.04   0.19  -0.07
   7   6    -0.11  -0.14   0.01    -0.10  -0.01   0.24     0.06  -0.03  -0.10
   8   6    -0.13  -0.12   0.02    -0.25   0.16  -0.09     0.17  -0.14   0.07
   9   6     0.14   0.05  -0.11    -0.11  -0.04   0.09     0.09  -0.02   0.01
  10   6     0.08  -0.02   0.14     0.02  -0.04  -0.18    -0.00  -0.02   0.23
  11   6     0.03   0.11  -0.02     0.17  -0.04   0.13    -0.15  -0.00  -0.12
  12   6    -0.26  -0.06   0.12     0.01   0.12  -0.01    -0.04  -0.17   0.04
  13   6     0.18   0.12  -0.14     0.13   0.07   0.38     0.26   0.02   0.29
  14   6    -0.13  -0.10   0.03    -0.10   0.09  -0.30    -0.12  -0.17  -0.33
  15   6    -0.19  -0.07   0.08     0.16   0.05   0.19     0.07  -0.08   0.13
  16   6    -0.24  -0.03   0.13     0.01  -0.01  -0.24    -0.21  -0.03  -0.06
  17   6     0.08   0.25  -0.09     0.08  -0.05   0.22     0.07   0.14   0.10
  18   6     0.09   0.26  -0.05    -0.13   0.01  -0.17    -0.03   0.01  -0.18
  19  17     0.00   0.00   0.00     0.00  -0.00   0.00    -0.00  -0.00   0.00
  20   1     0.01   0.00   0.02     0.01   0.00   0.01    -0.01  -0.00  -0.01
  21   1    -0.00  -0.04  -0.01    -0.00  -0.02  -0.00     0.00   0.02   0.01
  22   1     0.01   0.01   0.02     0.01   0.00   0.01    -0.01  -0.00  -0.01
  23   1    -0.02   0.02  -0.04    -0.01   0.01  -0.02     0.01  -0.01   0.02
  24   1    -0.01   0.01  -0.02    -0.01   0.00  -0.01     0.01  -0.00   0.01
  25   1    -0.04   0.02  -0.00    -0.02   0.01   0.00     0.02  -0.02  -0.00
  26   1    -0.03   0.02   0.00    -0.01   0.01   0.00     0.00  -0.01   0.00
  27   1    -0.03   0.03   0.00    -0.01   0.02   0.01     0.00  -0.04  -0.03
  28   1    -0.02   0.03  -0.02    -0.01   0.02  -0.03    -0.00  -0.03   0.05
  29   1     0.10  -0.09  -0.03     0.05  -0.01   0.01    -0.07  -0.01  -0.03
  30   1     0.07  -0.07  -0.02     0.10  -0.05  -0.05    -0.12   0.05   0.08
  31   1    -0.02  -0.02   0.01    -0.02  -0.01   0.07     0.03   0.02  -0.02
  32   1    -0.04  -0.04   0.01    -0.00   0.10  -0.04     0.07   0.03   0.04
  33   1     0.04   0.03  -0.04     0.01   0.06   0.06    -0.01   0.18  -0.23
  34   1    -0.01  -0.02   0.05    -0.00   0.02  -0.08     0.02   0.16  -0.08
  35   1     0.04   0.02  -0.08     0.03   0.04   0.02    -0.02   0.09  -0.16
  36   1    -0.09  -0.03   0.01    -0.02   0.05  -0.09     0.01   0.06  -0.04
  37   1    -0.02   0.01   0.02     0.01  -0.01   0.03     0.07   0.01   0.04
  38   1    -0.05  -0.07   0.05    -0.02   0.01  -0.11    -0.04  -0.02   0.03
  39   1     0.10   0.04  -0.05    -0.01  -0.01   0.02     0.05   0.02   0.00
  40   1     0.01   0.05   0.02    -0.04   0.02  -0.12    -0.04  -0.03  -0.01
                     31                     32                     33
                        a                      a                      a 
 Frequencies --   703.9038               752.4984               755.3267
 Red. masses --     8.8660                 2.8208                 3.4600
 Frc consts  --     0.0000                 0.0000                 0.0000
 IR Inten    --    10.7933                38.6119                26.8541
 Raman Activ --     0.0000                 0.0000                 0.0000
 Depolar     --     0.0000                 0.0000                 0.0000
 Atom AN      X      Y      Z        X      Y      Z        X      Y      Z
   1   7     0.01   0.00   0.00     0.01   0.07   0.02    -0.01  -0.04  -0.01
   2   6     0.01  -0.01   0.02    -0.04  -0.02   0.02     0.03   0.00  -0.01
   3   6     0.01  -0.01  -0.01    -0.07  -0.11  -0.02     0.05   0.07   0.01
   4   6    -0.01  -0.01  -0.01    -0.09  -0.16   0.00     0.05   0.11  -0.01
   5   6    -0.10   0.07   0.04    -0.12  -0.03   0.06     0.03   0.04  -0.03
   6   7    -0.04  -0.01   0.03    -0.06  -0.01  -0.02    -0.02  -0.05  -0.04
   7   6    -0.13  -0.10   0.23    -0.00   0.02  -0.00    -0.04  -0.05   0.10
   8   6     0.01  -0.07   0.02     0.02  -0.02   0.03     0.03  -0.05   0.06
   9   6     0.03  -0.27   0.00    -0.00   0.03  -0.03     0.00   0.00  -0.07
  10   6    -0.01  -0.11  -0.10     0.00   0.02  -0.03    -0.01  -0.00  -0.07
  11   6     0.05  -0.07   0.08     0.00   0.00  -0.00     0.02  -0.01   0.02
  12   6    -0.19  -0.02   0.06     0.00   0.00  -0.00    -0.05   0.07  -0.04
  13   6    -0.03   0.17  -0.19     0.09   0.02   0.11     0.06   0.06   0.17
  14   6     0.24   0.12   0.08     0.05  -0.04   0.01     0.04   0.04   0.06
  15   6     0.26  -0.17  -0.17     0.03  -0.07  -0.09    -0.02  -0.01  -0.14
  16   6     0.08  -0.04   0.04    -0.08  -0.01  -0.05    -0.00  -0.02  -0.15
  17   6    -0.08  -0.07  -0.01    -0.02   0.05  -0.09    -0.07  -0.05  -0.13
  18   6    -0.10   0.38   0.09    -0.04   0.04  -0.13    -0.11   0.07  -0.16
  19  17    -0.00  -0.00   0.00     0.01   0.00  -0.00    -0.00  -0.00  -0.00
  20   1    -0.00  -0.00  -0.00     0.04   0.05   0.03    -0.03  -0.03  -0.02
  21   1     0.00   0.01   0.00     0.02  -0.03  -0.02    -0.01   0.02   0.01
  22   1    -0.00   0.00  -0.00     0.03   0.00   0.00    -0.02   0.00  -0.00
  23   1     0.00  -0.00   0.01     0.02   0.06  -0.04    -0.01  -0.04   0.03
  24   1     0.00  -0.00   0.01     0.07  -0.05   0.03    -0.04   0.03  -0.02
  25   1     0.01   0.01   0.01    -0.03   0.23   0.16     0.02  -0.15  -0.10
  26   1     0.01  -0.00  -0.01     0.21   0.01  -0.23    -0.13  -0.01   0.14
  27   1     0.01   0.00   0.01     0.03   0.27   0.27    -0.01  -0.17  -0.16
  28   1     0.01   0.00  -0.02     0.24   0.05  -0.32    -0.16  -0.03   0.20
  29   1    -0.03   0.04   0.02     0.06   0.15   0.20    -0.06  -0.06  -0.11
  30   1    -0.02   0.03  -0.01     0.05   0.08  -0.22    -0.02  -0.04   0.12
  31   1    -0.01  -0.00   0.07    -0.01  -0.00  -0.00    -0.03  -0.01   0.03
  32   1    -0.00   0.00   0.02    -0.01  -0.04   0.00     0.00  -0.06  -0.00
  33   1     0.01   0.12  -0.18     0.00  -0.06   0.05     0.00  -0.08   0.05
  34   1    -0.05   0.16  -0.20     0.00  -0.06   0.04    -0.02  -0.07   0.04
  35   1     0.02   0.17  -0.16    -0.00  -0.04   0.04     0.00  -0.04   0.04
  36   1    -0.08   0.14  -0.19     0.00  -0.00   0.01    -0.02  -0.04   0.02
  37   1     0.07  -0.05  -0.07     0.10   0.01   0.13     0.11   0.02   0.24
  38   1    -0.01   0.08  -0.03     0.09   0.03   0.23     0.19   0.06   0.37
  39   1     0.04  -0.05  -0.03     0.11   0.03   0.18     0.16   0.02   0.32
  40   1    -0.00   0.14  -0.02     0.10   0.04   0.22     0.16   0.07   0.33
                     34                     35                     36
                        a                      a                      a 
 Frequencies --   769.7861               808.1595               820.6937
 Red. masses --     8.0351                 6.5045                 5.8003
 Frc consts  --     0.0000                 0.0000                 0.0000
 IR Inten    --     4.1207                 6.4708                20.5445
 Raman Activ --     0.0000                 0.0000                 0.0000
 Depolar     --     0.0000                 0.0000                 0.0000
 Atom AN      X      Y      Z        X      Y      Z        X      Y      Z
   1   7    -0.01   0.01  -0.01    -0.04   0.06   0.02    -0.05   0.03   0.02
   2   6    -0.04   0.02  -0.03    -0.15   0.01   0.03    -0.17   0.02   0.06
   3   6    -0.04  -0.01   0.03    -0.10  -0.11   0.00    -0.06  -0.07   0.00
   4   6     0.01  -0.04   0.03     0.09  -0.02  -0.04     0.11   0.01  -0.06
   5   6     0.22  -0.13  -0.08     0.13   0.10   0.01     0.05   0.11   0.05
   6   7     0.16   0.13   0.01     0.07   0.08  -0.08    -0.04  -0.05   0.00
   7   6     0.02   0.21  -0.25    -0.06   0.01   0.22     0.05  -0.11  -0.03
   8   6    -0.03   0.02  -0.01     0.21  -0.20   0.21    -0.14   0.22  -0.26
   9   6     0.01  -0.18   0.10     0.05   0.03  -0.19    -0.02  -0.02   0.14
  10   6    -0.02  -0.15   0.08    -0.02  -0.04  -0.02     0.02   0.14  -0.04
  11   6    -0.00   0.07  -0.06    -0.04   0.01  -0.07    -0.01  -0.14   0.12
  12   6     0.01  -0.14   0.14    -0.11   0.06  -0.09     0.05  -0.05   0.03
  13   6    -0.09   0.01   0.06    -0.02   0.07   0.03     0.01  -0.08  -0.04
  14   6    -0.06   0.11   0.14    -0.10   0.03  -0.11     0.08   0.02   0.13
  15   6    -0.18   0.21  -0.00    -0.02   0.11   0.02    -0.03  -0.07   0.00
  16   6     0.18   0.03  -0.12     0.17   0.01  -0.06    -0.16  -0.02   0.06
  17   6    -0.11  -0.25   0.01    -0.04  -0.17   0.09     0.03   0.13  -0.08
  18   6    -0.09  -0.15   0.02    -0.09   0.09   0.05     0.09  -0.13  -0.04
  19  17    -0.00   0.00   0.00    -0.00   0.01  -0.00    -0.00   0.00   0.00
  20   1     0.02   0.01   0.02     0.13   0.18   0.07     0.15   0.22   0.07
  21   1    -0.00  -0.04  -0.01     0.03  -0.10  -0.06     0.04  -0.10  -0.08
  22   1     0.02   0.02   0.02     0.06  -0.09  -0.05     0.05  -0.13  -0.09
  23   1    -0.01   0.02  -0.03     0.05   0.19  -0.14     0.06   0.22  -0.16
  24   1     0.01  -0.00   0.00     0.16  -0.16   0.04     0.17  -0.19   0.03
  25   1    -0.02   0.06   0.04     0.02   0.12   0.14     0.05   0.05   0.10
  26   1     0.03   0.01  -0.04     0.09   0.02  -0.17     0.04   0.02  -0.10
  27   1    -0.02   0.05   0.02    -0.06   0.01  -0.08    -0.03  -0.07  -0.12
  28   1     0.04   0.00  -0.04     0.10  -0.08   0.08     0.04  -0.08   0.13
  29   1     0.09  -0.10  -0.03    -0.02  -0.13  -0.15    -0.07  -0.07  -0.12
  30   1     0.01  -0.03   0.02    -0.07  -0.02   0.19    -0.04  -0.03   0.18
  31   1     0.04   0.10  -0.06    -0.10   0.06   0.06     0.11  -0.07  -0.01
  32   1    -0.06   0.05   0.06     0.10  -0.07   0.01    -0.04   0.07  -0.06
  33   1    -0.00   0.25  -0.24    -0.01  -0.13   0.01     0.01   0.01   0.06
  34   1    -0.01   0.21  -0.19    -0.03  -0.08   0.05     0.03   0.01   0.02
  35   1    -0.00   0.12  -0.10    -0.01  -0.12   0.07     0.00   0.19  -0.17
  36   1     0.01   0.04  -0.03    -0.06  -0.13   0.05     0.03   0.17  -0.13
  37   1    -0.07   0.02   0.12    -0.05  -0.00   0.00     0.01  -0.00   0.00
  38   1     0.10   0.02   0.09     0.01   0.02  -0.08    -0.01  -0.04   0.07
  39   1    -0.05  -0.02   0.15    -0.07  -0.05  -0.06     0.06   0.04   0.07
  40   1     0.05  -0.01   0.09    -0.02   0.04  -0.06     0.00  -0.07   0.06
                     37                     38                     39
                        a                      a                      a 
 Frequencies --   838.2600               840.2823               861.7108
 Red. masses --     3.8563                 4.9664                 4.8287
 Frc consts  --     0.0000                 0.0000                 0.0000
 IR Inten    --     3.7383                16.8854                 6.3343
 Raman Activ --     0.0000                 0.0000                 0.0000
 Depolar     --     0.0000                 0.0000                 0.0000
 Atom AN      X      Y      Z        X      Y      Z        X      Y      Z
   1   7     0.03   0.02  -0.01    -0.07  -0.06   0.02     0.11   0.17   0.00
   2   6     0.04  -0.02  -0.02    -0.11   0.05   0.06     0.07  -0.14  -0.05
   3   6    -0.01  -0.02  -0.00     0.04   0.07   0.01    -0.15  -0.20  -0.05
   4   6    -0.03  -0.01   0.02     0.07   0.02  -0.05    -0.02   0.06   0.01
   5   6     0.04   0.02  -0.03    -0.09  -0.05   0.05     0.07   0.17  -0.02
   6   7     0.05   0.08  -0.03    -0.10  -0.14   0.04    -0.06  -0.12   0.00
   7   6     0.00   0.02   0.09     0.00  -0.05  -0.19     0.01  -0.20  -0.04
   8   6     0.05   0.01  -0.03    -0.11  -0.04   0.07    -0.10   0.05  -0.05
   9   6     0.03   0.02  -0.05    -0.07  -0.03   0.09    -0.06  -0.04   0.12
  10   6     0.00   0.08  -0.03    -0.00  -0.16   0.07     0.00  -0.08   0.03
  11   6    -0.06  -0.12   0.04     0.11   0.24  -0.07     0.09   0.14  -0.03
  12   6    -0.04  -0.05  -0.00     0.09   0.09   0.01     0.05   0.12  -0.04
  13   6     0.03  -0.01   0.02    -0.02   0.03   0.02    -0.02  -0.01  -0.01
  14   6    -0.02   0.01   0.01     0.03  -0.03  -0.02     0.04   0.03   0.04
  15   6     0.00   0.05   0.13     0.11  -0.06   0.00     0.04  -0.05  -0.00
  16   6     0.12   0.02   0.22     0.06   0.02   0.11    -0.03  -0.01   0.03
  17   6    -0.03  -0.04  -0.02     0.02   0.05  -0.03     0.02   0.06  -0.05
  18   6    -0.14  -0.08  -0.28    -0.07   0.09  -0.14     0.02   0.02  -0.02
  19  17     0.00  -0.00   0.00    -0.00   0.01   0.00     0.00  -0.00  -0.00
  20   1    -0.05  -0.08  -0.01     0.12   0.18   0.03    -0.11  -0.17  -0.00
  21   1    -0.02   0.02   0.03     0.05  -0.04  -0.07    -0.06   0.02   0.09
  22   1    -0.01   0.07   0.05     0.01  -0.17  -0.13     0.03   0.24   0.18
  23   1    -0.02  -0.07   0.04     0.05   0.17  -0.10    -0.04  -0.15   0.07
  24   1    -0.04   0.07   0.01     0.09  -0.16  -0.03    -0.02   0.13   0.10
  25   1    -0.02   0.03   0.01     0.05  -0.09  -0.04    -0.03   0.18   0.15
  26   1     0.01  -0.00  -0.02    -0.06  -0.00   0.09     0.09   0.03  -0.26
  27   1    -0.02   0.02   0.01     0.09  -0.08  -0.01    -0.17   0.07  -0.11
  28   1     0.01  -0.00  -0.01    -0.06   0.01   0.02     0.10  -0.07   0.12
  29   1     0.03  -0.05  -0.03    -0.04   0.10   0.07    -0.10  -0.07  -0.18
  30   1    -0.04   0.01   0.02     0.08  -0.01  -0.08    -0.02  -0.05   0.21
  31   1     0.02   0.04   0.03    -0.04  -0.07  -0.06    -0.00  -0.12  -0.02
  32   1     0.03  -0.01  -0.03    -0.07   0.01   0.06    -0.01   0.04  -0.01
  33   1    -0.00  -0.11   0.06     0.00   0.22  -0.13     0.00   0.19  -0.10
  34   1     0.01  -0.03   0.04    -0.02   0.08  -0.09    -0.00   0.04  -0.04
  35   1    -0.00   0.09  -0.12     0.01  -0.17   0.23     0.01  -0.12   0.16
  36   1    -0.02   0.09  -0.11     0.04  -0.17   0.21     0.02  -0.15   0.16
  37   1    -0.16  -0.03  -0.27    -0.01  -0.01  -0.13     0.00  -0.01  -0.04
  38   1    -0.16  -0.05  -0.36    -0.08  -0.00  -0.18    -0.02  -0.01  -0.02
  39   1    -0.02  -0.01   0.01     0.03   0.00  -0.03     0.05   0.02   0.04
  40   1     0.25   0.04   0.56     0.13   0.07   0.25     0.01   0.00   0.03
                     40                     41                     42
                        a                      a                      a 
 Frequencies --   883.4379               887.9639               898.4443
 Red. masses --     8.4181                 4.3884                 6.9480
 Frc consts  --     0.0000                 0.0000                 0.0000
 IR Inten    --     0.8038                 0.5918                31.3072
 Raman Activ --     0.0000                 0.0000                 0.0000
 Depolar     --     0.0000                 0.0000                 0.0000
 Atom AN      X      Y      Z        X      Y      Z        X      Y      Z
   1   7    -0.03  -0.06  -0.05     0.00   0.00   0.01    -0.13  -0.20  -0.35
   2   6    -0.02   0.07  -0.01     0.00  -0.01   0.01    -0.08   0.33  -0.05
   3   6     0.04   0.04   0.06     0.00   0.00  -0.01     0.11   0.02   0.37
   4   6     0.02  -0.03   0.01    -0.00   0.00  -0.00     0.12  -0.08  -0.06
   5   6     0.04  -0.07  -0.02    -0.02   0.02   0.01    -0.02   0.04   0.02
   6   7    -0.04   0.00  -0.02     0.02   0.01   0.00    -0.07  -0.00   0.00
   7   6    -0.09   0.22   0.32     0.02  -0.06  -0.08    -0.00  -0.01  -0.04
   8   6     0.35   0.24  -0.10    -0.10  -0.10   0.04    -0.05  -0.03   0.01
   9   6     0.01  -0.18   0.02     0.00   0.09  -0.04     0.02   0.04  -0.04
  10   6    -0.03  -0.08  -0.08     0.01  -0.01   0.07    -0.00  -0.01   0.06
  11   6    -0.04   0.03  -0.13     0.01  -0.00   0.02    -0.01  -0.00   0.01
  12   6    -0.16   0.05  -0.08     0.05  -0.01   0.01     0.06  -0.00  -0.00
  13   6    -0.02  -0.08  -0.01    -0.01   0.02  -0.05    -0.02   0.01   0.01
  14   6     0.06   0.12   0.03    -0.04  -0.05  -0.05     0.01  -0.02  -0.01
  15   6     0.00  -0.06   0.12     0.17   0.07   0.33     0.04  -0.03  -0.02
  16   6    -0.22  -0.05   0.09     0.01  -0.00  -0.17     0.00   0.00  -0.01
  17   6    -0.01   0.12  -0.14    -0.11  -0.07  -0.19     0.02   0.02   0.01
  18   6     0.13  -0.21   0.01     0.01   0.08   0.11    -0.00   0.03  -0.01
  19  17     0.00   0.00  -0.00    -0.00   0.00   0.00    -0.00  -0.01  -0.00
  20   1     0.01  -0.01   0.01     0.01   0.01  -0.00    -0.04  -0.21   0.07
  21   1    -0.01  -0.06  -0.02     0.01   0.01  -0.00    -0.13  -0.42  -0.07
  22   1     0.01   0.00   0.01    -0.00  -0.01  -0.01     0.09   0.23   0.23
  23   1    -0.01   0.02  -0.02     0.01   0.00   0.00    -0.07   0.05  -0.11
  24   1    -0.00   0.01  -0.01     0.00  -0.01  -0.00     0.06   0.13   0.10
  25   1     0.00  -0.02  -0.01     0.00  -0.00  -0.01     0.07   0.00   0.13
  26   1     0.01  -0.01   0.06    -0.00   0.00  -0.00     0.13  -0.04   0.14
  27   1     0.02   0.01   0.03     0.00  -0.00   0.00     0.01  -0.01  -0.02
  28   1    -0.00   0.01  -0.03    -0.00   0.00  -0.00     0.03  -0.03  -0.01
  29   1     0.03  -0.01   0.02    -0.00   0.01   0.01    -0.04   0.02  -0.02
  30   1     0.01   0.00  -0.04    -0.00   0.01  -0.00    -0.01   0.01   0.01
  31   1    -0.03   0.04   0.08    -0.00  -0.01  -0.02    -0.01  -0.01  -0.01
  32   1     0.20   0.14  -0.06    -0.04  -0.03   0.01    -0.04  -0.02   0.01
  33   1    -0.04   0.13  -0.25     0.01  -0.08   0.10     0.00  -0.08   0.07
  34   1    -0.01  -0.04  -0.00     0.01   0.08  -0.05    -0.00   0.08  -0.05
  35   1    -0.01  -0.15   0.08     0.00   0.02  -0.01    -0.01   0.02  -0.01
  36   1    -0.09  -0.17   0.03     0.03   0.04  -0.00     0.02   0.01   0.01
  37   1    -0.10  -0.04  -0.16    -0.27  -0.06  -0.60     0.02  -0.00  -0.01
  38   1    -0.04  -0.05   0.07     0.14   0.05   0.24     0.00   0.01   0.01
  39   1     0.09   0.05   0.17     0.14   0.02   0.32    -0.01  -0.00  -0.04
  40   1    -0.03  -0.10  -0.02    -0.04   0.02  -0.11     0.01   0.02  -0.00
                     43                     44                     45
                        a                      a                      a 
 Frequencies --   904.8297               905.9821               915.0691
 Red. masses --     3.5945                 5.0498                 9.1385
 Frc consts  --     0.0000                 0.0000                 0.0000
 IR Inten    --     0.4410                 1.9969                 0.8122
 Raman Activ --     0.0000                 0.0000                 0.0000
 Depolar     --     0.0000                 0.0000                 0.0000
 Atom AN      X      Y      Z        X      Y      Z        X      Y      Z
   1   7     0.01   0.02   0.02    -0.02  -0.04  -0.03    -0.01  -0.03  -0.04
   2   6     0.00  -0.03  -0.00     0.00   0.05  -0.00    -0.00   0.04   0.00
   3   6    -0.02  -0.01  -0.02     0.02   0.02   0.03     0.02   0.00   0.03
   4   6     0.00   0.01   0.00    -0.00  -0.02   0.00     0.00  -0.01  -0.02
   5   6     0.01  -0.01  -0.01    -0.01   0.02   0.00    -0.05   0.06   0.03
   6   7    -0.01  -0.02   0.02     0.02   0.04  -0.03     0.04   0.03  -0.00
   7   6    -0.01   0.03  -0.03    -0.00  -0.05   0.11     0.08  -0.11  -0.31
   8   6     0.12   0.05   0.00    -0.21  -0.06  -0.04     0.27  -0.07   0.16
   9   6    -0.07   0.04  -0.00     0.13  -0.21   0.11    -0.29   0.11   0.18
  10   6    -0.01  -0.12  -0.03     0.01   0.33  -0.04     0.01  -0.07  -0.36
  11   6     0.07   0.02   0.02    -0.13  -0.03  -0.07     0.29   0.06   0.16
  12   6    -0.08   0.02   0.02     0.15  -0.04  -0.06    -0.30   0.03   0.16
  13   6    -0.06  -0.03  -0.07     0.02   0.02  -0.05     0.00   0.01   0.02
  14   6     0.05   0.05   0.06    -0.02  -0.06   0.03    -0.03  -0.01  -0.06
  15   6     0.02  -0.02   0.06     0.02   0.05   0.04    -0.03   0.03   0.04
  16   6    -0.15  -0.04  -0.17     0.06   0.01  -0.12    -0.00  -0.01   0.02
  17   6     0.14   0.07   0.25     0.01  -0.06   0.09    -0.02  -0.03  -0.02
  18   6    -0.00  -0.06  -0.08    -0.06   0.08  -0.00     0.01  -0.00   0.02
  19  17    -0.00   0.00  -0.00    -0.00  -0.00  -0.00    -0.00  -0.00  -0.00
  20   1    -0.00   0.00  -0.00    -0.00  -0.01   0.00    -0.01  -0.02   0.00
  21   1     0.00   0.02   0.01    -0.01  -0.03  -0.01    -0.01  -0.04  -0.01
  22   1    -0.00   0.00  -0.00     0.00  -0.00   0.00     0.00   0.02   0.02
  23   1     0.00  -0.01   0.00    -0.00   0.01  -0.00    -0.01   0.01  -0.01
  24   1     0.00  -0.00   0.00    -0.00   0.01  -0.00     0.01   0.01   0.01
  25   1    -0.00   0.00   0.00    -0.00  -0.01  -0.00     0.01  -0.00   0.01
  26   1    -0.01   0.01  -0.02     0.02  -0.01   0.03     0.02  -0.01   0.02
  27   1    -0.00  -0.01  -0.01     0.01   0.01   0.02     0.00  -0.00  -0.00
  28   1    -0.00  -0.00   0.02     0.01   0.00  -0.02     0.01  -0.00  -0.00
  29   1    -0.00  -0.00  -0.01     0.01  -0.01   0.01    -0.01   0.01   0.01
  30   1     0.01  -0.01   0.01    -0.03   0.02  -0.01    -0.02   0.01   0.01
  31   1     0.01  -0.00  -0.01    -0.01   0.01   0.03     0.07  -0.03  -0.08
  32   1     0.04   0.02  -0.00    -0.08  -0.04  -0.00     0.09  -0.04   0.02
  33   1    -0.02  -0.06   0.06     0.03   0.33  -0.31    -0.05   0.18  -0.02
  34   1     0.00   0.09  -0.12    -0.00  -0.39   0.41     0.02  -0.34   0.18
  35   1     0.02   0.01   0.00    -0.04  -0.04   0.01     0.09   0.10  -0.07
  36   1    -0.04  -0.02  -0.01     0.06   0.01   0.02    -0.10   0.07  -0.07
  37   1    -0.10  -0.03  -0.20    -0.04   0.00  -0.12    -0.04  -0.00  -0.03
  38   1     0.19   0.03   0.44     0.09   0.04   0.14    -0.02  -0.02  -0.03
  39   1    -0.25  -0.05  -0.56    -0.08  -0.03  -0.15     0.02  -0.00   0.05
  40   1     0.11   0.00   0.24     0.03   0.04   0.06    -0.02  -0.01  -0.04
                     46                     47                     48
                        a                      a                      a 
 Frequencies --   937.5146               947.0224               970.7451
 Red. masses --     3.2111                 7.4605                 6.4881
 Frc consts  --     0.0000                 0.0000                 0.0000
 IR Inten    --     0.2247                 1.5348                 8.9482
 Raman Activ --     0.0000                 0.0000                 0.0000
 Depolar     --     0.0000                 0.0000                 0.0000
 Atom AN      X      Y      Z        X      Y      Z        X      Y      Z
   1   7    -0.02  -0.05  -0.00    -0.08  -0.23  -0.01     0.09   0.21  -0.02
   2   6     0.02   0.04   0.01     0.11   0.22   0.03    -0.16  -0.22   0.01
   3   6     0.03   0.02   0.00     0.08   0.05   0.02    -0.03   0.05  -0.01
   4   6    -0.03  -0.02   0.02    -0.11  -0.10   0.02     0.08   0.03  -0.09
   5   6    -0.04   0.03  -0.01    -0.02   0.22   0.01    -0.18  -0.02   0.10
   6   7     0.05   0.05  -0.04     0.15   0.12  -0.13     0.17   0.11  -0.11
   7   6     0.03  -0.08   0.02     0.12  -0.35   0.14     0.16  -0.11   0.16
   8   6    -0.04  -0.00  -0.04    -0.11   0.02  -0.17    -0.07  -0.02  -0.17
   9   6    -0.01   0.02   0.03    -0.07   0.05   0.12    -0.05   0.04   0.12
  10   6     0.01  -0.04   0.04     0.05  -0.05   0.04     0.06  -0.03   0.02
  11   6     0.00  -0.19   0.17     0.02   0.07  -0.08    -0.03  -0.01  -0.07
  12   6    -0.02   0.23  -0.20    -0.13   0.05  -0.02    -0.17   0.06  -0.04
  13   6     0.03  -0.00  -0.02     0.10  -0.01  -0.06     0.14  -0.00  -0.07
  14   6    -0.00  -0.01   0.02     0.01   0.01   0.08    -0.00  -0.06   0.06
  15   6    -0.02   0.02   0.00    -0.10   0.08   0.01    -0.12   0.11   0.03
  16   6     0.02   0.00  -0.01     0.03  -0.00  -0.02     0.05   0.00  -0.03
  17   6    -0.02  -0.03   0.01    -0.04  -0.09   0.04    -0.05  -0.12   0.04
  18   6    -0.01  -0.01   0.00    -0.02  -0.03   0.01    -0.03   0.01   0.02
  19  17     0.00   0.00  -0.00     0.00   0.00   0.00    -0.00  -0.00  -0.00
  20   1     0.01   0.02  -0.01     0.00   0.02  -0.05    -0.03  -0.06   0.03
  21   1     0.01   0.01  -0.01     0.04   0.06  -0.03    -0.05  -0.06   0.04
  22   1    -0.01  -0.04  -0.03    -0.07  -0.17  -0.13     0.06   0.20   0.15
  23   1     0.01   0.00   0.02     0.02   0.02   0.09    -0.05  -0.00  -0.16
  24   1    -0.03   0.00  -0.03    -0.10   0.04  -0.12     0.15  -0.06   0.15
  25   1    -0.02  -0.00  -0.03    -0.12   0.04  -0.09     0.20  -0.13   0.07
  26   1     0.02  -0.02   0.04     0.15  -0.09   0.14    -0.20   0.09  -0.06
  27   1     0.01   0.04   0.05    -0.07   0.12   0.07     0.21  -0.16   0.03
  28   1     0.03   0.00  -0.03     0.11  -0.01  -0.09    -0.13   0.05  -0.03
  29   1     0.02  -0.00   0.02     0.04  -0.09  -0.05     0.07   0.05   0.16
  30   1    -0.03   0.03  -0.03    -0.16   0.08   0.08    -0.05   0.08  -0.14
  31   1     0.01  -0.02   0.00     0.11  -0.09   0.03     0.14  -0.01   0.04
  32   1     0.02  -0.00  -0.03     0.07   0.01  -0.11     0.07  -0.04  -0.12
  33   1     0.00   0.05  -0.01     0.02   0.04   0.08     0.02   0.06   0.06
  34   1     0.01   0.03  -0.02     0.07   0.12  -0.11     0.10   0.06  -0.05
  35   1     0.02   0.40  -0.38     0.03  -0.24   0.14     0.03  -0.14   0.01
  36   1    -0.02  -0.51   0.46    -0.03   0.05  -0.04    -0.05  -0.03   0.01
  37   1    -0.01   0.01   0.01    -0.03   0.01   0.05    -0.03   0.03   0.04
  38   1     0.01   0.00   0.00     0.01  -0.01   0.01     0.01  -0.01  -0.00
  39   1    -0.01  -0.00   0.01    -0.03  -0.02   0.01    -0.03  -0.03   0.01
  40   1    -0.00  -0.01   0.01    -0.03  -0.03   0.03    -0.03  -0.02   0.01
                     49                     50                     51
                        a                      a                      a 
 Frequencies --   988.8187              1012.1696              1027.0325
 Red. masses --     5.5082                 8.7086                 7.7465
 Frc consts  --     0.0000                 0.0000                 0.0000
 IR Inten    --    17.4839                 0.9758                10.2427
 Raman Activ --     0.0000                 0.0000                 0.0000
 Depolar     --     0.0000                 0.0000                 0.0000
 Atom AN      X      Y      Z        X      Y      Z        X      Y      Z
   1   7     0.21  -0.15   0.08     0.00  -0.00   0.01    -0.02  -0.09  -0.00
   2   6    -0.20   0.18   0.06    -0.01   0.00  -0.00     0.07   0.11   0.04
   3   6    -0.20   0.15   0.03    -0.00   0.00   0.00    -0.05  -0.07  -0.03
   4   6     0.16  -0.18  -0.26     0.01  -0.01   0.00     0.02   0.07  -0.01
   5   6     0.09   0.02   0.21     0.01  -0.01  -0.00    -0.00  -0.09   0.01
   6   7    -0.01  -0.04  -0.02    -0.02  -0.02   0.02    -0.13  -0.15   0.09
   7   6    -0.02   0.03  -0.02    -0.15   0.08   0.02     0.28   0.42   0.09
   8   6     0.01   0.01   0.02     0.10  -0.16  -0.23     0.01  -0.18  -0.18
   9   6     0.01  -0.01  -0.02    -0.27   0.06   0.13    -0.04   0.06   0.15
  10   6    -0.01  -0.00  -0.00    -0.20   0.28   0.33     0.13  -0.02  -0.00
  11   6    -0.00  -0.00   0.01     0.46  -0.02  -0.02    -0.16  -0.06  -0.08
  12   6     0.02  -0.00  -0.00     0.13  -0.12  -0.11    -0.21   0.05  -0.01
  13   6    -0.02  -0.00   0.00     0.01  -0.01  -0.01    -0.07   0.00   0.03
  14   6     0.00   0.01  -0.00     0.01  -0.06   0.02    -0.01  -0.17  -0.00
  15   6     0.01  -0.01   0.00    -0.03   0.03   0.00     0.00   0.02   0.00
  16   6    -0.00  -0.00   0.00     0.03  -0.01  -0.01     0.04   0.01  -0.02
  17   6     0.01   0.01  -0.01     0.00  -0.01  -0.00     0.04  -0.00  -0.02
  18   6     0.00  -0.00  -0.00    -0.03   0.08   0.00    -0.05   0.13   0.01
  19  17     0.01   0.00  -0.00     0.00   0.00   0.00     0.00   0.00  -0.00
  20   1    -0.22  -0.25  -0.22    -0.00   0.00  -0.00    -0.01  -0.01  -0.02
  21   1     0.02   0.42   0.16     0.00   0.01   0.00     0.01   0.02  -0.01
  22   1    -0.17  -0.02  -0.08    -0.00  -0.00  -0.00    -0.02  -0.05  -0.04
  23   1    -0.18   0.01  -0.33    -0.00   0.00  -0.00     0.02   0.01   0.05
  24   1     0.09  -0.03   0.07    -0.00  -0.00  -0.01    -0.02   0.04  -0.01
  25   1    -0.02   0.02   0.02    -0.00   0.00  -0.00    -0.06   0.07   0.01
  26   1     0.06  -0.03   0.07     0.00  -0.00   0.00     0.06  -0.02  -0.05
  27   1     0.06  -0.04  -0.04    -0.00   0.00   0.00    -0.10   0.02  -0.10
  28   1     0.11  -0.07  -0.06     0.00  -0.00  -0.00     0.03  -0.03   0.08
  29   1    -0.00  -0.01   0.02    -0.00   0.00  -0.00    -0.13   0.10  -0.04
  30   1     0.02  -0.01   0.08     0.01  -0.00  -0.01     0.18  -0.11   0.03
  31   1    -0.02   0.01  -0.01    -0.05   0.01   0.00     0.29   0.06   0.03
  32   1    -0.01   0.01   0.02     0.05  -0.13  -0.13    -0.05  -0.24  -0.11
  33   1    -0.00  -0.01  -0.01    -0.22  -0.11  -0.14     0.05   0.11   0.09
  34   1    -0.01  -0.01   0.00    -0.10   0.11   0.07     0.22   0.02  -0.03
  35   1    -0.01   0.03  -0.01     0.21  -0.08  -0.09     0.01  -0.09  -0.08
  36   1     0.01  -0.01   0.01    -0.09  -0.19  -0.22    -0.07  -0.02   0.01
  37   1    -0.00  -0.00  -0.00    -0.01   0.01   0.02     0.05   0.04  -0.03
  38   1     0.00  -0.00   0.00     0.01  -0.02  -0.00     0.01  -0.02  -0.01
  39   1     0.01   0.00   0.00     0.03  -0.01  -0.01     0.06  -0.02  -0.02
  40   1     0.00   0.00  -0.00     0.00   0.03  -0.00     0.04   0.08  -0.02
                     52                     53                     54
                        a                      a                      a 
 Frequencies --  1047.1300              1063.0472              1078.2085
 Red. masses --     9.6243                 9.3079                 6.3741
 Frc consts  --     0.0000                 0.0000                 0.0000
 IR Inten    --    14.4410                 8.7882                 2.0787
 Raman Activ --     0.0000                 0.0000                 0.0000
 Depolar     --     0.0000                 0.0000                 0.0000
 Atom AN      X      Y      Z        X      Y      Z        X      Y      Z
   1   7    -0.04  -0.23  -0.11    -0.00   0.14   0.07    -0.02   0.04  -0.00
   2   6     0.17   0.24   0.36    -0.08  -0.15  -0.27     0.02  -0.07  -0.03
   3   6    -0.08  -0.11  -0.32     0.05   0.04   0.26     0.04   0.02   0.03
   4   6    -0.14   0.19  -0.10     0.10  -0.08   0.02    -0.10   0.01  -0.16
   5   6    -0.13  -0.01   0.17    -0.21   0.11   0.00     0.06  -0.00   0.17
   6   7     0.14  -0.18  -0.02     0.06  -0.28   0.00     0.00  -0.03  -0.01
   7   6    -0.10   0.05  -0.01    -0.11   0.14  -0.01     0.05   0.05  -0.00
   8   6     0.06   0.16   0.02     0.11   0.17  -0.04    -0.01  -0.01   0.01
   9   6     0.03  -0.03  -0.05     0.02  -0.00  -0.02    -0.00  -0.00  -0.00
  10   6    -0.03  -0.02  -0.02     0.00  -0.04  -0.05     0.01  -0.00  -0.00
  11   6     0.02   0.01   0.02    -0.03   0.02   0.03    -0.00  -0.01  -0.01
  12   6     0.06  -0.03   0.01     0.05  -0.01   0.03    -0.03   0.01  -0.00
  13   6     0.24  -0.05  -0.11     0.29  -0.10  -0.13     0.02  -0.04  -0.01
  14   6     0.01  -0.07   0.02     0.03  -0.19   0.03    -0.05   0.03   0.02
  15   6    -0.14   0.14   0.05    -0.19   0.22   0.06     0.01  -0.25   0.03
  16   6     0.04  -0.03  -0.02     0.07  -0.04  -0.03     0.35  -0.05  -0.16
  17   6    -0.02  -0.10   0.02    -0.00  -0.13   0.02     0.03   0.37  -0.05
  18   6    -0.05   0.07   0.02    -0.10   0.18   0.03    -0.19   0.07   0.08
  19  17     0.00   0.00  -0.00     0.00  -0.00   0.00     0.00  -0.00   0.00
  20   1    -0.03  -0.10  -0.02     0.03   0.08   0.02     0.02   0.03   0.02
  21   1    -0.02  -0.07  -0.01     0.02   0.04  -0.00    -0.00  -0.03  -0.01
  22   1    -0.01  -0.02   0.01     0.01  -0.01  -0.02     0.02   0.01   0.01
  23   1     0.08   0.09   0.12    -0.05  -0.08  -0.05     0.01  -0.02   0.02
  24   1     0.14   0.06   0.17    -0.13  -0.02  -0.14    -0.02  -0.01  -0.03
  25   1     0.06   0.01   0.00    -0.08   0.04   0.01     0.01  -0.02  -0.01
  26   1    -0.03   0.02  -0.18     0.09  -0.05   0.13     0.02  -0.02   0.04
  27   1    -0.02  -0.03  -0.07    -0.05   0.04  -0.03    -0.06   0.04  -0.05
  28   1    -0.08   0.03   0.04     0.09  -0.05   0.03    -0.02   0.01  -0.06
  29   1    -0.03   0.07   0.09    -0.19   0.13  -0.06     0.03  -0.00   0.06
  30   1     0.09  -0.04   0.01     0.04  -0.02   0.01     0.01  -0.00   0.05
  31   1    -0.11  -0.04  -0.01    -0.08  -0.09  -0.02     0.04   0.00  -0.00
  32   1     0.02   0.13   0.05     0.02   0.11   0.04    -0.00  -0.00   0.00
  33   1    -0.01  -0.04  -0.03     0.00  -0.01  -0.01    -0.02  -0.01  -0.02
  34   1    -0.06  -0.00  -0.00     0.00  -0.01  -0.02     0.01  -0.00   0.00
  35   1    -0.02   0.05   0.02    -0.05   0.07   0.04     0.01  -0.02  -0.02
  36   1     0.01  -0.00  -0.01     0.02   0.02  -0.00    -0.01  -0.01   0.01
  37   1    -0.05   0.03   0.02    -0.03   0.08   0.01    -0.30  -0.32   0.17
  38   1     0.02  -0.08   0.00     0.03  -0.14  -0.00     0.12  -0.12  -0.04
  39   1     0.03  -0.04  -0.01     0.10  -0.08  -0.04    -0.11   0.17   0.03
  40   1    -0.07  -0.03   0.04    -0.09  -0.00   0.04    -0.34  -0.21   0.18
                     55                     56                     57
                        a                      a                      a 
 Frequencies --  1084.0897              1105.9090              1121.7322
 Red. masses --     8.9591                 7.1981                 7.9598
 Frc consts  --     0.0000                 0.0000                 0.0000
 IR Inten    --    16.6960                 3.1152                 4.4231
 Raman Activ --     0.0000                 0.0000                 0.0000
 Depolar     --     0.0000                 0.0000                 0.0000
 Atom AN      X      Y      Z        X      Y      Z        X      Y      Z
   1   7    -0.04   0.11  -0.01    -0.01   0.01   0.02     0.15  -0.01   0.02
   2   6     0.05  -0.17  -0.08     0.02   0.01  -0.06    -0.31   0.06  -0.11
   3   6     0.10   0.05   0.06    -0.03  -0.03   0.07     0.41  -0.28  -0.07
   4   6    -0.31   0.06  -0.47     0.07   0.03  -0.03    -0.32   0.28   0.21
   5   6     0.21  -0.02   0.49    -0.15  -0.01   0.04    -0.02  -0.03  -0.09
   6   7    -0.02  -0.02  -0.02     0.12  -0.07  -0.04    -0.02   0.03   0.04
   7   6    -0.00   0.02  -0.00     0.41   0.03   0.03     0.02  -0.01   0.01
   8   6    -0.00  -0.00   0.01    -0.22   0.18   0.30    -0.00   0.02   0.02
   9   6    -0.00  -0.00  -0.00     0.02  -0.10  -0.17     0.00  -0.00  -0.01
  10   6    -0.00   0.00   0.01    -0.14   0.05   0.05    -0.01  -0.00  -0.00
  11   6     0.00  -0.00   0.00     0.13  -0.05  -0.07     0.00  -0.00  -0.00
  12   6     0.00  -0.00  -0.01    -0.16  -0.03  -0.08    -0.01   0.00  -0.01
  13   6    -0.03   0.02   0.01     0.05   0.06  -0.03     0.02  -0.01  -0.00
  14   6     0.01  -0.00  -0.01    -0.01   0.09  -0.02    -0.00  -0.02   0.00
  15   6     0.01   0.08  -0.01     0.01  -0.02   0.00    -0.00   0.01   0.00
  16   6    -0.12   0.02   0.06    -0.05   0.04   0.02     0.01  -0.00  -0.00
  17   6    -0.00  -0.12   0.02    -0.03  -0.04   0.02     0.00  -0.00   0.00
  18   6     0.07  -0.03  -0.03     0.07  -0.11  -0.02    -0.01   0.01   0.00
  19  17    -0.00  -0.00   0.00     0.00   0.00   0.00     0.00   0.00  -0.00
  20   1     0.06   0.08   0.06     0.01   0.02   0.00    -0.08  -0.10  -0.09
  21   1    -0.00  -0.08  -0.03     0.01   0.01  -0.00    -0.00   0.13   0.08
  22   1     0.05   0.03   0.03    -0.00  -0.03  -0.02    -0.06   0.05  -0.00
  23   1     0.03  -0.06   0.05    -0.01  -0.03   0.01    -0.04   0.13  -0.18
  24   1    -0.06  -0.02  -0.06    -0.04   0.02  -0.04     0.05  -0.12  -0.04
  25   1     0.03  -0.06  -0.03    -0.04   0.04   0.03     0.24  -0.14   0.05
  26   1     0.08  -0.05   0.11     0.04  -0.01  -0.00     0.29  -0.16   0.05
  27   1    -0.16   0.10  -0.14    -0.04  -0.00  -0.06    -0.13   0.08   0.02
  28   1    -0.09   0.04  -0.17     0.03  -0.03   0.06    -0.10   0.07   0.08
  29   1     0.09  -0.07   0.12    -0.12   0.11   0.01     0.05  -0.02   0.02
  30   1     0.04  -0.02   0.16     0.10  -0.04  -0.03     0.07  -0.05   0.01
  31   1    -0.00  -0.01  -0.00     0.20   0.01   0.01     0.03  -0.02   0.00
  32   1    -0.01  -0.02  -0.00    -0.11   0.13   0.16    -0.00   0.02   0.01
  33   1     0.00   0.00   0.00    -0.03  -0.07  -0.07    -0.00  -0.01  -0.00
  34   1    -0.01   0.00   0.00    -0.35   0.00   0.04    -0.02  -0.00   0.00
  35   1     0.00   0.00  -0.01     0.19  -0.21  -0.20     0.01  -0.01  -0.01
  36   1     0.00  -0.02   0.01    -0.07  -0.06  -0.06    -0.01  -0.01  -0.01
  37   1     0.11   0.11  -0.07    -0.02  -0.02   0.01     0.01   0.01  -0.00
  38   1    -0.04   0.04   0.01    -0.02   0.09   0.00     0.00  -0.01   0.00
  39   1     0.05  -0.06  -0.02    -0.09   0.02   0.03     0.01  -0.01  -0.00
  40   1     0.11   0.07  -0.05     0.04  -0.01  -0.02    -0.01  -0.01   0.01
                     58                     59                     60
                        a                      a                      a 
 Frequencies --  1134.9112              1156.2783              1172.2136
 Red. masses --     6.1171                 7.0648                 2.7805
 Frc consts  --     0.0000                 0.0000                 0.0000
 IR Inten    --     5.4478                12.8552                 0.9426
 Raman Activ --     0.0000                 0.0000                 0.0000
 Depolar     --     0.0000                 0.0000                 0.0000
 Atom AN      X      Y      Z        X      Y      Z        X      Y      Z
   1   7    -0.01  -0.02   0.06     0.04   0.07  -0.12    -0.03  -0.05   0.07
   2   6     0.02   0.06  -0.14    -0.09  -0.17   0.24     0.05   0.10  -0.15
   3   6    -0.02  -0.14   0.13     0.09   0.23  -0.20    -0.03  -0.13   0.10
   4   6     0.08   0.14  -0.07    -0.15  -0.14   0.09     0.02   0.05  -0.04
   5   6    -0.23  -0.09   0.11    -0.06   0.23  -0.05     0.03   0.03   0.03
   6   7     0.26  -0.00  -0.06     0.17  -0.32  -0.01    -0.04  -0.02  -0.02
   7   6    -0.13  -0.05  -0.02     0.01   0.16   0.00    -0.05   0.00   0.05
   8   6    -0.04  -0.20  -0.10     0.01  -0.04  -0.01     0.09   0.10  -0.00
   9   6    -0.01   0.03   0.06    -0.00  -0.00   0.02     0.01   0.02  -0.00
  10   6     0.05   0.01   0.01     0.02   0.00   0.00     0.01  -0.01  -0.01
  11   6    -0.03   0.02   0.02    -0.02   0.00   0.00     0.00   0.01   0.01
  12   6     0.05  -0.00   0.04     0.01  -0.01   0.01     0.02   0.02  -0.01
  13   6     0.07   0.10  -0.04     0.03   0.02  -0.02     0.05   0.00  -0.03
  14   6    -0.02   0.19   0.02    -0.01   0.07  -0.03    -0.02  -0.17  -0.00
  15   6     0.01  -0.10  -0.00    -0.02  -0.06   0.02    -0.05  -0.08   0.04
  16   6    -0.06   0.06   0.02    -0.05   0.06   0.02     0.03   0.06  -0.02
  17   6    -0.08  -0.03   0.04    -0.04  -0.00   0.02    -0.05   0.01   0.02
  18   6     0.16  -0.15  -0.06     0.10  -0.05  -0.04     0.04   0.04  -0.02
  19  17     0.00   0.00   0.00    -0.00  -0.00  -0.00     0.00   0.00   0.00
  20   1     0.00   0.03  -0.01    -0.01  -0.07   0.03     0.01   0.05  -0.02
  21   1     0.02   0.05  -0.00    -0.05  -0.08   0.02     0.03   0.05  -0.01
  22   1    -0.02  -0.06  -0.05     0.05   0.13   0.09    -0.03  -0.08  -0.05
  23   1    -0.02  -0.04   0.01     0.03   0.07  -0.03    -0.02  -0.04   0.01
  24   1    -0.06   0.06  -0.06     0.08  -0.16   0.05    -0.03   0.10  -0.01
  25   1    -0.02   0.06   0.09    -0.06  -0.06  -0.20     0.09  -0.00   0.12
  26   1     0.10  -0.03  -0.05     0.02  -0.06   0.18    -0.04   0.05  -0.11
  27   1    -0.06  -0.02  -0.13    -0.02   0.09   0.12     0.07  -0.05   0.00
  28   1    -0.03  -0.02   0.11     0.14  -0.05  -0.05    -0.11   0.05  -0.02
  29   1    -0.15   0.17   0.07    -0.08  -0.02  -0.12     0.11  -0.09   0.03
  30   1     0.17  -0.08  -0.06    -0.02  -0.01   0.10    -0.11   0.08  -0.04
  31   1    -0.24   0.22   0.03    -0.00  -0.03  -0.01     0.26  -0.25  -0.03
  32   1     0.16  -0.05  -0.14    -0.12  -0.10   0.03    -0.24   0.06   0.20
  33   1     0.01   0.04   0.02    -0.02  -0.02  -0.03    -0.14  -0.16  -0.16
  34   1     0.14  -0.00  -0.00     0.08  -0.00  -0.00     0.23  -0.01  -0.01
  35   1    -0.05   0.06   0.05    -0.03   0.03   0.02    -0.13   0.14   0.16
  36   1     0.03   0.04   0.02    -0.02  -0.03  -0.03    -0.10  -0.14  -0.14
  37   1    -0.15  -0.15   0.09    -0.17  -0.15   0.09    -0.09  -0.09   0.05
  38   1    -0.05   0.26  -0.00    -0.04   0.19  -0.01     0.00   0.06  -0.01
  39   1    -0.20   0.08   0.09    -0.15   0.07   0.06    -0.26   0.13   0.11
  40   1     0.10   0.00  -0.04     0.19   0.12  -0.10     0.24   0.20  -0.14
                     61                     62                     63
                        a                      a                      a 
 Frequencies --  1174.1204              1187.6237              1192.0804
 Red. masses --     1.8086                 5.0428                 3.5624
 Frc consts  --     0.0000                 0.0000                 0.0000
 IR Inten    --     3.6648                11.6467                11.9536
 Raman Activ --     0.0000                 0.0000                 0.0000
 Depolar     --     0.0000                 0.0000                 0.0000
 Atom AN      X      Y      Z        X      Y      Z        X      Y      Z
   1   7    -0.01  -0.01   0.02     0.02   0.04  -0.07    -0.01  -0.02   0.03
[...]
  27   1     0.06   0.05  -0.06    -0.19  -0.15   0.20    -0.25  -0.19   0.26
  28   1     0.01   0.03   0.02    -0.02  -0.10  -0.06    -0.03  -0.14  -0.08
  29   1     0.12   0.07  -0.15    -0.04  -0.02   0.06    -0.03  -0.02   0.04
  30   1     0.23   0.55   0.27    -0.13  -0.32  -0.16    -0.11  -0.27  -0.13
  31   1    -0.00   0.00  -0.00     0.00  -0.00   0.00     0.00  -0.00   0.00
  32   1     0.00  -0.00   0.00    -0.00   0.00  -0.00    -0.00   0.00  -0.00
  33   1    -0.00   0.00   0.00     0.00   0.00  -0.00     0.00  -0.00  -0.00
  34   1     0.00   0.00   0.00     0.00  -0.00  -0.00    -0.00  -0.00  -0.00
  35   1     0.00  -0.00   0.00    -0.00   0.00  -0.00     0.00   0.00   0.00
  36   1    -0.00   0.00   0.00     0.00  -0.00  -0.00     0.00  -0.00  -0.00
  37   1     0.00  -0.00  -0.00     0.00  -0.00  -0.00    -0.00   0.00   0.00
  38   1     0.00   0.00  -0.00    -0.00   0.00   0.00    -0.00  -0.00   0.00
  39   1     0.00   0.00  -0.00    -0.00  -0.00   0.00     0.00  -0.00  -0.00
  40   1     0.01  -0.01  -0.00    -0.00   0.00   0.00    -0.01   0.01   0.00
                    100                    101                    102
                        a                      a                      a 
 Frequencies --  2966.1386              2970.3460              2971.6400
 Red. masses --     1.5415                 1.5677                 1.5762
 Frc consts  --     0.0000                 0.0000                 0.0000
 IR Inten    --     5.6013                46.1113                42.4975
 Raman Activ --     0.0000                 0.0000                 0.0000
 Depolar     --     0.0000                 0.0000                 0.0000
 Atom AN      X      Y      Z        X      Y      Z        X      Y      Z
   1   7    -0.00  -0.00   0.00    -0.01  -0.02   0.02    -0.01  -0.02   0.03
   2   6     0.05  -0.07   0.00    -0.05   0.11  -0.03    -0.01   0.13  -0.07
   3   6     0.06   0.00  -0.13    -0.01   0.03   0.06     0.06   0.03  -0.10
   4   6    -0.00   0.09   0.11    -0.00   0.07   0.07     0.01   0.00  -0.00
   5   6     0.03   0.02  -0.02     0.08   0.04  -0.11    -0.06  -0.02   0.09
   6   7     0.00  -0.00  -0.00     0.01  -0.00  -0.00    -0.00   0.00   0.00
   7   6     0.00  -0.00   0.00     0.00   0.00   0.00     0.00  -0.00   0.00
   8   6     0.00  -0.00   0.00     0.00  -0.00   0.00     0.00  -0.00   0.00
   9   6    -0.00   0.00   0.00    -0.00   0.00   0.00    -0.00   0.00   0.00
  10   6     0.00  -0.00  -0.00     0.00   0.00   0.00     0.00   0.00   0.00
  11   6     0.00   0.00   0.00     0.00   0.00   0.00    -0.00  -0.00  -0.00
  12   6    -0.00   0.00   0.00    -0.00   0.00   0.00     0.00  -0.00  -0.00
  13   6     0.00   0.00   0.00    -0.00  -0.00  -0.00     0.00   0.00  -0.00
  14   6    -0.00   0.00   0.00    -0.00   0.00  -0.00    -0.00  -0.00   0.00
  15   6    -0.00  -0.00  -0.00     0.00  -0.00  -0.00    -0.00   0.00  -0.00
  16   6    -0.00   0.00   0.00    -0.00  -0.00  -0.00    -0.00  -0.00   0.00
  17   6    -0.00  -0.00   0.00    -0.00  -0.00   0.00     0.00  -0.00   0.00
  18   6    -0.00   0.00   0.00    -0.00   0.00   0.00     0.00  -0.00  -0.00
  19  17     0.00  -0.00  -0.00     0.00   0.00  -0.00    -0.00   0.00  -0.00
  20   1     0.01  -0.01  -0.01    -0.00  -0.00   0.00    -0.00   0.00   0.00
  21   1    -0.00  -0.00  -0.00    -0.00   0.00  -0.00    -0.00   0.00  -0.00
  22   1     0.00   0.00  -0.00     0.04   0.07  -0.07     0.06   0.10  -0.11
  23   1    -0.25   0.17   0.08     0.37  -0.24  -0.12     0.34  -0.21  -0.11
  24   1     0.09   0.07  -0.10    -0.21  -0.17   0.23    -0.31  -0.27   0.35
  25   1    -0.32  -0.27   0.36     0.10   0.09  -0.12    -0.26  -0.22   0.30
  26   1     0.09   0.27   0.11    -0.07  -0.20  -0.09     0.05   0.14   0.05
  27   1     0.18   0.16  -0.17     0.11   0.10  -0.10    -0.02  -0.01   0.02
  28   1    -0.16  -0.49  -0.23    -0.11  -0.34  -0.16     0.00   0.00  -0.00
  29   1    -0.10  -0.07   0.11    -0.35  -0.25   0.37     0.28   0.20  -0.29
  30   1     0.00  -0.00  -0.01     0.06   0.12   0.04    -0.06  -0.13  -0.05
  31   1     0.00   0.00  -0.00     0.00  -0.00   0.00    -0.00   0.00  -0.00
  32   1    -0.00   0.00  -0.00    -0.00   0.00  -0.00    -0.00   0.00  -0.00
  33   1     0.00  -0.00  -0.00     0.00  -0.00  -0.00     0.00  -0.00  -0.00
  34   1    -0.00   0.00   0.00    -0.00  -0.00  -0.00    -0.00  -0.00  -0.00
  35   1    -0.00  -0.00  -0.00    -0.00  -0.00  -0.00     0.00   0.00   0.00
  36   1     0.00  -0.00  -0.00     0.00  -0.00  -0.00    -0.00   0.00   0.00
  37   1    -0.00  -0.00   0.00    -0.00   0.00   0.00     0.00  -0.00  -0.00
  38   1     0.00  -0.00   0.00    -0.00  -0.00   0.00     0.00   0.00  -0.00
  39   1     0.00   0.00  -0.00     0.00   0.00  -0.00     0.00   0.00  -0.00
  40   1     0.00  -0.00  -0.00     0.00  -0.00  -0.00    -0.00   0.00   0.00
                    103                    104                    105
                        a                      a                      a 
 Frequencies --  2980.8498              3009.2192              3081.7110
 Red. masses --     1.5714                 1.9451                 1.7537
 Frc consts  --     0.0000                 0.0000                 0.0000
 IR Inten    --    59.6881               864.3990                 8.6117
 Raman Activ --     0.0000                 0.0000                 0.0000
 Depolar     --     0.0000                 0.0000                 0.0000
 Atom AN      X      Y      Z        X      Y      Z        X      Y      Z
   1   7     0.00   0.00  -0.00    -0.10  -0.15   0.19    -0.00   0.00  -0.00
   2   6    -0.02  -0.01   0.02    -0.02  -0.04   0.02     0.00  -0.00   0.00
   3   6    -0.04   0.01   0.10    -0.01  -0.01   0.01     0.00   0.00  -0.00
   4   6    -0.03   0.06   0.12     0.00  -0.01  -0.01    -0.00   0.00   0.00
   5   6    -0.06  -0.01   0.12    -0.00  -0.00  -0.00     0.00   0.00  -0.00
   6   7    -0.01   0.00   0.00     0.00  -0.00   0.00    -0.00  -0.00   0.00
   7   6     0.00  -0.00   0.00     0.00   0.00  -0.00    -0.00   0.00   0.00
   8   6     0.00  -0.00   0.00    -0.00   0.00  -0.00     0.01  -0.00  -0.00
   9   6     0.00  -0.00  -0.00    -0.00   0.00   0.00     0.18  -0.07  -0.08
  10   6     0.00  -0.00  -0.00    -0.00   0.00   0.00     0.01   0.10   0.11
  11   6     0.00   0.00   0.00    -0.00  -0.00  -0.00    -0.03  -0.01  -0.01
  12   6     0.00  -0.00  -0.00     0.01  -0.00  -0.00     0.00  -0.00  -0.00
  13   6     0.00   0.00   0.00    -0.00  -0.00  -0.00     0.00  -0.00  -0.00
  14   6     0.00  -0.00   0.00     0.00   0.00  -0.00     0.00   0.00  -0.00
  15   6    -0.00   0.00   0.00     0.00  -0.00  -0.00    -0.01   0.01   0.00
  16   6    -0.00   0.00   0.00     0.00  -0.00  -0.00     0.00   0.00  -0.00
  17   6    -0.00  -0.00   0.00    -0.00   0.00   0.00     0.00   0.00  -0.00
  18   6     0.00  -0.00  -0.00     0.00  -0.00  -0.00    -0.00   0.00   0.00
  19  17     0.00  -0.00   0.00    -0.00   0.01  -0.01     0.00   0.00  -0.00
  20   1     0.00  -0.00  -0.00     0.04  -0.04  -0.01     0.00   0.00  -0.00
  21   1     0.00  -0.00   0.00    -0.03  -0.00  -0.00     0.00  -0.00   0.00
  22   1    -0.01  -0.01   0.01     0.36   0.57  -0.65    -0.00  -0.00   0.00
  23   1     0.02  -0.01  -0.00    -0.05   0.03   0.02    -0.00   0.00  -0.00
  24   1     0.06   0.06  -0.08     0.10   0.10  -0.11     0.00   0.00  -0.00
  25   1     0.23   0.19  -0.25     0.04   0.03  -0.04    -0.00  -0.00   0.00
  26   1    -0.07  -0.22  -0.09     0.01   0.02   0.01    -0.00   0.00  -0.00
  27   1     0.24   0.20  -0.23    -0.01  -0.01   0.01     0.00   0.00  -0.00
  28   1    -0.13  -0.40  -0.18     0.01   0.03   0.01    -0.00  -0.00  -0.00
  29   1     0.34   0.25  -0.35    -0.00   0.00   0.00    -0.00  -0.00   0.00
  30   1    -0.10  -0.21  -0.08     0.00   0.00   0.00     0.00  -0.00  -0.00
  31   1    -0.00   0.00  -0.01     0.00  -0.00   0.00     0.00  -0.00  -0.00
  32   1    -0.00   0.00  -0.00     0.00  -0.00   0.00    -0.00   0.00  -0.00
  33   1    -0.00   0.00   0.00     0.00  -0.00  -0.00    -0.65   0.27   0.31
  34   1     0.00   0.00  -0.00    -0.00  -0.00  -0.00    -0.02  -0.37  -0.43
  35   1    -0.00  -0.00  -0.00     0.00   0.00   0.00     0.11   0.04   0.05
  36   1    -0.00   0.00   0.00    -0.02   0.01   0.01    -0.02   0.01   0.01
  37   1     0.00  -0.00  -0.00    -0.00   0.00   0.00     0.03  -0.04  -0.01
  38   1     0.00   0.00  -0.00    -0.00  -0.00  -0.00    -0.02  -0.00   0.01
  39   1     0.00   0.00  -0.00    -0.00  -0.00  -0.00    -0.00  -0.00   0.00
  40   1    -0.00   0.00   0.00    -0.00   0.00   0.00     0.00  -0.00  -0.00
                    106                    107                    108
                        a                      a                      a 
 Frequencies --  3092.9258              3093.1837              3101.1133
 Red. masses --     1.7875                 1.7670                 1.8607
 Frc consts  --     0.0000                 0.0000                 0.0000
 IR Inten    --    74.0950                13.9477                55.8191
 Raman Activ --     0.0000                 0.0000                 0.0000
 Depolar     --     0.0000                 0.0000                 0.0000
 Atom AN      X      Y      Z        X      Y      Z        X      Y      Z
   1   7    -0.00  -0.00   0.00    -0.00  -0.00   0.00    -0.00  -0.00   0.00
   2   6     0.00  -0.00  -0.00     0.00   0.00  -0.00     0.00  -0.00   0.00
   3   6    -0.00  -0.00   0.00     0.00   0.00   0.00    -0.00  -0.00   0.00
   4   6     0.00  -0.00  -0.00    -0.00  -0.00  -0.00    -0.00   0.00  -0.00
   5   6    -0.00  -0.00   0.00    -0.00  -0.00   0.00    -0.00  -0.00   0.00
   6   7    -0.00   0.00   0.00     0.00   0.00  -0.00     0.00   0.00  -0.00
   7   6    -0.00   0.00   0.00    -0.00   0.00   0.00    -0.00   0.00   0.00
   8   6     0.00  -0.00  -0.00     0.00  -0.00   0.00    -0.00  -0.00  -0.00
   9   6     0.09  -0.04  -0.04     0.05  -0.02  -0.02    -0.10   0.04   0.04
  10   6    -0.00  -0.07  -0.08    -0.00  -0.03  -0.03     0.01   0.12   0.14
  11   6     0.13   0.06   0.07     0.07   0.03   0.03     0.08   0.03   0.04
  12   6    -0.08   0.03   0.04    -0.05   0.02   0.02    -0.12   0.05   0.05
  13   6    -0.00   0.00   0.00     0.00  -0.00  -0.00    -0.00   0.00   0.00
  14   6    -0.00   0.00  -0.00     0.00  -0.00  -0.00    -0.00  -0.00   0.00
  15   6    -0.01   0.02   0.00     0.01  -0.02  -0.00     0.01  -0.02  -0.00
  16   6     0.07   0.01  -0.03    -0.13  -0.01   0.06     0.00   0.00  -0.00
  17   6    -0.03  -0.08   0.02     0.06   0.16  -0.05    -0.00  -0.01   0.00
  18   6    -0.01   0.01   0.00     0.02  -0.02  -0.01    -0.00   0.00   0.00
  19  17     0.00  -0.00  -0.00     0.00  -0.00   0.00    -0.00  -0.00   0.00
  20   1     0.00  -0.00  -0.00     0.00  -0.00  -0.00     0.00  -0.00   0.00
  21   1    -0.00  -0.00   0.00    -0.00   0.00  -0.00    -0.00   0.00  -0.00
  22   1     0.01   0.01  -0.01     0.00   0.00  -0.00     0.00   0.01  -0.01
  23   1    -0.00   0.00  -0.00    -0.00   0.00  -0.00    -0.00   0.00  -0.00
  24   1    -0.00  -0.00   0.00    -0.00  -0.00   0.00     0.00   0.00  -0.00
  25   1     0.00   0.00  -0.00     0.00   0.00  -0.00     0.00   0.00  -0.00
  26   1    -0.00  -0.00  -0.00    -0.00  -0.00  -0.00     0.00   0.00   0.00
  27   1    -0.00  -0.00   0.00     0.00   0.00  -0.00    -0.00  -0.00   0.00
  28   1     0.00   0.00   0.00     0.00   0.00   0.00     0.00  -0.00   0.00
  29   1     0.00   0.00  -0.00     0.00   0.00  -0.00     0.00   0.00  -0.00
  30   1    -0.00  -0.00  -0.00     0.00   0.00   0.00     0.00   0.00   0.00
  31   1     0.00  -0.00   0.00     0.00   0.00   0.00     0.00   0.00  -0.00
  32   1    -0.00   0.00  -0.00    -0.00   0.00  -0.00     0.00  -0.00   0.00
  33   1    -0.31   0.13   0.15    -0.16   0.07   0.08     0.33  -0.14  -0.16
  34   1     0.01   0.24   0.27     0.00   0.11   0.12    -0.02  -0.42  -0.47
  35   1    -0.50  -0.20  -0.23    -0.26  -0.10  -0.12    -0.27  -0.11  -0.13
  36   1     0.32  -0.12  -0.12     0.17  -0.06  -0.07     0.45  -0.16  -0.17
  37   1     0.06  -0.09  -0.02    -0.06   0.09   0.02    -0.05   0.07   0.01
  38   1    -0.26  -0.03   0.12     0.48   0.06  -0.23    -0.01  -0.00   0.01
  39   1     0.11   0.28  -0.08    -0.22  -0.58   0.17     0.01   0.02  -0.01
  40   1     0.04  -0.05  -0.01    -0.07   0.10   0.02     0.01  -0.02  -0.00
                    109                    110                    111
                        a                      a                      a 
 Frequencies --  3103.2559              3108.8516              3116.9743
 Red. masses --     1.8229                 1.9139                 1.8622
 Frc consts  --     0.0000                 0.0000                 0.0000
 IR Inten    --    62.4705                23.5786               105.7285
 Raman Activ --     0.0000                 0.0000                 0.0000
 Depolar     --     0.0000                 0.0000                 0.0000
 Atom AN      X      Y      Z        X      Y      Z        X      Y      Z
   1   7     0.00  -0.00   0.00     0.00   0.00  -0.00    -0.00  -0.00   0.00
   2   6     0.00  -0.00   0.00    -0.00   0.00   0.00     0.00  -0.00  -0.00
   3   6     0.00   0.00   0.00     0.00   0.00  -0.00     0.00   0.00   0.00
   4   6     0.00   0.00  -0.00     0.00  -0.00  -0.00     0.00   0.00  -0.00
   5   6     0.00   0.00   0.00     0.00   0.00  -0.00     0.00   0.00   0.00
   6   7     0.00  -0.00  -0.00     0.00  -0.00  -0.00    -0.00   0.00  -0.00
   7   6    -0.00   0.00  -0.00     0.00  -0.00  -0.00     0.00   0.00  -0.00
   8   6     0.00  -0.00   0.00    -0.00  -0.00   0.00    -0.00   0.00  -0.00
   9   6     0.02  -0.01  -0.01    -0.02   0.01   0.01    -0.02   0.01   0.01
  10   6    -0.00  -0.01  -0.01     0.00   0.04   0.05     0.00   0.01   0.01
  11   6    -0.00   0.00   0.00     0.15   0.07   0.08     0.00   0.00   0.00
  12   6     0.00  -0.00  -0.00     0.18  -0.07  -0.08    -0.00   0.00   0.00
  13   6    -0.00   0.00   0.00    -0.00   0.00   0.00    -0.00  -0.00   0.00
  14   6     0.00  -0.00  -0.00    -0.00  -0.00   0.00     0.00   0.01  -0.00
  15   6     0.06  -0.09  -0.02     0.00  -0.00  -0.00    -0.14   0.19   0.04
  16   6    -0.16  -0.02   0.08     0.00   0.00  -0.00    -0.10  -0.01   0.05
  17   6    -0.06  -0.15   0.04     0.00   0.00  -0.00    -0.01  -0.02   0.01
  18   6    -0.04   0.05   0.01    -0.00   0.00   0.00    -0.05   0.07   0.01
  19  17    -0.00  -0.00  -0.00     0.00  -0.00  -0.00    -0.00  -0.00  -0.00
  20   1    -0.00   0.00   0.00     0.00   0.00  -0.00     0.00   0.00   0.00
  21   1    -0.00   0.00  -0.00    -0.00   0.00  -0.00    -0.00   0.00  -0.00
  22   1     0.00   0.00  -0.00    -0.01  -0.01   0.01     0.00   0.00  -0.00
  23   1    -0.00   0.00   0.00     0.00  -0.00  -0.00    -0.00   0.00   0.00
  24   1     0.00  -0.00  -0.00     0.00   0.00  -0.00     0.00  -0.00   0.00
  25   1    -0.00   0.00   0.00    -0.00  -0.00   0.00    -0.00   0.00   0.00
  26   1    -0.00  -0.00  -0.00     0.00  -0.00  -0.00     0.00  -0.00  -0.00
  27   1    -0.00  -0.00   0.00    -0.00  -0.00   0.00    -0.00  -0.00   0.00
  28   1     0.00   0.00   0.00    -0.00   0.00  -0.00     0.00   0.00   0.00
  29   1    -0.00  -0.00   0.00    -0.00  -0.00   0.00    -0.00  -0.00   0.00
  30   1    -0.00  -0.00  -0.00    -0.00  -0.00  -0.00    -0.00  -0.00  -0.00
  31   1    -0.00  -0.00   0.00     0.00  -0.00   0.00    -0.00  -0.00   0.00
  32   1    -0.00   0.00  -0.00    -0.00   0.00  -0.00     0.00  -0.00   0.00
  33   1    -0.05   0.02   0.03     0.06  -0.02  -0.03     0.07  -0.03  -0.03
  34   1     0.00   0.02   0.02    -0.01  -0.14  -0.16    -0.00  -0.03  -0.03
  35   1    -0.00  -0.00  -0.00    -0.52  -0.21  -0.24    -0.01  -0.00  -0.01
  36   1    -0.00   0.00   0.00    -0.62   0.23   0.24     0.01  -0.00  -0.00
  37   1    -0.23   0.32   0.07    -0.01   0.02   0.00     0.47  -0.67  -0.14
  38   1     0.56   0.07  -0.27    -0.00  -0.00   0.00     0.32   0.04  -0.15
  39   1     0.19   0.50  -0.15    -0.00  -0.00   0.00     0.03   0.07  -0.02
  40   1     0.14  -0.21  -0.05     0.01  -0.01  -0.00     0.17  -0.24  -0.05
                    112                    113                    114
                        a                      a                      a 
 Frequencies --  3123.0992              3223.5734              3235.5159
 Red. masses --     1.8673                 1.9851                 1.5364
 Frc consts  --     0.0000                 0.0000                 0.0000
 IR Inten    --    45.6860                44.8033                33.6304
 Raman Activ --     0.0000                 0.0000                 0.0000
 Depolar     --     0.0000                 0.0000                 0.0000
 Atom AN      X      Y      Z        X      Y      Z        X      Y      Z
   1   7    -0.00  -0.00   0.00     0.24  -0.08   0.10    -0.09   0.09   0.15
   2   6     0.00   0.00  -0.00     0.01  -0.00   0.00    -0.00   0.01   0.00
   3   6     0.00   0.00   0.00    -0.00   0.00   0.00    -0.00   0.00  -0.00
   4   6     0.00   0.00  -0.00     0.00   0.00   0.00    -0.00  -0.00  -0.00
   5   6     0.00   0.00   0.00     0.00   0.00   0.00     0.00   0.00  -0.00
   6   7     0.00   0.00  -0.00    -0.00   0.00  -0.00    -0.00   0.00   0.00
   7   6     0.00  -0.00   0.00    -0.00  -0.00   0.00    -0.00  -0.00  -0.00
   8   6     0.00   0.00   0.00     0.00   0.00   0.00    -0.00   0.00  -0.00
   9   6     0.01  -0.00  -0.00     0.00  -0.00  -0.00     0.00  -0.00  -0.00
  10   6    -0.00  -0.00  -0.01    -0.00  -0.00  -0.00    -0.00  -0.00  -0.00
  11   6    -0.01  -0.00  -0.00     0.00   0.00  -0.00    -0.00  -0.00  -0.00
  12   6    -0.00   0.00   0.00     0.00   0.00   0.00    -0.00   0.00   0.00
  13   6    -0.01   0.00   0.00    -0.00  -0.00   0.00    -0.00   0.00  -0.00
  14   6     0.00  -0.00  -0.00    -0.00   0.00   0.00    -0.00  -0.00   0.00
  15   6     0.03  -0.04  -0.01     0.00  -0.00  -0.00    -0.00   0.00  -0.00
  16   6     0.06   0.00  -0.03     0.00   0.00  -0.00    -0.00   0.00   0.00
  17   6     0.03   0.09  -0.02     0.00   0.00  -0.00    -0.00  -0.00   0.00
  18   6    -0.14   0.20   0.04    -0.00   0.00   0.00     0.00  -0.00  -0.00
  19  17     0.00  -0.00  -0.00    -0.00   0.00  -0.00     0.00   0.00  -0.00
  20   1     0.00  -0.00  -0.00    -0.30   0.18   0.20     0.69  -0.40  -0.39
  21   1     0.00  -0.00   0.00    -0.62   0.15  -0.60    -0.31   0.08  -0.26
  22   1     0.00   0.00  -0.00     0.02  -0.01   0.01    -0.04  -0.04   0.07
  23   1    -0.00   0.00   0.00    -0.01   0.01   0.00     0.02  -0.01  -0.01
  24   1    -0.00  -0.00   0.00    -0.00  -0.00   0.00    -0.00  -0.01   0.00
  25   1    -0.00   0.00   0.00     0.00   0.00  -0.00    -0.00   0.00   0.00
  26   1    -0.00  -0.00  -0.00    -0.00  -0.00  -0.00    -0.00  -0.00  -0.00
  27   1    -0.00  -0.00   0.00    -0.00   0.00   0.00    -0.00  -0.00   0.00
  28   1    -0.00  -0.00  -0.00    -0.00  -0.00  -0.00     0.00   0.01   0.00
  29   1     0.00   0.00   0.00     0.00   0.00  -0.00    -0.00  -0.00   0.00
  30   1    -0.00  -0.01  -0.00    -0.00  -0.00  -0.00     0.00   0.00   0.00
  31   1    -0.00  -0.00  -0.00    -0.00   0.00  -0.00     0.00  -0.00   0.00
  32   1    -0.00   0.00  -0.00    -0.00   0.00  -0.00     0.00  -0.00   0.00
  33   1    -0.02   0.01   0.01    -0.00   0.00   0.00    -0.00   0.00   0.00
  34   1     0.00   0.02   0.02     0.00   0.00   0.00    -0.00   0.00   0.00
  35   1     0.02   0.01   0.01    -0.00  -0.00  -0.00     0.00   0.00   0.00
  36   1     0.00  -0.00  -0.00    -0.00   0.00   0.00     0.00  -0.00  -0.00
  37   1    -0.10   0.15   0.03    -0.00   0.00   0.00    -0.00   0.00  -0.00
  38   1    -0.18  -0.02   0.09    -0.00  -0.00   0.00     0.00   0.00  -0.00
  39   1    -0.10  -0.28   0.08    -0.00  -0.00   0.00     0.00   0.00  -0.00
  40   1     0.49  -0.70  -0.16     0.00  -0.00  -0.00    -0.00   0.00   0.00
