46
 energy: -73.514320732603 gnorm: 0.000368072807 xtb: 6.5.1 (fef0646)
N            2.11283356451787        1.44537382679635       -0.18541638933468
C            2.55204015907611        2.83462029993772        0.05081831080033
C            3.59765585602551        2.85520360835326        1.16640873815376
C            4.82866105435697        2.11070439100014        0.77934208040306
C            5.11869921509242        0.79921166425785        1.01941649340704
C            6.35191554063131        0.39138125175540        0.48203911746888
C            7.00928751390691        1.39656096472988       -0.18553819569342
C            8.26859622036415        1.34144868333221       -0.85200067049056
C            9.09062264524830        0.25621258317543       -1.03600691362783
C           10.27099268008787        0.53539264488201       -1.74451134797968
C           11.29551061730099       -0.50193004077276       -2.05537738086421
C           10.36211028192936        1.86522635243295       -2.11305234194977
C           11.37643067167813        2.55581877815579       -2.83182760387554
C           11.39837810916663        3.89604197120115       -3.14859194554019
C           12.52875692149714        4.28955704053889       -3.87010079545562
C           13.40357170918114        3.25867785671518       -4.12382347509379
C           14.64600754453200        3.25432456424486       -4.83043661087206
C           15.47078763251799        4.29977778545293       -5.18758536136275
C           15.23968152226874        5.74004057506362       -4.87086293562940
C           16.61608722940495        3.85311520808401       -5.88841164628553
C           16.66578768809269        2.50762183650190       -6.05598082196512
S           15.30572493570323        1.72462540718226       -5.35837454297567
S           12.80251898508987        1.76810291732561       -3.44846034299002
S            8.96747858393200        2.76382881583670       -1.57001960836869
S            6.08794930697288        2.87064945332806       -0.14248244131292
Cl           1.52072996520753       -0.01151321657513        2.44676133903173
H            1.32407730597513        1.39988092613067       -0.83352856882916
H            1.82828004990484        0.99476257499557        0.72188042188425
H            2.88961858148071        0.88289050582646       -0.54313819056501
H            1.69361929543750        3.42857332517051        0.35917459213495
H            2.97567187650637        3.24618440734648       -0.86633625951920
H            3.16877951569628        2.38072517561378        2.05082534054458
H            3.84845887221074        3.88815825198379        1.40268304807052
H            4.46350502090097        0.15409053391245        1.57921636107411
H            6.74787218582906       -0.60232781491754        0.58417124582751
H            8.84846216068087       -0.72560286884617       -0.67121727823161
H           10.98407583795499       -1.46264383057752       -1.65563276211845
H           12.25869490197327       -0.23435645037821       -1.62156658105267
H           11.43473659907905       -0.59535200913927       -3.13209896837294
H           10.60783995580189        4.56797231190990       -2.86336789413972
H           12.67882664287660        5.29413144440174       -4.21444320492999
H           14.90322373857415        5.85887447187401       -3.84291496419158
H           14.48385757831445        6.16192636115304       -5.53312619589782
H           16.16209499054456        6.29789320281613       -5.00783178294913
H           17.37719308382255        4.52155947291512       -6.24931575425455
H           17.41607565354472        1.91946478473272       -6.54414731147094
