      -----------------------------------------------------------      
     |                   =====================                   |     
     |                           x T B                           |     
     |                   =====================                   |     
     |                         S. Grimme                         |     
     |          Mulliken Center for Theoretical Chemistry        |     
     |                    University of Bonn                     |     
      -----------------------------------------------------------      

   * xtb version 6.5.1 (fef0646) compiled by 'conda@b96dff2e9fd6' on 2023-01-04

   xtb is free software: you can redistribute it and/or modify it under
   the terms of the GNU Lesser General Public License as published by
   the Free Software Foundation, either version 3 of the License, or
   (at your option) any later version.
   
   xtb is distributed in the hope that it will be useful,
   but WITHOUT ANY WARRANTY; without even the implied warranty of
   MERCHANTABILITY or FITNESS FOR A PARTICULAR PURPOSE.  See the
   GNU Lesser General Public License for more details.
   
   Cite this work as:
   * C. Bannwarth, E. Caldeweyher, S. Ehlert, A. Hansen, P. Pracht,
     J. Seibert, S. Spicher, S. Grimme, WIREs Comput. Mol. Sci., 2020, 11,
     e01493. DOI: 10.1002/wcms.1493
   
   for GFN2-xTB:
   * C. Bannwarth, S. Ehlert and S. Grimme., J. Chem. Theory Comput., 2019,
     15, 1652-1671. DOI: 10.1021/acs.jctc.8b01176
   for GFN1-xTB:
   * S. Grimme, C. Bannwarth, P. Shushkov, J. Chem. Theory Comput., 2017,
     13, 1989-2009. DOI: 10.1021/acs.jctc.7b00118
   for GFN0-xTB:
   * P. Pracht, E. Caldeweyher, S. Ehlert, S. Grimme, ChemRxiv, 2019, preprint.
     DOI: 10.26434/chemrxiv.8326202.v1
   for GFN-FF:
   * S. Spicher and S. Grimme, Angew. Chem. Int. Ed., 2020, 59, 15665-15673.
     DOI: 10.1002/anie.202004239
   
   for ALPB and GBSA implicit solvation:
   * S. Ehlert, M. Stahn, S. Spicher, S. Grimme, J. Chem. Theory Comput.,
     2021, 17, 4250-4261. DOI: 10.1021/acs.jctc.1c00471
   
   for DFT-D4:
   * E. Caldeweyher, C. Bannwarth and S. Grimme, J. Chem. Phys., 2017,
     147, 034112. DOI: 10.1063/1.4993215
   * E. Caldeweyher, S. Ehlert, A. Hansen, H. Neugebauer, S. Spicher,
     C. Bannwarth and S. Grimme, J. Chem. Phys., 2019, 150, 154122.
     DOI: 10.1063/1.5090222
   * E. Caldeweyher, J.-M. Mewes, S. Ehlert and S. Grimme, Phys. Chem. Chem. Phys.
     2020, 22, 8499-8512. DOI: 10.1039/D0CP00502A
   
   for sTDA-xTB:
   * S. Grimme and C. Bannwarth, J. Chem. Phys., 2016, 145, 054103.
     DOI: 10.1063/1.4959605
   
   in the mass-spec context:
   * V. Asgeirsson, C. Bauer and S. Grimme, Chem. Sci., 2017, 8, 4879.
     DOI: 10.1039/c7sc00601b
   * J. Koopman and S. Grimme, ACS Omega 2019, 4, 12, 15120-15133.
     DOI: 10.1021/acsomega.9b02011
   
   for metadynamics refer to:
   * S. Grimme, J. Chem. Theory Comput., 2019, 155, 2847-2862
     DOI: 10.1021/acs.jctc.9b00143
   
   for SPH calculations refer to:
   * S. Spicher and S. Grimme, J. Chem. Theory Comput., 2021, 17, 1701-1714
     DOI: 10.1021/acs.jctc.0c01306
   
   with help from (in alphabetical order)
   P. Atkinson, C. Bannwarth, F. Bohle, G. Brandenburg, E. Caldeweyher
   M. Checinski, S. Dohm, S. Ehlert, S. Ehrlich, I. Gerasimov, C. Hölzer
   A. Katbashev, J. Koopman, C. Lavigne, S. Lehtola, F. März, M. Müller,
   F. Musil, H. Neugebauer, J. Pisarek, C. Plett, P. Pracht, F. Pultar,
   J. Seibert, P. Shushkov, S. Spicher, M. Stahn, M. Steiner, T. Strunk,
   J. Stückrath, T. Rose, and J. Unsleber
   
 * started run on 2023/01/24 at 14:55:52.224     

           -------------------------------------------------
          |                Calculation Setup                |
           -------------------------------------------------

          program call               : xtb init.xyz --opt -c 1 -u 0 -P 16 --alpb water
          hostname                   : gpg-woodward
          coordinate file            : init.xyz
          omp threads                :                    16

   ID    Z sym.   atoms
    1    7 N      1
    2    6 C      2-4
    3    1 H      5-12

           -------------------------------------------------
          |                 G F N 2 - x T B                 |
           -------------------------------------------------

        Reference                      10.1021/acs.jctc.8b01176
      * Hamiltonian:
        H0-scaling (s, p, d)           1.850000    2.230000    2.230000
        zeta-weighting                 0.500000
      * Dispersion:
        s8                             2.700000
        a1                             0.520000
        a2                             5.000000
        s9                             5.000000
      * Repulsion:
        kExp                           1.500000    1.000000
        rExp                           1.000000
      * Coulomb:
        alpha                          2.000000
        third order                    shell-resolved
        anisotropic                    true
        a3                             3.000000
        a5                             4.000000
        cn-shift                       1.200000
        cn-exp                         4.000000
        max-rad                        5.000000

      * Solvation model:               ALPB
        Solvent                        water
        Parameter file                 internal GFN2-xTB/ALPB
        Dielectric constant                8.0200E+01
        Reference state                gsolv [1 M gas/solution]
        Free energy shift                  1.0808E-03 Eh       6.7819E-01 kcal/mol
        Temperature                        2.9815E+02 K
        Density                            1.0000E+00 kg/L
        Solvent mass                       1.8000E+01 g/mol
        Interaction kernel             P16
        Born radius scaling (c1)           1.4744E+00
        Born radii integrator          GBOBC
        Born offset                        0.0000E+00 a0       0.0000E+00 AA
        H-bond correction              true
        Ion screening                  false
        Surface tension                    1.0000E-05 Eh       1.5569E+01 dyn/cm
        Grid points                               230 per atom

          ...................................................
          :                      SETUP                      :
          :.................................................:
          :  # basis functions                  24          :
          :  # atomic orbitals                  24          :
          :  # shells                           16          :
          :  # electrons                        24          :
          :  max. iterations                   250          :
          :  Hamiltonian                  GFN2-xTB          :
          :  restarted?                      false          :
          :  GBSA solvation                   true          :
          :  PC potential                    false          :
          :  electronic temp.          300.0000000     K    :
          :  accuracy                    1.0000000          :
          :  -> integral cutoff          0.2500000E+02      :
          :  -> integral neglect         0.1000000E-07      :
          :  -> SCF convergence          0.1000000E-05 Eh   :
          :  -> wf. convergence          0.1000000E-03 e    :
          :  Broyden damping             0.4000000          :
          ...................................................

 iter      E             dE          RMSdq      gap      omega  full diag
   1    -13.1879270 -0.131879E+02  0.357E+00    9.49       0.0  T
   2    -13.2540520 -0.661251E-01  0.181E+00    9.87       1.0  T
   3    -13.2554720 -0.141997E-02  0.105E+00    9.85       1.0  T
   4    -13.2555811 -0.109074E-03  0.165E-01    9.79       1.0  T
   5    -13.2556560 -0.749337E-04  0.577E-02    9.80       1.0  T
   6    -13.2556576 -0.161643E-05  0.265E-02    9.80       1.1  T
   7    -13.2556580 -0.400819E-06  0.265E-03    9.80      10.9  T
   8    -13.2556580 -0.347504E-08  0.100E-03    9.80      28.8  T
   9    -13.2556580 -0.708138E-09  0.128E-04    9.80     225.6  T
  10    -13.2556580 -0.106759E-10  0.647E-05    9.80     446.5  T

   *** convergence criteria satisfied after 10 iterations ***

         #    Occupation            Energy/Eh            Energy/eV
      -------------------------------------------------------------
         1        2.0000           -0.7003334             -19.0570
       ...           ...                  ...                  ...
         6        2.0000           -0.5640827             -15.3495
         7        2.0000           -0.5501307             -14.9698
         8        2.0000           -0.5146110             -14.0033
         9        2.0000           -0.4880816             -13.2814
        10        2.0000           -0.4543556             -12.3636
        11        2.0000           -0.4422711             -12.0348
        12        2.0000           -0.4370246             -11.8920 (HOMO)
        13                         -0.0767994              -2.0898 (LUMO)
        14                         -0.0455988              -1.2408
        15                          0.0584771               1.5912
        16                          0.0837123               2.2779
        17                          0.1117089               3.0398
       ...                                ...                  ...
        24                          0.3317689               9.0279
      -------------------------------------------------------------
                  HL-Gap            0.3602252 Eh            9.8022 eV
             Fermi-level           -0.2569120 Eh           -6.9909 eV

 SCC (total)                   0 d,  0 h,  0 min,  0.009 sec
 SCC setup                      ...        0 min,  0.000 sec (  3.422%)
 Dispersion                     ...        0 min,  0.000 sec (  1.939%)
 classical contributions        ...        0 min,  0.000 sec (  1.059%)
 integral evaluation            ...        0 min,  0.000 sec (  4.679%)
 iterations                     ...        0 min,  0.007 sec ( 72.347%)
 molecular gradient             ...        0 min,  0.001 sec ( 12.736%)
 printout                       ...        0 min,  0.000 sec (  1.254%)

         :::::::::::::::::::::::::::::::::::::::::::::::::::::
         ::                     SUMMARY                     ::
         :::::::::::::::::::::::::::::::::::::::::::::::::::::
         :: total energy             -13.060967899007 Eh    ::
         :: total w/o Gsasa/hb       -13.049762813646 Eh    ::
         :: gradient norm              0.021581140331 Eh/a0 ::
         :: HOMO-LUMO gap              9.802225770601 eV    ::
         ::.................................................::
         :: SCC energy               -13.255658026002 Eh    ::
         :: -> isotropic ES            0.122669913286 Eh    ::
         :: -> anisotropic ES         -0.012669698465 Eh    ::
         :: -> anisotropic XC          0.011181936054 Eh    ::
         :: -> dispersion             -0.004226201399 Eh    ::
         :: -> Gsolv                  -0.116182802614 Eh    ::
         ::    -> Gelec               -0.104977717253 Eh    ::
         ::    -> Gsasa               -0.000814786484 Eh    ::
         ::    -> Ghb                 -0.011471058575 Eh    ::
         ::    -> Gshift               0.001080759698 Eh    ::
         :: repulsion energy           0.194686745243 Eh    ::
         :: add. restraining           0.000000000000 Eh    ::
         :: total charge               1.000000000000 e     ::
         :::::::::::::::::::::::::::::::::::::::::::::::::::::

      ----------------------------------------------------------- 
     |                   =====================                   |
     |                        A N C O P T                        |
     |                   =====================                   |
     |               Approximate Normal Coordinate               |
     |                Rational Function Optimizer                |
      ----------------------------------------------------------- 

          ...................................................
          :                      SETUP                      :
          :.................................................:
          :   optimization level            normal          :
          :   max. optcycles                   200          :
          :   ANC micro-cycles                  20          :
          :   degrees of freedom                30          :
          :.................................................:
          :   RF solver                   davidson          :
          :   write xtbopt.log                true          :
          :   linear?                        false          :
          :   energy convergence         0.5000000E-05 Eh   :
          :   grad. convergence          0.1000000E-02 Eh/α :
          :   maximium RF displ.         1.0000000          :
          :   Hlow (freq-cutoff)         0.1000000E-01      :
          :   Hmax (freq-cutoff)         5.0000000          :
          :   S6 in model hess.         20.0000000          :
          ...................................................

generating ANC from model Hessian ...
Using Lindh-Hessian (1995)
 Shifting diagonal of input Hessian by    0.0000000000000000     
 Lowest  eigenvalues of input Hessian
    0.000000    0.000000    0.000000    0.000000    0.000000    0.000000
    0.011959    0.016567    0.021577    0.037300    0.041025    0.045969
    0.051153    0.081551    0.088916    0.090910    0.103314    0.163991
 Highest eigenvalues
    1.179400    1.309412    1.385317    1.405173    1.543306    1.827918


........................................................................
.............................. CYCLE    1 ..............................
........................................................................
   1    -13.2556580 -0.132557E+02  0.628E-06    9.80       0.0  T
   2    -13.2556580 -0.177636E-13  0.356E-06    9.80    8112.0  T
   3    -13.2556580  0.710543E-14  0.102E-06    9.80   28189.5  T
     SCC iter.                  ...        0 min,  0.002 sec
     gradient                   ...        0 min,  0.001 sec
 * total energy  :   -13.0609679 Eh     change       -0.4321876E-11 Eh
   gradient norm :     0.0215812 Eh/α   predicted     0.0000000E+00 (-100.00%)
   displ. norm   :     0.1343350 α      lambda       -0.1586265E-02
   maximum displ.:     0.0589143 α      in ANC's #2, #6, #1, ...

........................................................................
.............................. CYCLE    2 ..............................
........................................................................
   1    -13.2606907 -0.132607E+02  0.177E-01    9.88       0.0  T
   2    -13.2607009 -0.101928E-04  0.100E-01    9.88       1.0  T
   3    -13.2606999  0.981739E-06  0.264E-02    9.88       1.1  T
   4    -13.2607024 -0.252420E-05  0.320E-03    9.88       9.0  T
   5    -13.2607024 -0.229354E-08  0.701E-04    9.88      41.2  T
   6    -13.2607024 -0.351779E-09  0.226E-04    9.88     127.7  T
     SCC iter.                  ...        0 min,  0.004 sec
     gradient                   ...        0 min,  0.001 sec
 * total energy  :   -13.0619205 Eh     change       -0.9525950E-03 Eh
   gradient norm :     0.0080863 Eh/α   predicted    -0.8074459E-03 ( -15.24%)
   displ. norm   :     0.1025387 α      lambda       -0.2922961E-03
   maximum displ.:     0.0722102 α      in ANC's #2, #1, #8, ...

........................................................................
.............................. CYCLE    3 ..............................
........................................................................
   1    -13.2624425 -0.132624E+02  0.658E-02    9.92       0.0  T
   2    -13.2624437 -0.125609E-05  0.388E-02    9.92       1.0  T
   3    -13.2624436  0.855467E-07  0.693E-03    9.92       4.2  T
   4    -13.2624439 -0.306472E-06  0.150E-03    9.92      19.2  T
   5    -13.2624439 -0.703650E-09  0.472E-04    9.92      61.2  T
   6    -13.2624439 -0.656453E-10  0.811E-05    9.92     355.9  T
     SCC iter.                  ...        0 min,  0.004 sec
     gradient                   ...        0 min,  0.001 sec
 * total energy  :   -13.0621121 Eh     change       -0.1915835E-03 Eh
   gradient norm :     0.0042263 Eh/α   predicted    -0.1476858E-03 ( -22.91%)
   displ. norm   :     0.1271617 α      lambda       -0.1498802E-03
   maximum displ.:     0.0950426 α      in ANC's #2, #1, #7, ...

........................................................................
.............................. CYCLE    4 ..............................
........................................................................
   1    -13.2623580 -0.132624E+02  0.464E-02    9.95       0.0  T
   2    -13.2623584 -0.418673E-06  0.273E-02    9.96       1.1  T
   3    -13.2623584 -0.836002E-08  0.363E-03    9.96       7.9  T
   4    -13.2623585 -0.606170E-07  0.118E-03    9.96      24.5  T
   5    -13.2623585 -0.116639E-08  0.476E-04    9.96      60.6  T
   6    -13.2623585 -0.476863E-10  0.511E-05    9.96     564.6  T
     SCC iter.                  ...        0 min,  0.004 sec
     gradient                   ...        0 min,  0.001 sec
 * total energy  :   -13.0622342 Eh     change       -0.1221673E-03 Eh
   gradient norm :     0.0043180 Eh/α   predicted    -0.7615453E-04 ( -37.66%)
   displ. norm   :     0.2985565 α      lambda       -0.2819084E-03
   maximum displ.:     0.2262100 α      in ANC's #2, #1, #7, ...

........................................................................
.............................. CYCLE    5 ..............................
........................................................................
   1    -13.2601634 -0.132602E+02  0.894E-02    9.99       0.0  T
   2    -13.2601641 -0.713760E-06  0.531E-02    9.99       1.0  T
   3    -13.2601643 -0.196752E-06  0.443E-03    9.99       6.5  T
   4    -13.2601643 -0.416753E-07  0.231E-03    9.99      12.5  T
   5    -13.2601643 -0.249564E-08  0.567E-04    9.99      51.0  T
   6    -13.2601643 -0.180179E-09  0.105E-04    9.99     275.8  T
     SCC iter.                  ...        0 min,  0.004 sec
     gradient                   ...        0 min,  0.002 sec
 * total energy  :   -13.0623195 Eh     change       -0.8530405E-04 Eh
   gradient norm :     0.0106534 Eh/α   predicted    -0.1535185E-03 (  79.97%)
   displ. norm   :     0.0564535 α      lambda       -0.1887605E-03
   maximum displ.:     0.0384320 α      in ANC's #1, #2, #8, ...

........................................................................
.............................. CYCLE    6 ..............................
........................................................................
   1    -13.2620710 -0.132621E+02  0.370E-02    9.98       0.0  T
   2    -13.2620714 -0.420791E-06  0.215E-02    9.98       1.3  T
   3    -13.2620714 -0.277490E-07  0.414E-03    9.98       7.0  T
   4    -13.2620715 -0.727692E-07  0.146E-03    9.98      19.8  T
   5    -13.2620715 -0.662711E-09  0.405E-04    9.98      71.3  T
   6    -13.2620715 -0.868781E-10  0.589E-05    9.98     490.2  T
     SCC iter.                  ...        0 min,  0.004 sec
     gradient                   ...        0 min,  0.001 sec
 * total energy  :   -13.0624371 Eh     change       -0.1175647E-03 Eh
   gradient norm :     0.0048289 Eh/α   predicted    -0.9468177E-04 ( -19.46%)
   displ. norm   :     0.0873551 α      lambda       -0.1063409E-03
   maximum displ.:     0.0656477 α      in ANC's #2, #1, #7, ...

........................................................................
.............................. CYCLE    7 ..............................
........................................................................
   1    -13.2625464 -0.132625E+02  0.296E-02    9.97       0.0  T
   2    -13.2625467 -0.261534E-06  0.175E-02    9.97       1.7  T
   3    -13.2625467  0.224551E-07  0.371E-03    9.97       7.8  T
   4    -13.2625467 -0.665754E-07  0.757E-04    9.97      38.1  T
   5    -13.2625467 -0.136655E-09  0.225E-04    9.97     128.5  T
     SCC iter.                  ...        0 min,  0.003 sec
     gradient                   ...        0 min,  0.001 sec
 * total energy  :   -13.0625219 Eh     change       -0.8475808E-04 Eh
   gradient norm :     0.0031326 Eh/α   predicted    -0.5357634E-04 ( -36.79%)
   displ. norm   :     0.2633215 α      lambda       -0.1824681E-03
   maximum displ.:     0.2007310 α      in ANC's #2, #1, #7, ...

........................................................................
.............................. CYCLE    8 ..............................
........................................................................
   1    -13.2612792 -0.132613E+02  0.714E-02    9.95       0.0  T
   2    -13.2612801 -0.963272E-06  0.425E-02    9.95       1.0  T
   3    -13.2612801  0.203165E-07  0.537E-03    9.95       5.4  T
   4    -13.2612802 -0.132454E-06  0.133E-03    9.95      21.7  T
   5    -13.2612802 -0.326358E-08  0.654E-04    9.95      44.2  T
   6    -13.2612802 -0.100275E-09  0.111E-04    9.95     259.6  T
     SCC iter.                  ...        0 min,  0.004 sec
     gradient                   ...        0 min,  0.001 sec
 * total energy  :   -13.0626268 Eh     change       -0.1048851E-03 Eh
   gradient norm :     0.0043094 Eh/α   predicted    -0.9755792E-04 (  -6.99%)
   displ. norm   :     0.0211165 α      lambda       -0.3592564E-04
   maximum displ.:     0.0122987 α      in ANC's #2, #1, #19, ...

........................................................................
.............................. CYCLE    9 ..............................
........................................................................
   1    -13.2623975 -0.132624E+02  0.133E-02    9.96       0.0  T
   2    -13.2623975 -0.846310E-07  0.766E-03    9.96       3.8  T
   3    -13.2623976 -0.418933E-08  0.209E-03    9.96      13.8  T
   4    -13.2623976 -0.146542E-07  0.628E-04    9.96      46.0  T
   5    -13.2623976 -0.811351E-10  0.131E-04    9.96     220.7  T
     SCC iter.                  ...        0 min,  0.003 sec
     gradient                   ...        0 min,  0.001 sec
 * total energy  :   -13.0626514 Eh     change       -0.2462457E-04 Eh
   gradient norm :     0.0017137 Eh/α   predicted    -0.1797201E-04 ( -27.02%)
   displ. norm   :     0.1482742 α      lambda       -0.2664674E-04
   maximum displ.:     0.1078096 α      in ANC's #2, #1, #19, ...

........................................................................
.............................. CYCLE   10 ..............................
........................................................................
   1    -13.2627097 -0.132627E+02  0.393E-02    9.97       0.0  T
   2    -13.2627101 -0.323226E-06  0.233E-02    9.97       1.2  T
   3    -13.2627100  0.424921E-07  0.420E-03    9.97       6.9  T
   4    -13.2627101 -0.884642E-07  0.654E-04    9.97      44.1  T
   5    -13.2627101 -0.159458E-09  0.284E-04    9.97     101.8  T
     SCC iter.                  ...        0 min,  0.003 sec
     gradient                   ...        0 min,  0.001 sec
 * total energy  :   -13.0626691 Eh     change       -0.1776836E-04 Eh
   gradient norm :     0.0024090 Eh/α   predicted    -0.1345447E-04 ( -24.28%)
   displ. norm   :     0.0081435 α      lambda       -0.7809047E-05
   maximum displ.:     0.0043645 α      in ANC's #2, #6, #10, ...

........................................................................
.............................. CYCLE   11 ..............................
........................................................................
   1    -13.2630771 -0.132631E+02  0.714E-03    9.97       0.0  T
   2    -13.2630772 -0.428214E-07  0.400E-03    9.97       7.2  T
   3    -13.2630772 -0.185655E-08  0.999E-04    9.97      28.9  T
   4    -13.2630772 -0.284857E-09  0.161E-04    9.97     178.8  T
     SCC iter.                  ...        0 min,  0.003 sec
     gradient                   ...        0 min,  0.001 sec
 * total energy  :   -13.0626738 Eh     change       -0.4647967E-05 Eh
   gradient norm :     0.0010303 Eh/α   predicted    -0.3905050E-05 ( -15.98%)
   displ. norm   :     0.0310712 α      lambda       -0.3161107E-05
   maximum displ.:     0.0205194 α      in ANC's #1, #2, #19, ...

........................................................................
.............................. CYCLE   12 ..............................
........................................................................
   1    -13.2628819 -0.132629E+02  0.103E-02    9.97       0.0  T
   2    -13.2628819 -0.439001E-07  0.598E-03    9.97       4.8  T
   3    -13.2628819  0.186085E-08  0.145E-03    9.97      19.8  T
   4    -13.2628819 -0.691596E-08  0.262E-04    9.97     110.1  T
   5    -13.2628819 -0.730065E-10  0.121E-04    9.97     238.4  T
     SCC iter.                  ...        0 min,  0.003 sec
     gradient                   ...        0 min,  0.001 sec
 * total energy  :   -13.0626760 Eh     change       -0.2234911E-05 Eh
   gradient norm :     0.0003063 Eh/α   predicted    -0.1579484E-05 ( -29.33%)
   displ. norm   :     0.0138194 α      lambda       -0.4074624E-06
   maximum displ.:     0.0096248 α      in ANC's #2, #1, #19, ...

   *** GEOMETRY OPTIMIZATION CONVERGED AFTER 12 ITERATIONS ***

------------------------------------------------------------------------
 total energy gain   :        -0.0017081 Eh       -1.0719 kcal/mol
 total RMSD          :         0.3118477 a0        0.1650 Å
 total power (kW/mol):        -0.3737253 (step)  -56.0592 (real)
------------------------------------------------------------------------

 ANCopt (total)                0 d,  0 h,  0 min,  0.080 sec
 optimizer setup                ...        0 min,  0.000 sec (  0.174%)
 model hessian                  ...        0 min,  0.003 sec (  4.369%)
 ANC generation                 ...        0 min,  0.001 sec (  0.631%)
 coordinate transformation      ...        0 min,  0.000 sec (  0.536%)
 single point calculation       ...        0 min,  0.070 sec ( 86.929%)
 optimization log               ...        0 min,  0.002 sec (  1.954%)
 hessian update                 ...        0 min,  0.001 sec (  1.073%)
 rational function              ...        0 min,  0.001 sec (  1.813%)

================
 final structure:
================
12
 xtb: 6.5.1 (fef0646)
N            1.04226363346657       -0.04167947028231       -0.17307713817938
C            2.50889015749547       -0.05791713400012       -0.07309986129627
C            3.28948369291927        0.75655015906830       -1.05611747034859
C            3.27936527607020       -0.74159233302816       -1.15843344449922
H            0.65208993541651        0.75944504906592        0.34058240212007
H            0.64263832209600       -0.90813480118777        0.21146419458927
H            0.76019519632147        0.03651315666192       -1.15860531861462
H            2.86278660368288       -0.12972484154191        0.94491725214993
H            4.18664529449855        1.24819026272355       -0.71732937935848
H            2.75190929181340        1.32025977064884       -1.80177225848886
H            4.16962083675064       -1.28665697836361       -0.89065255572002
H            2.73511175946905       -1.19162283976465       -1.97319642235381

 Bond Distances (Angstroems)
 ---------------------------
N1-C2=1.4701         N1-H5=1.0285         N1-H6=1.0287         N1-H7=1.0281         C2-N1=1.4701         C2-C3=1.4963         
C2-C4=1.4963         C2-H8=1.0802         C3-C2=1.4963         C3-C4=1.5017         C3-H9=1.0777         C3-H10=1.0783        
C4-C2=1.4963         C4-C3=1.5017         C4-H11=1.0777        C4-H12=1.0782        H5-N1=1.0285         H6-N1=1.0287         
H7-N1=1.0281         H8-C2=1.0802         H9-C3=1.0777         H10-C3=1.0783        H11-C4=1.0777        H12-C4=1.0782        
 C  H  Rav=1.0784 sigma=0.0009  Rmin=1.0777  Rmax=1.0802     5
 C  C  Rav=1.4981 sigma=0.0025  Rmin=1.4963  Rmax=1.5017     3
 N  H  Rav=1.0285 sigma=0.0003  Rmin=1.0281  Rmax=1.0287     3
 N  C  Rav=1.4701 sigma=0.0000  Rmin=1.4701  Rmax=1.4701     1

 selected bond angles (degree)
 --------------------
H5-N1-C2=110.68                H6-N1-C2=110.66                H6-N1-H5=108.78                H7-N1-C2=109.86                
H7-N1-H5=108.39                H7-N1-H6=108.41                C3-C2-N1=118.02                C4-C2-N1=118.00                
C4-C2-C3= 60.24                H8-C2-N1=113.06                H8-C2-C3=118.97                H8-C2-C4=118.98                
C4-C3-C2= 59.88                H9-C3-C2=118.43                H9-C3-C4=118.83                H10-C3-C2=118.60               
H10-C3-C4=118.10               H10-C3-H9=113.20               C3-C4-C2= 59.88                H11-C4-C2=118.44               
H11-C4-C3=118.82               H12-C4-C2=118.61               H12-C4-C3=118.12               H12-C4-H11=113.18              

 selected dihedral angles (degree)
 ---------------------------------
C3-C2-N1-H5=274.43            C3-C2-N1-H6=153.76            C3-C2-N1-H7= 34.09            C4-C2-N1-H5=205.16            
C4-C2-N1-H6= 84.49            C4-C2-N1-H7=324.82            H8-C2-N1-H5= 59.81            H8-C2-N1-H6=299.14            
H8-C2-N1-H7=179.46            C4-C3-C2-N1=252.05            C4-C3-C2-H8=108.74            H9-C3-C2-N1=143.40            
H9-C3-C2-C4=251.35            H9-C3-C2-H8=  0.09            H10-C3-C2-N1=359.74           H10-C3-C2-C4=107.70           
H10-C3-C2-H8=216.44           C3-C4-C2-N1=107.99            C3-C4-C2-H8=251.27            H11-C4-C2-N1=216.63           
H11-C4-C2-C3=108.64           H11-C4-C2-H8=359.91           H12-C4-C2-N1=  0.28           H12-C4-C2-C3=252.29           
H12-C4-C2-H8=143.56           C2-C4-C3-H9=108.00            C2-C4-C3-H10=251.48           H11-C4-C3-C2=251.99           
H11-C4-C3-H9=  0.00           H11-C4-C3-H10=143.47          H12-C4-C3-C2=108.53           H12-C4-C3-H9=216.52           
H12-C4-C3-H10=  0.00          
           -------------------------------------------------
          |                Final Singlepoint                |
           -------------------------------------------------

          ...................................................
          :                      SETUP                      :
          :.................................................:
          :  # basis functions                  24          :
          :  # atomic orbitals                  24          :
          :  # shells                           16          :
          :  # electrons                        24          :
          :  max. iterations                   250          :
          :  Hamiltonian                  GFN2-xTB          :
          :  restarted?                      false          :
          :  GBSA solvation                   true          :
          :  PC potential                    false          :
          :  electronic temp.          300.0000000     K    :
          :  accuracy                    1.0000000          :
          :  -> integral cutoff          0.2500000E+02      :
          :  -> integral neglect         0.1000000E-07      :
          :  -> SCF convergence          0.1000000E-05 Eh   :
          :  -> wf. convergence          0.1000000E-03 e    :
          :  Broyden damping             0.4000000          :
          ...................................................

 iter      E             dE          RMSdq      gap      omega  full diag
   1    -13.2628819 -0.132629E+02  0.148E-05    9.97       0.0  T
   2    -13.2628819 -0.172307E-12  0.925E-06    9.97    3119.9  T
   3    -13.2628819 -0.444089E-13  0.260E-06    9.97   11122.0  T

   *** convergence criteria satisfied after 3 iterations ***

         #    Occupation            Energy/Eh            Energy/eV
      -------------------------------------------------------------
         1        2.0000           -0.7000611             -19.0496
       ...           ...                  ...                  ...
         6        2.0000           -0.5659812             -15.4011
         7        2.0000           -0.5493985             -14.9499
         8        2.0000           -0.5160742             -14.0431
         9        2.0000           -0.4881435             -13.2831
        10        2.0000           -0.4546451             -12.3715
        11        2.0000           -0.4425739             -12.0430
        12        2.0000           -0.4399531             -11.9717 (HOMO)
        13                         -0.0736201              -2.0033 (LUMO)
        14                         -0.0476758              -1.2973
        15                          0.0474231               1.2904
        16                          0.0971673               2.6441
        17                          0.1133426               3.0842
       ...                                ...                  ...
        24                          0.3451029               9.3907
      -------------------------------------------------------------
                  HL-Gap            0.3663330 Eh            9.9684 eV
             Fermi-level           -0.2567866 Eh           -6.9875 eV

 SCC (total)                   0 d,  0 h,  0 min,  0.005 sec
 SCC setup                      ...        0 min,  0.000 sec (  7.039%)
 Dispersion                     ...        0 min,  0.000 sec (  4.069%)
 classical contributions        ...        0 min,  0.000 sec (  1.827%)
 integral evaluation            ...        0 min,  0.001 sec ( 12.222%)
 iterations                     ...        0 min,  0.002 sec ( 42.164%)
 molecular gradient             ...        0 min,  0.001 sec ( 25.728%)
 printout                       ...        0 min,  0.000 sec (  2.305%)

         :::::::::::::::::::::::::::::::::::::::::::::::::::::
         ::                     SUMMARY                     ::
         :::::::::::::::::::::::::::::::::::::::::::::::::::::
         :: total energy             -13.062676032628 Eh    ::
         :: total w/o Gsasa/hb       -13.051428596295 Eh    ::
         :: gradient norm              0.000306426817 Eh/a0 ::
         :: HOMO-LUMO gap              9.968427209278 eV    ::
         ::.................................................::
         :: SCC energy               -13.262881925998 Eh    ::
         :: -> isotropic ES            0.121865675575 Eh    ::
         :: -> anisotropic ES         -0.012387220607 Eh    ::
         :: -> anisotropic XC          0.010905088482 Eh    ::
         :: -> dispersion             -0.004222843304 Eh    ::
         :: -> Gsolv                  -0.115783361837 Eh    ::
         ::    -> Gelec               -0.104535925504 Eh    ::
         ::    -> Gsasa               -0.000810461153 Eh    ::
         ::    -> Ghb                 -0.011517734878 Eh    ::
         ::    -> Gshift               0.001080759698 Eh    ::
         :: repulsion energy           0.200202566344 Eh    ::
         :: add. restraining           0.000000000000 Eh    ::
         :: total charge               1.000000000000 e     ::
         :::::::::::::::::::::::::::::::::::::::::::::::::::::

           -------------------------------------------------
          |                Property Printout                |
           -------------------------------------------------

    * Orbital Energies and Occupations

         #    Occupation            Energy/Eh            Energy/eV
      -------------------------------------------------------------
         1        2.0000           -0.7000611             -19.0496
         2        2.0000           -0.6664593             -18.1353
         3        2.0000           -0.6217560             -16.9188
         4        2.0000           -0.5972292             -16.2514
         5        2.0000           -0.5913050             -16.0902
         6        2.0000           -0.5659812             -15.4011
         7        2.0000           -0.5493985             -14.9499
         8        2.0000           -0.5160742             -14.0431
         9        2.0000           -0.4881435             -13.2831
        10        2.0000           -0.4546451             -12.3715
        11        2.0000           -0.4425739             -12.0430
        12        2.0000           -0.4399531             -11.9717 (HOMO)
        13                         -0.0736201              -2.0033 (LUMO)
        14                         -0.0476758              -1.2973
        15                          0.0474231               1.2904
        16                          0.0971673               2.6441
        17                          0.1133426               3.0842
        18                          0.1284495               3.4953
        19                          0.1587053               4.3186
        20                          0.1764415               4.8012
        21                          0.2707876               7.3685
        22                          0.2901089               7.8943
        23                          0.3285845               8.9412
        24                          0.3451029               9.3907
      -------------------------------------------------------------
                  HL-Gap            0.3663330 Eh            9.9684 eV
             Fermi-level           -0.2567866 Eh           -6.9875 eV

     #   Z          covCN         q      C6AA      α(0)
     1   7 N        3.484    -0.165    24.548     7.359
     2   6 C        3.786     0.022    20.214     6.404
     3   6 C        3.806    -0.091    22.225     6.711
     4   6 C        3.806    -0.091    22.226     6.711
     5   1 H        0.859     0.319     0.661     1.273
     6   1 H        0.859     0.319     0.660     1.273
     7   1 H        0.859     0.309     0.687     1.298
     8   1 H        0.926     0.100     1.785     2.089
     9   1 H        0.926     0.063     2.169     2.303
    10   1 H        0.926     0.076     2.018     2.222
    11   1 H        0.926     0.063     2.170     2.303
    12   1 H        0.926     0.076     2.018     2.221

 Mol. C6AA /au·bohr⁶  :        807.358925
 Mol. C8AA /au·bohr⁸  :      17236.507053
 Mol. α(0) /au        :         42.168845


Wiberg/Mayer (AO) data.
largest (>0.10) Wiberg bond orders for each atom

 ---------------------------------------------------------------------------
     #   Z sym  total        # sym  WBO       # sym  WBO       # sym  WBO
 ---------------------------------------------------------------------------
     1   7 N    3.651 --     2 C    0.965     7 H    0.887     5 H    0.882
                             6 H    0.882
     2   6 C    3.887 --     3 C    0.976     4 C    0.976     1 N    0.965
                             8 H    0.961
     3   6 C    3.941 --     4 C    0.987     9 H    0.977     2 C    0.976
                            10 H    0.973
     4   6 C    3.941 --     3 C    0.987    11 H    0.977     2 C    0.976
                            12 H    0.973
     5   1 H    0.899 --     1 N    0.882
     6   1 H    0.898 --     1 N    0.882
     7   1 H    0.904 --     1 N    0.887
     8   1 H    0.990 --     2 C    0.961
     9   1 H    0.996 --     3 C    0.977
    10   1 H    0.994 --     3 C    0.973
    11   1 H    0.996 --     4 C    0.977
    12   1 H    0.994 --     4 C    0.973
 ---------------------------------------------------------------------------

Topologies differ in total number of bonds
Writing topology from bond orders to xtbtopo.mol

molecular dipole:
                 x           y           z       tot (Debye)
 q only:        2.197      -0.071      -0.469
   full:        2.103      -0.071      -0.461       5.475
molecular quadrupole (traceless):
                xx          xy          yy          xz          yz          zz
 q only:        6.171      -0.204      -3.527      -2.204       0.016      -2.643
  q+dip:        5.424      -0.276      -3.599      -0.886      -0.055      -1.825
   full:        5.682      -0.248      -3.558      -1.323      -0.029      -2.125

           -------------------------------------------------
          |                Geometry Summary                 |
           -------------------------------------------------

      molecular mass/u    :       58.1024369
   center of mass at/Å    :        2.4532360      -0.0215602      -0.6021307
  moments of inertia/u·Å² :        0.3209622E+02   0.8015688E+02   0.9086132E+02
rotational constants/cm⁻¹ :        0.5252218E+00   0.2103080E+00   0.1855314E+00

 * 12 selected distances

     #   Z          #   Z                                           value/Å
     1   7 N        2   6 C                                       1.4701200
     2   6 C        3   6 C                                       1.4963313
     2   6 C        4   6 C                                       1.4963265
     3   6 C        4   6 C                                       1.5016665 (max)
     1   7 N        5   1 H                                       1.0285341
     1   7 N        6   1 H                                       1.0287456
     1   7 N        7   1 H                                       1.0280772 (min)
     2   6 C        8   1 H                                       1.0801658
     3   6 C        9   1 H                                       1.0776764
     3   6 C       10   1 H                                       1.0783117
     4   6 C       11   1 H                                       1.0776629
     4   6 C       12   1 H                                       1.0782292

 * 4 distinct bonds (by element types)

   Z      Z             #   av. dist./Å        max./Å        min./Å
   1 H    6 C           5     1.0784092     1.0801658     1.0776629
   6 C    6 C           3     1.4981081     1.5016665     1.4963265
   1 H    7 N           3     1.0284523     1.0287456     1.0280772
   6 C    7 N           1     1.4701200     1.4701200     1.4701200


optimized geometry written to: xtbopt.xyz


           -------------------------------------------------
          | TOTAL ENERGY              -13.062676032628 Eh   |
          | GRADIENT NORM               0.000306426817 Eh/α |
          | HOMO-LUMO GAP               9.968427209278 eV   |
           -------------------------------------------------

------------------------------------------------------------------------
 * finished run on 2023/01/24 at 14:55:52.340     
------------------------------------------------------------------------
 total:
 * wall-time:     0 d,  0 h,  0 min,  0.116 sec
 *  cpu-time:     0 d,  0 h,  0 min, 15.971 sec
 * ratio c/w:   138.097 speedup
 SCF:
 * wall-time:     0 d,  0 h,  0 min,  0.010 sec
 *  cpu-time:     0 d,  0 h,  0 min,  1.324 sec
 * ratio c/w:   138.717 speedup
 ANC optimizer:
 * wall-time:     0 d,  0 h,  0 min,  0.086 sec
 *  cpu-time:     0 d,  0 h,  0 min, 11.928 sec
 * ratio c/w:   139.058 speedup

