      -----------------------------------------------------------      
     |                   =====================                   |     
     |                           x T B                           |     
     |                   =====================                   |     
     |                         S. Grimme                         |     
     |          Mulliken Center for Theoretical Chemistry        |     
     |                    University of Bonn                     |     
      -----------------------------------------------------------      

   * xtb version 6.5.1 (fef0646) compiled by 'conda@b96dff2e9fd6' on 2023-01-04

   xtb is free software: you can redistribute it and/or modify it under
   the terms of the GNU Lesser General Public License as published by
   the Free Software Foundation, either version 3 of the License, or
   (at your option) any later version.
   
   xtb is distributed in the hope that it will be useful,
   but WITHOUT ANY WARRANTY; without even the implied warranty of
   MERCHANTABILITY or FITNESS FOR A PARTICULAR PURPOSE.  See the
   GNU Lesser General Public License for more details.
   
   Cite this work as:
   * C. Bannwarth, E. Caldeweyher, S. Ehlert, A. Hansen, P. Pracht,
     J. Seibert, S. Spicher, S. Grimme, WIREs Comput. Mol. Sci., 2020, 11,
     e01493. DOI: 10.1002/wcms.1493
   
   for GFN2-xTB:
   * C. Bannwarth, S. Ehlert and S. Grimme., J. Chem. Theory Comput., 2019,
     15, 1652-1671. DOI: 10.1021/acs.jctc.8b01176
   for GFN1-xTB:
   * S. Grimme, C. Bannwarth, P. Shushkov, J. Chem. Theory Comput., 2017,
     13, 1989-2009. DOI: 10.1021/acs.jctc.7b00118
   for GFN0-xTB:
   * P. Pracht, E. Caldeweyher, S. Ehlert, S. Grimme, ChemRxiv, 2019, preprint.
     DOI: 10.26434/chemrxiv.8326202.v1
   for GFN-FF:
   * S. Spicher and S. Grimme, Angew. Chem. Int. Ed., 2020, 59, 15665-15673.
     DOI: 10.1002/anie.202004239
   
   for ALPB and GBSA implicit solvation:
   * S. Ehlert, M. Stahn, S. Spicher, S. Grimme, J. Chem. Theory Comput.,
     2021, 17, 4250-4261. DOI: 10.1021/acs.jctc.1c00471
   
   for DFT-D4:
   * E. Caldeweyher, C. Bannwarth and S. Grimme, J. Chem. Phys., 2017,
     147, 034112. DOI: 10.1063/1.4993215
   * E. Caldeweyher, S. Ehlert, A. Hansen, H. Neugebauer, S. Spicher,
     C. Bannwarth and S. Grimme, J. Chem. Phys., 2019, 150, 154122.
     DOI: 10.1063/1.5090222
   * E. Caldeweyher, J.-M. Mewes, S. Ehlert and S. Grimme, Phys. Chem. Chem. Phys.
     2020, 22, 8499-8512. DOI: 10.1039/D0CP00502A
   
   for sTDA-xTB:
   * S. Grimme and C. Bannwarth, J. Chem. Phys., 2016, 145, 054103.
     DOI: 10.1063/1.4959605
   
   in the mass-spec context:
   * V. Asgeirsson, C. Bauer and S. Grimme, Chem. Sci., 2017, 8, 4879.
     DOI: 10.1039/c7sc00601b
   * J. Koopman and S. Grimme, ACS Omega 2019, 4, 12, 15120-15133.
     DOI: 10.1021/acsomega.9b02011
   
   for metadynamics refer to:
   * S. Grimme, J. Chem. Theory Comput., 2019, 155, 2847-2862
     DOI: 10.1021/acs.jctc.9b00143
   
   for SPH calculations refer to:
   * S. Spicher and S. Grimme, J. Chem. Theory Comput., 2021, 17, 1701-1714
     DOI: 10.1021/acs.jctc.0c01306
   
   with help from (in alphabetical order)
   P. Atkinson, C. Bannwarth, F. Bohle, G. Brandenburg, E. Caldeweyher
   M. Checinski, S. Dohm, S. Ehlert, S. Ehrlich, I. Gerasimov, C. Hölzer
   A. Katbashev, J. Koopman, C. Lavigne, S. Lehtola, F. März, M. Müller,
   F. Musil, H. Neugebauer, J. Pisarek, C. Plett, P. Pracht, F. Pultar,
   J. Seibert, P. Shushkov, S. Spicher, M. Stahn, M. Steiner, T. Strunk,
   J. Stückrath, T. Rose, and J. Unsleber
   
 * started run on 2023/01/24 at 14:55:51.946     

           -------------------------------------------------
          |                Calculation Setup                |
           -------------------------------------------------

          program call               : xtb init.xyz --opt -c 0 -u 0 -P 16 --alpb water
          hostname                   : gpg-woodward
          coordinate file            : init.xyz
          omp threads                :                    16

   ID    Z sym.   atoms
    1    7 N      1
    2    6 C      2-4
    3   17 Cl     5
    4    1 H      6-13

molecular fragmentation (1/2 indicates fragments):
1111211111111
# atoms in fragment 1/2:    12     1
 fragment masses (1/2) :       58.10       35.45
CMA distance (Bohr)    :   7.041
constraining FC (au)   :  0.0500

           -------------------------------------------------
          |                 G F N 2 - x T B                 |
           -------------------------------------------------

        Reference                      10.1021/acs.jctc.8b01176
      * Hamiltonian:
        H0-scaling (s, p, d)           1.850000    2.230000    2.230000
        zeta-weighting                 0.500000
      * Dispersion:
        s8                             2.700000
        a1                             0.520000
        a2                             5.000000
        s9                             5.000000
      * Repulsion:
        kExp                           1.500000    1.000000
        rExp                           1.000000
      * Coulomb:
        alpha                          2.000000
        third order                    shell-resolved
        anisotropic                    true
        a3                             3.000000
        a5                             4.000000
        cn-shift                       1.200000
        cn-exp                         4.000000
        max-rad                        5.000000

      * Solvation model:               ALPB
        Solvent                        water
        Parameter file                 internal GFN2-xTB/ALPB
        Dielectric constant                8.0200E+01
        Reference state                gsolv [1 M gas/solution]
        Free energy shift                  1.0808E-03 Eh       6.7819E-01 kcal/mol
        Temperature                        2.9815E+02 K
        Density                            1.0000E+00 kg/L
        Solvent mass                       1.8000E+01 g/mol
        Interaction kernel             P16
        Born radius scaling (c1)           1.4744E+00
        Born radii integrator          GBOBC
        Born offset                        0.0000E+00 a0       0.0000E+00 AA
        H-bond correction              true
        Ion screening                  false
        Surface tension                    1.0000E-05 Eh       1.5569E+01 dyn/cm
        Grid points                               230 per atom

          ...................................................
          :                      SETUP                      :
          :.................................................:
          :  # basis functions                  34          :
          :  # atomic orbitals                  33          :
          :  # shells                           19          :
          :  # electrons                        32          :
          :  max. iterations                   250          :
          :  Hamiltonian                  GFN2-xTB          :
          :  restarted?                      false          :
          :  GBSA solvation                   true          :
          :  PC potential                    false          :
          :  electronic temp.          300.0000000     K    :
          :  accuracy                    1.0000000          :
          :  -> integral cutoff          0.2500000E+02      :
          :  -> integral neglect         0.1000000E-07      :
          :  -> SCF convergence          0.1000000E-05 Eh   :
          :  -> wf. convergence          0.1000000E-03 e    :
          :  Broyden damping             0.4000000          :
          ...................................................

 iter      E             dE          RMSdq      gap      omega  full diag
   1    -18.0859857 -0.180860E+02  0.388E+00    9.31       0.0  T
   2    -18.1582206 -0.722349E-01  0.211E+00    9.20       1.0  T
   3    -18.1620839 -0.386329E-02  0.125E+00    8.99       1.0  T
   4    -18.1634967 -0.141276E-02  0.464E-01    9.06       1.0  T
   5    -18.1640203 -0.523636E-03  0.341E-01    9.10       1.0  T
   6    -18.1645048 -0.484521E-03  0.153E-01    9.13       1.0  T
   7    -18.1646220 -0.117163E-03  0.485E-02    9.12       1.0  T
   8    -18.1646243 -0.230999E-05  0.910E-03    9.11       3.0  T
   9    -18.1646247 -0.339794E-06  0.332E-03    9.11       8.3  T
  10    -18.1646247 -0.898065E-08  0.175E-03    9.11      15.8  T
  11    -18.1646247 -0.839262E-08  0.732E-04    9.11      37.9  T
  12    -18.1646247 -0.183811E-08  0.290E-04    9.11      95.8  T

   *** convergence criteria satisfied after 12 iterations ***

         #    Occupation            Energy/Eh            Energy/eV
      -------------------------------------------------------------
         1        2.0000           -1.0104237             -27.4950
       ...           ...                  ...                  ...
        10        2.0000           -0.4768811             -12.9766
        11        2.0000           -0.4441567             -12.0861
        12        2.0000           -0.4305367             -11.7155
        13        2.0000           -0.4253161             -11.5734
        14        2.0000           -0.4038545             -10.9894
        15        2.0000           -0.4033446             -10.9756
        16        2.0000           -0.3993439             -10.8667 (HOMO)
        17                         -0.0645809              -1.7573 (LUMO)
        18                         -0.0138496              -0.3769
        19                          0.0859922               2.3400
        20                          0.0932282               2.5369
        21                          0.1106107               3.0099
       ...                                ...                  ...
        33                          0.3455003               9.4015
      -------------------------------------------------------------
                  HL-Gap            0.3347630 Eh            9.1094 eV
             Fermi-level           -0.2319624 Eh           -6.3120 eV

 SCC (total)                   0 d,  0 h,  0 min,  0.013 sec
 SCC setup                      ...        0 min,  0.000 sec (  1.685%)
 Dispersion                     ...        0 min,  0.000 sec (  1.184%)
 classical contributions        ...        0 min,  0.000 sec (  0.366%)
 integral evaluation            ...        0 min,  0.001 sec (  6.153%)
 iterations                     ...        0 min,  0.010 sec ( 77.028%)
 molecular gradient             ...        0 min,  0.001 sec ( 10.725%)
 printout                       ...        0 min,  0.000 sec (  0.977%)

         :::::::::::::::::::::::::::::::::::::::::::::::::::::
         ::                     SUMMARY                     ::
         :::::::::::::::::::::::::::::::::::::::::::::::::::::
         :: total energy             -17.969725067530 Eh    ::
         :: total w/o Gsasa/hb       -17.962940174938 Eh    ::
         :: gradient norm              0.033176464921 Eh/a0 ::
         :: HOMO-LUMO gap              9.109364906754 eV    ::
         ::.................................................::
         :: SCC energy               -18.164624669523 Eh    ::
         :: -> isotropic ES            0.106365230556 Eh    ::
         :: -> anisotropic ES         -0.028652747524 Eh    ::
         :: -> anisotropic XC         -0.000287886111 Eh    ::
         :: -> dispersion             -0.006071359378 Eh    ::
         :: -> Gsolv                  -0.061265212600 Eh    ::
         ::    -> Gelec               -0.054480320009 Eh    ::
         ::    -> Gsasa               -0.000898877764 Eh    ::
         ::    -> Ghb                 -0.006966774526 Eh    ::
         ::    -> Gshift               0.001080759698 Eh    ::
         :: repulsion energy           0.194890622247 Eh    ::
         :: add. restraining           0.000000000000 Eh    ::
         :: total charge               0.000000000000 e     ::
         :::::::::::::::::::::::::::::::::::::::::::::::::::::

      ----------------------------------------------------------- 
     |                   =====================                   |
     |                        A N C O P T                        |
     |                   =====================                   |
     |               Approximate Normal Coordinate               |
     |                Rational Function Optimizer                |
      ----------------------------------------------------------- 

          ...................................................
          :                      SETUP                      :
          :.................................................:
          :   optimization level            normal          :
          :   max. optcycles                   200          :
          :   ANC micro-cycles                  20          :
          :   degrees of freedom                33          :
          :.................................................:
          :   RF solver                   davidson          :
          :   write xtbopt.log                true          :
          :   linear?                        false          :
          :   energy convergence         0.5000000E-05 Eh   :
          :   grad. convergence          0.1000000E-02 Eh/α :
          :   maximium RF displ.         1.0000000          :
          :   Hlow (freq-cutoff)         0.1000000E-01      :
          :   Hmax (freq-cutoff)         5.0000000          :
          :   S6 in model hess.         20.0000000          :
          ...................................................

generating ANC from model Hessian ...
Using Lindh-Hessian (1995)
 Shifting diagonal of input Hessian by    8.9191203789729598E-003
 Lowest  eigenvalues of input Hessian
    0.000000    0.000000    0.000000    0.000000    0.000000    0.000000
    0.010000    0.010241    0.021183    0.026403    0.031161    0.037046
    0.047575    0.050517    0.055517    0.060892    0.094998    0.106414
 Highest eigenvalues
    1.200205    1.233799    1.329086    1.465433    1.640452    1.867949


........................................................................
.............................. CYCLE    1 ..............................
........................................................................
   1    -18.1646247 -0.181646E+02  0.165E-04    9.11       0.0  T
   2    -18.1646247 -0.280096E-10  0.125E-04    9.11     221.5  T
   3    -18.1646247 -0.449525E-10  0.511E-05    9.11     543.2  T
     SCC iter.                  ...        0 min,  0.003 sec
     gradient                   ...        0 min,  0.001 sec
 * total energy  :   -17.9697251 Eh     change       -0.2539089E-09 Eh
   gradient norm :     0.0331768 Eh/α   predicted     0.0000000E+00 (-100.00%)
   displ. norm   :     0.4341632 α      lambda       -0.7328772E-02
   maximum displ.:     0.2531894 α      in ANC's #2, #6, #3, ...

........................................................................
.............................. CYCLE    2 ..............................
........................................................................
   1    -18.1711103 -0.181711E+02  0.253E-01    9.16       0.0  T
   2    -18.1711831 -0.728504E-04  0.139E-01    9.15       1.0  T
   3    -18.1711897 -0.654665E-05  0.440E-02    9.13       1.0  T
   4    -18.1711915 -0.180117E-05  0.166E-02    9.13       1.7  T
   5    -18.1711922 -0.707968E-06  0.114E-02    9.13       2.4  T
   6    -18.1711926 -0.410693E-06  0.553E-03    9.13       5.0  T
   7    -18.1711927 -0.123039E-06  0.213E-03    9.13      13.0  T
   8    -18.1711927 -0.140717E-07  0.306E-04    9.13      90.6  T
   9    -18.1711927 -0.105135E-09  0.111E-04    9.13     249.9  T
     SCC iter.                  ...        0 min,  0.007 sec
     gradient                   ...        0 min,  0.001 sec
 * total energy  :   -17.9737096 Eh     change       -0.3984558E-02 Eh
   gradient norm :     0.0262023 Eh/α   predicted    -0.4355120E-02 (   9.30%)
   displ. norm   :     0.1835064 α      lambda       -0.1390118E-02
   maximum displ.:     0.1539876 α      in ANC's #2, #3, #1, ...

........................................................................
.............................. CYCLE    3 ..............................
........................................................................
   1    -18.1733237 -0.181733E+02  0.102E-01    9.15       0.0  T
   2    -18.1733301 -0.642328E-05  0.584E-02    9.14       1.0  T
   3    -18.1733313 -0.116348E-05  0.172E-02    9.14       1.6  T
   4    -18.1733322 -0.970714E-06  0.953E-03    9.14       2.9  T
   5    -18.1733325 -0.229820E-06  0.524E-03    9.14       5.3  T
   6    -18.1733326 -0.108454E-06  0.232E-03    9.13      12.0  T
   7    -18.1733326 -0.175248E-07  0.510E-04    9.13      54.4  T
   8    -18.1733326 -0.826436E-09  0.203E-04    9.13     136.5  T
     SCC iter.                  ...        0 min,  0.006 sec
     gradient                   ...        0 min,  0.001 sec
 * total energy  :   -17.9746953 Eh     change       -0.9856417E-03 Eh
   gradient norm :     0.0140897 Eh/α   predicted    -0.7184640E-03 ( -27.11%)
   displ. norm   :     0.2279007 α      lambda       -0.7254652E-03
   maximum displ.:     0.2038502 α      in ANC's #2, #1, #6, ...

........................................................................
.............................. CYCLE    4 ..............................
........................................................................
   1    -18.1742188 -0.181742E+02  0.900E-02    9.15       0.0  T
   2    -18.1742224 -0.368314E-05  0.540E-02    9.14       1.0  T
   3    -18.1742243 -0.180915E-05  0.166E-02    9.14       1.7  T
   4    -18.1742250 -0.697734E-06  0.122E-02    9.14       2.3  T
   5    -18.1742255 -0.540323E-06  0.471E-03    9.14       5.9  T
   6    -18.1742256 -0.778438E-07  0.190E-03    9.14      14.6  T
   7    -18.1742256 -0.720450E-08  0.369E-04    9.14      75.2  T
   8    -18.1742256 -0.365503E-09  0.183E-04    9.14     151.9  T
     SCC iter.                  ...        0 min,  0.006 sec
     gradient                   ...        0 min,  0.001 sec
 * total energy  :   -17.9751996 Eh     change       -0.5042977E-03 Eh
   gradient norm :     0.0073236 Eh/α   predicted    -0.3815759E-03 ( -24.34%)
   displ. norm   :     0.2442759 α      lambda       -0.4263819E-03
   maximum displ.:     0.2213166 α      in ANC's #2, #6, #1, ...

........................................................................
.............................. CYCLE    5 ..............................
........................................................................
   1    -18.1745645 -0.181746E+02  0.737E-02    9.15       0.0  T
   2    -18.1745672 -0.270686E-05  0.470E-02    9.15       1.0  T
   3    -18.1745697 -0.243124E-05  0.172E-02    9.15       1.6  T
   4    -18.1745703 -0.624748E-06  0.123E-02    9.15       2.3  T
   5    -18.1745708 -0.536963E-06  0.513E-03    9.15       5.4  T
   6    -18.1745709 -0.102748E-06  0.145E-03    9.15      19.2  T
   7    -18.1745709 -0.229927E-08  0.300E-04    9.15      92.3  T
   8    -18.1745709 -0.184109E-09  0.118E-04    9.15     234.6  T
     SCC iter.                  ...        0 min,  0.006 sec
     gradient                   ...        0 min,  0.001 sec
 * total energy  :   -17.9755140 Eh     change       -0.3144457E-03 Eh
   gradient norm :     0.0083235 Eh/α   predicted    -0.2259127E-03 ( -28.16%)
   displ. norm   :     0.2225011 α      lambda       -0.3327032E-03
   maximum displ.:     0.1876328 α      in ANC's #2, #6, #1, ...

........................................................................
.............................. CYCLE    6 ..............................
........................................................................
   1    -18.1750209 -0.181750E+02  0.625E-02    9.16       0.0  T
   2    -18.1750237 -0.276802E-05  0.410E-02    9.16       1.0  T
   3    -18.1750258 -0.216558E-05  0.167E-02    9.16       1.7  T
   4    -18.1750266 -0.728480E-06  0.106E-02    9.16       2.6  T
   5    -18.1750269 -0.383248E-06  0.365E-03    9.16       7.6  T
   6    -18.1750270 -0.622060E-07  0.899E-04    9.16      30.8  T
   7    -18.1750270 -0.105011E-08  0.360E-04    9.16      77.0  T
     SCC iter.                  ...        0 min,  0.005 sec
     gradient                   ...        0 min,  0.001 sec
 * total energy  :   -17.9757938 Eh     change       -0.2797770E-03 Eh
   gradient norm :     0.0084520 Eh/α   predicted    -0.1745867E-03 ( -37.60%)
   displ. norm   :     0.3537644 α      lambda       -0.4520075E-03
   maximum displ.:     0.2917921 α      in ANC's #2, #6, #1, ...

........................................................................
.............................. CYCLE    7 ..............................
........................................................................
   1    -18.1747750 -0.181748E+02  0.950E-02    9.17       0.0  T
   2    -18.1747815 -0.645143E-05  0.646E-02    9.17       1.0  T
   3    -18.1747880 -0.645764E-05  0.267E-02    9.17       1.0  T
   4    -18.1747899 -0.192174E-05  0.171E-02    9.17       1.6  T
   5    -18.1747908 -0.962079E-06  0.673E-03    9.17       4.1  T
   6    -18.1747910 -0.201391E-06  0.120E-03    9.17      23.1  T
   7    -18.1747910 -0.106616E-08  0.479E-04    9.17      57.9  T
   8    -18.1747910 -0.130683E-09  0.114E-04    9.17     243.0  T
     SCC iter.                  ...        0 min,  0.006 sec
     gradient                   ...        0 min,  0.001 sec
 * total energy  :   -17.9761213 Eh     change       -0.3275369E-03 Eh
   gradient norm :     0.0074355 Eh/α   predicted    -0.2542820E-03 ( -22.37%)
   displ. norm   :     0.2649367 α      lambda       -0.2158477E-03
   maximum displ.:     0.2158054 α      in ANC's #2, #6, #1, ...

........................................................................
.............................. CYCLE    8 ..............................
........................................................................
   1    -18.1746444 -0.181746E+02  0.709E-02    9.18       0.0  T
   2    -18.1746477 -0.326800E-05  0.486E-02    9.18       1.0  T
   3    -18.1746517 -0.397371E-05  0.198E-02    9.18       1.4  T
   4    -18.1746528 -0.111215E-05  0.119E-02    9.18       2.3  T
   5    -18.1746533 -0.502297E-06  0.357E-03    9.17       7.8  T
   6    -18.1746533 -0.580028E-07  0.804E-04    9.18      34.5  T
   7    -18.1746533 -0.281204E-09  0.208E-04    9.18     133.5  T
     SCC iter.                  ...        0 min,  0.005 sec
     gradient                   ...        0 min,  0.001 sec
 * total energy  :   -17.9762632 Eh     change       -0.1418626E-03 Eh
   gradient norm :     0.0052836 Eh/α   predicted    -0.1154986E-03 ( -18.58%)
   displ. norm   :     0.1354345 α      lambda       -0.8083200E-04
   maximum displ.:     0.1051770 α      in ANC's #2, #6, #3, ...

........................................................................
.............................. CYCLE    9 ..............................
........................................................................
   1    -18.1750500 -0.181750E+02  0.385E-02    9.19       0.0  T
   2    -18.1750507 -0.733552E-06  0.254E-02    9.19       1.1  T
   3    -18.1750516 -0.878322E-06  0.953E-03    9.19       2.9  T
   4    -18.1750519 -0.279034E-06  0.504E-03    9.19       5.5  T
   5    -18.1750520 -0.989550E-07  0.110E-03    9.19      25.3  T
   6    -18.1750520 -0.425586E-08  0.484E-04    9.19      57.3  T
   7    -18.1750520 -0.165301E-09  0.706E-05    9.19     392.9  T
     SCC iter.                  ...        0 min,  0.005 sec
     gradient                   ...        0 min,  0.001 sec
 * total energy  :   -17.9763233 Eh     change       -0.6011108E-04 Eh
   gradient norm :     0.0031310 Eh/α   predicted    -0.4115564E-04 ( -31.53%)
   displ. norm   :     0.1853506 α      lambda       -0.7375167E-04
   maximum displ.:     0.1448476 α      in ANC's #2, #3, #6, ...

........................................................................
.............................. CYCLE   10 ..............................
........................................................................
   1    -18.1749746 -0.181750E+02  0.511E-02    9.19       0.0  T
   2    -18.1749757 -0.106481E-05  0.335E-02    9.19       1.0  T
   3    -18.1749771 -0.139253E-05  0.119E-02    9.19       2.3  T
   4    -18.1749775 -0.433657E-06  0.622E-03    9.19       4.5  T
   5    -18.1749776 -0.154246E-06  0.151E-03    9.19      18.3  T
   6    -18.1749776 -0.754261E-08  0.650E-04    9.19      42.6  T
   7    -18.1749776 -0.234007E-09  0.975E-05    9.19     284.4  T
     SCC iter.                  ...        0 min,  0.005 sec
     gradient                   ...        0 min,  0.001 sec
 * total energy  :   -17.9763753 Eh     change       -0.5197112E-04 Eh
   gradient norm :     0.0026316 Eh/α   predicted    -0.3814150E-04 ( -26.61%)
   displ. norm   :     0.1682585 α      lambda       -0.6298362E-04
   maximum displ.:     0.1103247 α      in ANC's #2, #3, #1, ...

........................................................................
.............................. CYCLE   11 ..............................
........................................................................
   1    -18.1750831 -0.181751E+02  0.466E-02    9.20       0.0  T
   2    -18.1750837 -0.579823E-06  0.293E-02    9.20       1.0  T
   3    -18.1750844 -0.661086E-06  0.846E-03    9.20       3.3  T
   4    -18.1750845 -0.150013E-06  0.603E-03    9.20       4.6  T
   5    -18.1750847 -0.142800E-06  0.194E-03    9.20      14.3  T
   6    -18.1750847 -0.144533E-07  0.608E-04    9.20      45.6  T
   7    -18.1750847 -0.244256E-09  0.141E-04    9.20     196.8  T
     SCC iter.                  ...        0 min,  0.005 sec
     gradient                   ...        0 min,  0.001 sec
 * total energy  :   -17.9764262 Eh     change       -0.5097546E-04 Eh
   gradient norm :     0.0038696 Eh/α   predicted    -0.3238459E-04 ( -36.47%)
   displ. norm   :     0.3263123 α      lambda       -0.1217383E-03
   maximum displ.:     0.1870051 α      in ANC's #2, #3, #1, ...

........................................................................
.............................. CYCLE   12 ..............................
........................................................................
   1    -18.1742657 -0.181743E+02  0.892E-02    9.20       0.0  T
   2    -18.1742676 -0.192067E-05  0.555E-02    9.20       1.0  T
   3    -18.1742694 -0.182231E-05  0.143E-02    9.20       1.9  T
   4    -18.1742699 -0.406788E-06  0.106E-02    9.20       2.6  T
   5    -18.1742702 -0.386394E-06  0.485E-03    9.20       5.7  T
   6    -18.1742703 -0.101485E-06  0.107E-03    9.20      26.0  T
   7    -18.1742703 -0.938162E-09  0.362E-04    9.20      76.5  T
   8    -18.1742703 -0.187104E-09  0.940E-05    9.20     295.0  T
     SCC iter.                  ...        0 min,  0.005 sec
     gradient                   ...        0 min,  0.001 sec
 * total energy  :   -17.9765086 Eh     change       -0.8232503E-04 Eh
   gradient norm :     0.0067335 Eh/α   predicted    -0.6734780E-04 ( -18.19%)
   displ. norm   :     0.1949955 α      lambda       -0.1049368E-03
   maximum displ.:     0.1131407 α      in ANC's #1, #3, #4, ...

........................................................................
.............................. CYCLE   13 ..............................
........................................................................
   1    -18.1744613 -0.181745E+02  0.506E-02    9.21       0.0  T
   2    -18.1744616 -0.322132E-06  0.307E-02    9.21       1.0  T
   3    -18.1744618 -0.268252E-06  0.562E-03    9.21       4.9  T
   4    -18.1744619 -0.605924E-07  0.438E-03    9.21       6.3  T
   5    -18.1744620 -0.703317E-07  0.166E-03    9.21      16.7  T
   6    -18.1744620 -0.106047E-07  0.658E-04    9.21      42.1  T
   7    -18.1744620 -0.585995E-09  0.151E-04    9.21     183.9  T
     SCC iter.                  ...        0 min,  0.004 sec
     gradient                   ...        0 min,  0.001 sec
 * total energy  :   -17.9765893 Eh     change       -0.8071408E-04 Eh
   gradient norm :     0.0075152 Eh/α   predicted    -0.5446451E-04 ( -32.52%)
   displ. norm   :     0.2061048 α      lambda       -0.1865192E-03
   maximum displ.:     0.1480649 α      in ANC's #1, #4, #3, ...

........................................................................
.............................. CYCLE   14 ..............................
........................................................................
   1    -18.1754477 -0.181754E+02  0.504E-02    9.22       0.0  T
   2    -18.1754482 -0.520513E-06  0.314E-02    9.22       1.0  T
   3    -18.1754488 -0.602299E-06  0.808E-03    9.22       3.4  T
   4    -18.1754490 -0.127186E-06  0.591E-03    9.22       4.7  T
   5    -18.1754491 -0.146813E-06  0.151E-03    9.22      18.4  T
   6    -18.1754491 -0.485208E-08  0.457E-04    9.22      60.6  T
   7    -18.1754491 -0.388368E-09  0.123E-04    9.22     225.6  T
     SCC iter.                  ...        0 min,  0.004 sec
     gradient                   ...        0 min,  0.001 sec
 * total energy  :   -17.9767360 Eh     change       -0.1467287E-03 Eh
   gradient norm :     0.0046652 Eh/α   predicted    -0.9722104E-04 ( -33.74%)
   displ. norm   :     0.3176281 α      lambda       -0.2130120E-03
   maximum displ.:     0.2339998 α      in ANC's #1, #4, #3, ...

........................................................................
.............................. CYCLE   15 ..............................
........................................................................
   1    -18.1743726 -0.181744E+02  0.775E-02    9.21       0.0  T
   2    -18.1743740 -0.134510E-05  0.485E-02    9.21       1.0  T
   3    -18.1743755 -0.149181E-05  0.126E-02    9.21       2.2  T
   4    -18.1743758 -0.310694E-06  0.928E-03    9.21       3.0  T
   5    -18.1743761 -0.343773E-06  0.287E-03    9.21       9.7  T
   6    -18.1743762 -0.300083E-07  0.997E-04    9.21      27.8  T
   7    -18.1743762 -0.792259E-09  0.212E-04    9.21     130.5  T
     SCC iter.                  ...        0 min,  0.004 sec
     gradient                   ...        0 min,  0.001 sec
 * total energy  :   -17.9769000 Eh     change       -0.1639532E-03 Eh
   gradient norm :     0.0045220 Eh/α   predicted    -0.1172542E-03 ( -28.48%)
   displ. norm   :     0.2677947 α      lambda       -0.2163621E-03
   maximum displ.:     0.2008983 α      in ANC's #1, #4, #2, ...

........................................................................
.............................. CYCLE   16 ..............................
........................................................................
   1    -18.1764611 -0.181765E+02  0.585E-02    9.22       0.0  T
   2    -18.1764628 -0.174513E-05  0.380E-02    9.23       1.0  T
   3    -18.1764644 -0.158727E-05  0.139E-02    9.23       2.0  T
   4    -18.1764648 -0.436011E-06  0.101E-02    9.23       2.7  T
   5    -18.1764652 -0.375181E-06  0.389E-03    9.23       7.1  T
   6    -18.1764653 -0.595138E-07  0.743E-04    9.23      37.3  T
   7    -18.1764653 -0.298009E-09  0.126E-04    9.23     220.5  T
     SCC iter.                  ...        0 min,  0.004 sec
     gradient                   ...        0 min,  0.001 sec
 * total energy  :   -17.9770204 Eh     change       -0.1204369E-03 Eh
   gradient norm :     0.0067391 Eh/α   predicted    -0.1159377E-03 (  -3.74%)
   displ. norm   :     0.3100885 α      lambda       -0.1344523E-03
   maximum displ.:     0.2247979 α      in ANC's #1, #4, #3, ...

........................................................................
.............................. CYCLE   17 ..............................
........................................................................
   1    -18.1736222 -0.181736E+02  0.747E-02    9.20       0.0  T
   2    -18.1736244 -0.215564E-05  0.471E-02    9.20       1.0  T
   3    -18.1736260 -0.164377E-05  0.142E-02    9.20       2.0  T
   4    -18.1736264 -0.413160E-06  0.105E-02    9.21       2.6  T
   5    -18.1736268 -0.360259E-06  0.526E-03    9.21       5.3  T
   6    -18.1736269 -0.116430E-06  0.109E-03    9.21      25.5  T
   7    -18.1736269 -0.100724E-08  0.321E-04    9.21      86.3  T
   8    -18.1736269 -0.105221E-09  0.747E-05    9.21     371.0  T
     SCC iter.                  ...        0 min,  0.004 sec
     gradient                   ...        0 min,  0.001 sec
 * total energy  :   -17.9770924 Eh     change       -0.7200172E-04 Eh
   gradient norm :     0.0059568 Eh/α   predicted    -0.7368876E-04 (   2.34%)
   displ. norm   :     0.1090728 α      lambda       -0.1182114E-03
   maximum displ.:     0.0913803 α      in ANC's #1, #6, #4, ...

........................................................................
.............................. CYCLE   18 ..............................
........................................................................
   1    -18.1746429 -0.181746E+02  0.318E-02    9.21       0.0  T
   2    -18.1746434 -0.560719E-06  0.208E-02    9.21       1.3  T
   3    -18.1746440 -0.565856E-06  0.811E-03    9.21       3.4  T
   4    -18.1746441 -0.137301E-06  0.604E-03    9.21       4.6  T
   5    -18.1746443 -0.147100E-06  0.161E-03    9.21      17.2  T
   6    -18.1746443 -0.448434E-08  0.524E-04    9.21      53.0  T
   7    -18.1746443 -0.599240E-09  0.111E-04    9.21     248.9  T
     SCC iter.                  ...        0 min,  0.004 sec
     gradient                   ...        0 min,  0.001 sec
 * total energy  :   -17.9771713 Eh     change       -0.7890417E-04 Eh
   gradient norm :     0.0039071 Eh/α   predicted    -0.5980770E-04 ( -24.20%)
   displ. norm   :     0.2163805 α      lambda       -0.1119692E-03
   maximum displ.:     0.1757815 α      in ANC's #1, #4, #2, ...

........................................................................
.............................. CYCLE   19 ..............................
........................................................................
   1    -18.1759133 -0.181759E+02  0.486E-02    9.22       0.0  T
   2    -18.1759146 -0.124068E-05  0.318E-02    9.23       1.0  T
   3    -18.1759158 -0.126387E-05  0.120E-02    9.23       2.3  T
   4    -18.1759162 -0.321623E-06  0.865E-03    9.23       3.2  T
   5    -18.1759164 -0.290468E-06  0.261E-03    9.23      10.6  T
   6    -18.1759165 -0.250414E-07  0.824E-04    9.23      33.7  T
   7    -18.1759165 -0.428866E-09  0.258E-04    9.23     107.3  T
     SCC iter.                  ...        0 min,  0.004 sec
     gradient                   ...        0 min,  0.001 sec
 * total energy  :   -17.9772445 Eh     change       -0.7319046E-04 Eh
   gradient norm :     0.0029546 Eh/α   predicted    -0.5860730E-04 ( -19.92%)
   displ. norm   :     0.3515573 α      lambda       -0.9161409E-04
   maximum displ.:     0.2960308 α      in ANC's #1, #4, #3, ...

........................................................................
.............................. CYCLE   20 ..............................
........................................................................
   1    -18.1751883 -0.181752E+02  0.779E-02    9.21       0.0  T
   2    -18.1751915 -0.322405E-05  0.517E-02    9.21       1.0  T
   3    -18.1751950 -0.349505E-05  0.191E-02    9.21       1.4  T
   4    -18.1751959 -0.896051E-06  0.129E-02    9.21       2.2  T
   5    -18.1751965 -0.597939E-06  0.460E-03    9.21       6.0  T
   6    -18.1751966 -0.946769E-07  0.101E-03    9.21      27.4  T
   7    -18.1751966 -0.709619E-09  0.325E-04    9.21      85.2  T
   8    -18.1751966 -0.963887E-10  0.797E-05    9.21     347.8  T
     SCC iter.                  ...        0 min,  0.004 sec
     gradient                   ...        0 min,  0.001 sec
 * total energy  :   -17.9773148 Eh     change       -0.7027625E-04 Eh
   gradient norm :     0.0052104 Eh/α   predicted    -0.5146878E-04 ( -26.76%)
   displ. norm   :     0.4033751 α      lambda       -0.1110132E-03
   maximum displ.:     0.3455055 α      in ANC's #1, #4, #3, ...
 * RMSD in coord.:     1.0495184 α      energy gain  -0.7589708E-02 Eh

generating ANC from model Hessian ...
Using Lindh-Hessian (1995)
 Shifting diagonal of input Hessian by    9.7725411079413755E-003
 Lowest  eigenvalues of input Hessian
    0.000000    0.000000    0.000000    0.000000    0.000000    0.000000
    0.010000    0.010733    0.021970    0.026488    0.029177    0.033470
    0.048928    0.053138    0.057566    0.062300    0.093276    0.100027
 Highest eigenvalues
    1.214917    1.330930    1.359208    1.430172    1.548915    1.865037


........................................................................
.............................. CYCLE   21 ..............................
........................................................................
   1    -18.1750120 -0.181750E+02  0.898E-02    9.20       0.0  T
   2    -18.1750161 -0.405500E-05  0.606E-02    9.20       1.0  T
   3    -18.1750214 -0.535196E-05  0.226E-02    9.20       1.2  T
   4    -18.1750229 -0.144020E-05  0.132E-02    9.20       2.1  T
   5    -18.1750235 -0.672930E-06  0.344E-03    9.20       8.1  T
   6    -18.1750236 -0.498259E-07  0.953E-04    9.20      29.1  T
   7    -18.1750236 -0.398007E-09  0.250E-04    9.20     111.0  T
     SCC iter.                  ...        0 min,  0.004 sec
     gradient                   ...        0 min,  0.001 sec
 * total energy  :   -17.9773846 Eh     change       -0.6984284E-04 Eh
   gradient norm :     0.0051751 Eh/α   predicted     0.0000000E+00 (-100.00%)
   displ. norm   :     0.0447232 α      lambda       -0.8336458E-04
   maximum displ.:     0.0277233 α      in ANC's #6, #5, #1, ...

........................................................................
.............................. CYCLE   22 ..............................
........................................................................
   1    -18.1761548 -0.181762E+02  0.278E-02    9.23       0.0  T
   2    -18.1761561 -0.123716E-05  0.156E-02    9.23       1.8  T
   3    -18.1761562 -0.951616E-07  0.601E-03    9.23       4.6  T
   4    -18.1761562 -0.312177E-07  0.212E-03    9.23      13.1  T
   5    -18.1761562 -0.858395E-08  0.157E-03    9.23      17.7  T
   6    -18.1761562 -0.905987E-08  0.669E-04    9.23      41.4  T
   7    -18.1761562 -0.189720E-08  0.207E-04    9.23     134.3  T
     SCC iter.                  ...        0 min,  0.004 sec
     gradient                   ...        0 min,  0.001 sec
 * total energy  :   -17.9774366 Eh     change       -0.5195393E-04 Eh
   gradient norm :     0.0023586 Eh/α   predicted    -0.4176457E-04 ( -19.61%)
   displ. norm   :     0.0305750 α      lambda       -0.1982911E-04
   maximum displ.:     0.0233482 α      in ANC's #1, #2, #6, ...

........................................................................
.............................. CYCLE   23 ..............................
........................................................................
   1    -18.1765838 -0.181766E+02  0.157E-02    9.24       0.0  T
   2    -18.1765839 -0.123535E-06  0.937E-03    9.24       3.0  T
   3    -18.1765840 -0.426951E-07  0.258E-03    9.24      10.7  T
   4    -18.1765840 -0.126269E-07  0.169E-03    9.24      16.4  T
   5    -18.1765840 -0.686797E-08  0.110E-03    9.24      25.3  T
   6    -18.1765840 -0.515739E-08  0.268E-04    9.24     103.6  T
   7    -18.1765840 -0.159453E-09  0.955E-05    9.24     290.6  T
     SCC iter.                  ...        0 min,  0.004 sec
     gradient                   ...        0 min,  0.001 sec
 * total energy  :   -17.9774503 Eh     change       -0.1376958E-04 Eh
   gradient norm :     0.0008049 Eh/α   predicted    -0.9924431E-05 ( -27.92%)
   displ. norm   :     0.0505284 α      lambda       -0.9966914E-05
   maximum displ.:     0.0372183 α      in ANC's #1, #2, #5, ...

........................................................................
.............................. CYCLE   24 ..............................
........................................................................
   1    -18.1765919 -0.181766E+02  0.208E-02    9.25       0.0  T
   2    -18.1765920 -0.838096E-07  0.127E-02    9.25       2.2  T
   3    -18.1765921 -0.906203E-07  0.313E-03    9.25       8.9  T
   4    -18.1765921 -0.217087E-07  0.210E-03    9.25      13.2  T
   5    -18.1765921 -0.180045E-07  0.661E-04    9.25      42.0  T
   6    -18.1765921 -0.142635E-08  0.267E-04    9.25     104.0  T
     SCC iter.                  ...        0 min,  0.003 sec
     gradient                   ...        0 min,  0.001 sec
 * total energy  :   -17.9774584 Eh     change       -0.8082944E-05 Eh
   gradient norm :     0.0012026 Eh/α   predicted    -0.4989409E-05 ( -38.27%)
   displ. norm   :     0.0260398 α      lambda       -0.3441773E-05
   maximum displ.:     0.0184976 α      in ANC's #1, #2, #3, ...

........................................................................
.............................. CYCLE   25 ..............................
........................................................................
   1    -18.1763912 -0.181764E+02  0.696E-03    9.24       0.0  T
   2    -18.1763912 -0.239362E-07  0.443E-03    9.24       6.3  T
   3    -18.1763912 -0.156259E-07  0.146E-03    9.24      19.0  T
   4    -18.1763912 -0.464408E-08  0.104E-03    9.24      26.6  T
   5    -18.1763912 -0.319840E-08  0.594E-04    9.24      46.7  T
   6    -18.1763913 -0.147833E-08  0.920E-05    9.24     301.6  T
     SCC iter.                  ...        0 min,  0.003 sec
     gradient                   ...        0 min,  0.001 sec
 * total energy  :   -17.9774629 Eh     change       -0.4489298E-05 Eh
   gradient norm :     0.0007698 Eh/α   predicted    -0.1721919E-05 ( -61.64%)
   displ. norm   :     0.0675915 α      lambda       -0.7744193E-05
   maximum displ.:     0.0476050 α      in ANC's #1, #2, #4, ...

   *** GEOMETRY OPTIMIZATION CONVERGED AFTER 25 ITERATIONS ***

------------------------------------------------------------------------
 total energy gain   :        -0.0077378 Eh       -4.8556 kcal/mol
 total RMSD          :         1.0756845 a0        0.5692 Å
 total power (kW/mol):        -0.8126286 (step) -112.5638 (real)
------------------------------------------------------------------------

 ANCopt (total)                0 d,  0 h,  0 min,  0.180 sec
 optimizer setup                ...        0 min,  0.000 sec (  0.053%)
 model hessian                  ...        0 min,  0.006 sec (  3.084%)
 ANC generation                 ...        0 min,  0.001 sec (  0.553%)
 coordinate transformation      ...        0 min,  0.001 sec (  0.309%)
 single point calculation       ...        0 min,  0.165 sec ( 91.366%)
 optimization log               ...        0 min,  0.003 sec (  1.426%)
 hessian update                 ...        0 min,  0.001 sec (  0.401%)
 rational function              ...        0 min,  0.002 sec (  1.314%)

================
 final structure:
================
13
 xtb: 6.5.1 (fef0646)
N            1.17673755549272        0.26697819986325       -0.27044199334813
C            2.60023207733445        0.17840929306534        0.05328447663603
C            3.53765401422834        1.13278031958267       -0.61751945457684
C            3.53511404261907       -0.31923355961329       -1.00135091464631
Cl          -0.36510658803885       -2.28970344909037        0.28358374144131
H            0.71308490983567        0.98191674656327        0.29735519346672
H            0.68222872927018       -0.64726615011887       -0.08098575625387
H            1.04282020641087        0.47986135256328       -1.26283577882179
H            2.77170062094064       -0.10757283997526        1.08025971050000
H            4.37104523595965        1.51467851698404       -0.05091863433975
H            3.13025814497797        1.84302971345413       -1.31855939883891
H            4.36188265632668       -0.94099807254942       -0.69990014558097
H            3.11796839464299       -0.59915007072924       -1.95510104563738

 Bond Distances (Angstroems)
 ---------------------------
N1-C2=1.4625         N1-H6=1.0240         N1-H7=1.0565         N1-H8=1.0238         C2-N1=1.4625         C2-C3=1.4965         
C2-C4=1.4946         C2-H9=1.0798         C3-C2=1.4965         C3-C4=1.5019         C3-H10=1.0777        C3-H11=1.0779        
C4-C2=1.4946         C4-C3=1.5019         C4-H12=1.0775        C4-H13=1.0780        H6-N1=1.0240         H7-N1=1.0565         
H8-N1=1.0238         H9-C2=1.0798         H10-C3=1.0777        H11-C3=1.0779        H12-C4=1.0775        H13-C4=1.0780        
 C  H  Rav=1.0782 sigma=0.0008  Rmin=1.0775  Rmax=1.0798     5
 C  C  Rav=1.4977 sigma=0.0031  Rmin=1.4946  Rmax=1.5019     3
 N  H  Rav=1.0348 sigma=0.0154  Rmin=1.0238  Rmax=1.0565     3
 N  C  Rav=1.4625 sigma=0.0000  Rmin=1.4625  Rmax=1.4625     1

 selected bond angles (degree)
 --------------------
H6-N1-C2=111.12                H7-N1-C2=111.31                H7-N1-H6=107.03                H8-N1-C2=110.76                
H8-N1-H6=109.46                H8-N1-H7=107.01                C3-C2-N1=118.15                C4-C2-N1=118.21                
C4-C2-C3= 60.28                H9-C2-N1=112.40                H9-C2-C3=119.72                H9-C2-C4=118.92                
C4-C3-C2= 59.80                H10-C3-C2=118.34               H10-C3-C4=118.57               H11-C3-C2=118.36               
H11-C3-C4=118.05               H11-C3-H10=113.62              C3-C4-C2= 59.92                H12-C4-C2=118.34               
H12-C4-C3=119.02               H13-C4-C2=117.95               H13-C4-C3=118.54               H13-C4-H12=113.24              

 selected dihedral angles (degree)
 ---------------------------------
C3-C2-N1-H6=275.80            C3-C2-N1-H7=156.61            C3-C2-N1-H8= 37.69            C4-C2-N1-H6=206.34            
C4-C2-N1-H7= 87.16            C4-C2-N1-H8=328.23            H9-C2-N1-H6= 61.77            H9-C2-N1-H7=302.59            
H9-C2-N1-H8=183.66            C4-C3-C2-N1=251.82            C4-C3-C2-H9=108.38            H10-C3-C2-N1=143.47           
H10-C3-C2-C4=251.65           H10-C3-C2-H9=  0.03           H11-C3-C2-N1=359.52           H11-C3-C2-C4=107.70           
H11-C3-C2-H9=216.08           C3-C4-C2-N1=108.08            C3-C4-C2-H9=250.32            H12-C4-C2-N1=217.02           
H12-C4-C2-C3=108.94           H12-C4-C2-H9=359.26           H13-C4-C2-N1=359.55           H13-C4-C2-C3=251.47           
H13-C4-C2-H9=141.79           C2-C4-C3-H10=107.97           C2-C4-C3-H11=251.78           H12-C4-C3-C2=252.18           
H12-C4-C3-H10=  0.15          H12-C4-C3-H11=143.96          H13-C4-C3-C2=107.55           H13-C4-C3-H10=215.52          
H13-C4-C3-H11=359.33          

 CMA Distance (Angstroems)
 ---------------------------
R(CMA):  4.0394
           -------------------------------------------------
          |                Final Singlepoint                |
           -------------------------------------------------

          ...................................................
          :                      SETUP                      :
          :.................................................:
          :  # basis functions                  34          :
          :  # atomic orbitals                  33          :
          :  # shells                           19          :
          :  # electrons                        32          :
          :  max. iterations                   250          :
          :  Hamiltonian                  GFN2-xTB          :
          :  restarted?                      false          :
          :  GBSA solvation                   true          :
          :  PC potential                    false          :
          :  electronic temp.          300.0000000     K    :
          :  accuracy                    1.0000000          :
          :  -> integral cutoff          0.2500000E+02      :
          :  -> integral neglect         0.1000000E-07      :
          :  -> SCF convergence          0.1000000E-05 Eh   :
          :  -> wf. convergence          0.1000000E-03 e    :
          :  Broyden damping             0.4000000          :
          ...................................................

 iter      E             dE          RMSdq      gap      omega  full diag
   1    -18.1763913 -0.181764E+02  0.380E-05    9.24       0.0  T
   2    -18.1763913 -0.959233E-12  0.236E-05    9.24    1173.3  T
   3    -18.1763913 -0.138556E-12  0.784E-06    9.24    3537.1  T

   *** convergence criteria satisfied after 3 iterations ***

         #    Occupation            Energy/Eh            Energy/eV
      -------------------------------------------------------------
         1        2.0000           -1.0075592             -27.4171
       ...           ...                  ...                  ...
        10        2.0000           -0.4777447             -13.0001
        11        2.0000           -0.4477593             -12.1842
        12        2.0000           -0.4328922             -11.7796
        13        2.0000           -0.4293408             -11.6830
        14        2.0000           -0.4028367             -10.9617
        15        2.0000           -0.4012429             -10.9184
        16        2.0000           -0.4011972             -10.9171 (HOMO)
        17                         -0.0615112              -1.6738 (LUMO)
        18                         -0.0220151              -0.5991
        19                          0.0727380               1.9793
        20                          0.0962079               2.6180
        21                          0.1132193               3.0809
       ...                                ...                  ...
        33                          0.3535048               9.6194
      -------------------------------------------------------------
                  HL-Gap            0.3396859 Eh            9.2433 eV
             Fermi-level           -0.2313542 Eh           -6.2955 eV

 SCC (total)                   0 d,  0 h,  0 min,  0.003 sec
 SCC setup                      ...        0 min,  0.000 sec (  4.210%)
 Dispersion                     ...        0 min,  0.000 sec (  2.248%)
 classical contributions        ...        0 min,  0.000 sec (  0.924%)
 integral evaluation            ...        0 min,  0.000 sec ( 13.325%)
 iterations                     ...        0 min,  0.002 sec ( 51.981%)
 molecular gradient             ...        0 min,  0.001 sec ( 23.334%)
 printout                       ...        0 min,  0.000 sec (  1.876%)

         :::::::::::::::::::::::::::::::::::::::::::::::::::::
         ::                     SUMMARY                     ::
         :::::::::::::::::::::::::::::::::::::::::::::::::::::
         :: total energy             -17.977462914462 Eh    ::
         :: total w/o Gsasa/hb       -17.970696626301 Eh    ::
         :: gradient norm              0.000769935181 Eh/a0 ::
         :: HOMO-LUMO gap              9.243325161669 eV    ::
         ::.................................................::
         :: SCC energy               -18.176391251384 Eh    ::
         :: -> isotropic ES            0.116637853589 Eh    ::
         :: -> anisotropic ES         -0.027042362653 Eh    ::
         :: -> anisotropic XC          0.000170741511 Eh    ::
         :: -> dispersion             -0.005804306290 Eh    ::
         :: -> Gsolv                  -0.070105723153 Eh    ::
         ::    -> Gelec               -0.063339434991 Eh    ::
         ::    -> Gsasa               -0.000883669132 Eh    ::
         ::    -> Ghb                 -0.006963378727 Eh    ::
         ::    -> Gshift               0.001080759698 Eh    ::
         :: repulsion energy           0.198921839786 Eh    ::
         :: add. restraining           0.000000000000 Eh    ::
         :: total charge               0.000000000000 e     ::
         :::::::::::::::::::::::::::::::::::::::::::::::::::::

           -------------------------------------------------
          |                Property Printout                |
           -------------------------------------------------

    * Orbital Energies and Occupations

         #    Occupation            Energy/Eh            Energy/eV
      -------------------------------------------------------------
         1        2.0000           -1.0075592             -27.4171
       ...           ...                  ...                  ...
         4        2.0000           -0.6019456             -16.3798
         5        2.0000           -0.5797252             -15.7751
         6        2.0000           -0.5710543             -15.5392
         7        2.0000           -0.5507374             -14.9863
         8        2.0000           -0.5375080             -14.6263
         9        2.0000           -0.5067849             -13.7903
        10        2.0000           -0.4777447             -13.0001
        11        2.0000           -0.4477593             -12.1842
        12        2.0000           -0.4328922             -11.7796
        13        2.0000           -0.4293408             -11.6830
        14        2.0000           -0.4028367             -10.9617
        15        2.0000           -0.4012429             -10.9184
        16        2.0000           -0.4011972             -10.9171 (HOMO)
        17                         -0.0615112              -1.6738 (LUMO)
        18                         -0.0220151              -0.5991
        19                          0.0727380               1.9793
        20                          0.0962079               2.6180
        21                          0.1132193               3.0809
        22                          0.1155926               3.1454
        23                          0.1157250               3.1490
        24                          0.1181096               3.2139
        25                          0.1181146               3.2141
        26                          0.1276087               3.4724
        27                          0.1576839               4.2908
       ...                                ...                  ...
        33                          0.3535048               9.6194
      -------------------------------------------------------------
                  HL-Gap            0.3396859 Eh            9.2433 eV
             Fermi-level           -0.2313542 Eh           -6.2955 eV

     #   Z          covCN         q      C6AA      α(0)
     1   7 N        3.483    -0.169    24.640     7.372
     2   6 C        3.787     0.031    20.062     6.380
     3   6 C        3.806    -0.090    22.213     6.709
     4   6 C        3.806    -0.086    22.126     6.696
     5  17 Cl       0.065    -0.943   124.724    16.997
     6   1 H        0.859     0.305     0.699     1.310
     7   1 H        0.921     0.296     0.722     1.329
     8   1 H        0.859     0.297     0.723     1.332
     9   1 H        0.926     0.088     1.900     2.156
    10   1 H        0.926     0.068     2.107     2.270
    11   1 H        0.926     0.077     2.012     2.218
    12   1 H        0.926     0.059     2.207     2.323
    13   1 H        0.926     0.067     2.118     2.276

 Mol. C6AA /au·bohr⁶  :       1576.498147
 Mol. C8AA /au·bohr⁸  :      41526.550193
 Mol. α(0) /au        :         59.367903


Wiberg/Mayer (AO) data.
largest (>0.10) Wiberg bond orders for each atom

 ---------------------------------------------------------------------------
     #   Z sym  total        # sym  WBO       # sym  WBO       # sym  WBO
 ---------------------------------------------------------------------------
     1   7 N    3.645 --     2 C    0.967     8 H    0.894     6 H    0.890
                             7 H    0.823
     2   6 C    3.895 --     4 C    0.983     3 C    0.974     1 N    0.967
                             9 H    0.962
     3   6 C    3.934 --     4 C    0.979    10 H    0.977     2 C    0.974
                            11 H    0.974
     4   6 C    3.941 --     2 C    0.983     3 C    0.979    12 H    0.978
                            13 H    0.975
     5  17 Cl   0.110
     6   1 H    0.907 --     1 N    0.890
     7   1 H    0.913 --     1 N    0.823
     8   1 H    0.912 --     1 N    0.894
     9   1 H    0.992 --     2 C    0.962
    10   1 H    0.995 --     3 C    0.977
    11   1 H    0.994 --     3 C    0.974
    12   1 H    0.996 --     4 C    0.978
    13   1 H    0.996 --     4 C    0.975
 ---------------------------------------------------------------------------

Topologies differ in total number of bonds
Writing topology from bond orders to xtbtopo.mol

molecular dipole:
                 x           y           z       tot (Debye)
 q only:        2.992       4.601      -1.076
   full:        2.496       4.002      -0.943      12.227
molecular quadrupole (traceless):
                xx          xy          yy          xz          yz          zz
 q only:       15.786      -1.935     -21.055      -1.854       2.682       5.269
  q+dip:       11.868      -0.274     -16.384      -0.962       1.246       4.516
   full:       12.222      -0.181     -16.339      -1.253       1.359       4.116

           -------------------------------------------------
          |                Geometry Summary                 |
           -------------------------------------------------

      molecular mass/u    :       93.5553745
   center of mass at/Å    :        1.4971806      -0.6731689      -0.1770111
  moments of inertia/u·Å² :        0.4782707E+02   0.4239676E+03   0.4495382E+03
rotational constants/cm⁻¹ :        0.3524705E+00   0.3976160E-01   0.3749989E-01

 * 12 selected distances

     #   Z          #   Z                                           value/Å
     1   7 N        2   6 C                                       1.4625253
     2   6 C        3   6 C                                       1.4965167
     2   6 C        4   6 C                                       1.4946267
     3   6 C        4   6 C                                       1.5018914 (max)
     1   7 N        6   1 H                                       1.0239652
     1   7 N        7   1 H                                       1.0565394
     1   7 N        8   1 H                                       1.0237669 (min)
     2   6 C        9   1 H                                       1.0797526
     3   6 C       10   1 H                                       1.0776938
     3   6 C       11   1 H                                       1.0779067
     4   6 C       12   1 H                                       1.0775018
     4   6 C       13   1 H                                       1.0779626

 * 4 distinct bonds (by element types)

   Z      Z             #   av. dist./Å        max./Å        min./Å
   1 H    6 C           5     1.0781635     1.0797526     1.0775018
   6 C    6 C           3     1.4976783     1.5018914     1.4946267
   1 H    7 N           3     1.0347572     1.0565394     1.0237669
   6 C    7 N           1     1.4625253     1.4625253     1.4625253


optimized geometry written to: xtbopt.xyz


           -------------------------------------------------
          | TOTAL ENERGY              -17.977462914462 Eh   |
          | GRADIENT NORM               0.000769935181 Eh/α |
          | HOMO-LUMO GAP               9.243325161669 eV   |
           -------------------------------------------------

------------------------------------------------------------------------
 * finished run on 2023/01/24 at 14:55:52.157     
------------------------------------------------------------------------
 total:
 * wall-time:     0 d,  0 h,  0 min,  0.211 sec
 *  cpu-time:     0 d,  0 h,  0 min, 22.062 sec
 * ratio c/w:   104.451 speedup
 SCF:
 * wall-time:     0 d,  0 h,  0 min,  0.013 sec
 *  cpu-time:     0 d,  0 h,  0 min,  1.831 sec
 * ratio c/w:   141.913 speedup
 ANC optimizer:
 * wall-time:     0 d,  0 h,  0 min,  0.185 sec
 *  cpu-time:     0 d,  0 h,  0 min, 18.524 sec
 * ratio c/w:   100.369 speedup

