 Entering Gaussian System
 *********************************************
 Gaussian 98:
 frequency output generated by the xtb code
 *********************************************
                         Standard orientation:
 --------------------------------------------------------------------
  Center     Atomic     Atomic              Coordinates (Angstroms)
  Number     Number      Type              X           Y           Z
 --------------------------------------------------------------------
    1          7             0        1.460347    1.671832   -0.517418
    2          6             0        0.373701    1.720669    0.512576
    3          6             0       -0.330362    3.072293    0.509286
    4          6             0       -0.595476    0.578074    0.321031
    5          6             0       -1.297071    0.434065   -0.865996
    6          6             0       -2.172187   -0.619151   -1.045071
    7          6             0       -2.356548   -1.543448   -0.036919
    8          6             0       -1.664564   -1.411899    1.149928
    9          6             0       -0.789867   -0.358394    1.327124
   10         17             0        2.542940   -1.649554   -0.460256
   11          1             0        2.197341    2.365458   -0.329852
   12          1             0        1.077815    1.861622   -1.452757
   13          1             0        1.889222    0.730659   -0.540348
   14          1             0        0.849654    1.582618    1.497094
   15          1             0       -0.807895    3.255394   -0.452623
   16          1             0        0.370863    3.887950    0.687562
   17          1             0       -1.105749    3.118488    1.274809
   18          1             0       -1.154030    1.153663   -1.654078
   19          1             0       -2.711201   -0.719629   -1.973519
   20          1             0       -3.039313   -2.366305   -0.176245
   21          1             0       -1.806375   -2.132797    1.939080
   22          1             0       -0.248704   -0.258215    2.252982
 --------------------------------------------------------------------
     1 basis functions        1 primitive gaussians
     1 alpha electrons        1 beta electrons

 Harmonic frequencies (cm**-1), IR intensities (km*mol⁻¹),
 Raman scattering activities (A**4/amu), Raman depolarization ratios,
 reduced masses (AMU), force constants (mDyne/A) and normal coordinates:
                      1                      2                      3
                        a                      a                      a 
 Frequencies --  -131.4707               -19.5023                50.1136
 Red. masses --    23.5592                11.9620                21.8505
 Frc consts  --     0.0000                 0.0000                 0.0000
 IR Inten    --   115.4849                 1.6588                11.7236
 Raman Activ --     0.0000                 0.0000                 0.0000
 Depolar     --     0.0000                 0.0000                 0.0000
 Atom AN      X      Y      Z        X      Y      Z        X      Y      Z
   1   7    -0.16   0.46  -0.07    -0.01   0.09  -0.01    -0.02  -0.08  -0.10
   2   6    -0.10   0.15   0.01     0.05  -0.03   0.04     0.04  -0.15  -0.04
   3   6    -0.21   0.08   0.13    -0.02  -0.06   0.15     0.05  -0.14   0.08
   4   6    -0.00   0.07  -0.02     0.05  -0.03   0.03    -0.03  -0.08  -0.03
   5   6     0.00   0.04  -0.02     0.33  -0.24  -0.11    -0.06  -0.04  -0.02
   6   6     0.03   0.02  -0.01     0.33  -0.24  -0.11    -0.22   0.08   0.03
   7   6     0.04   0.03  -0.00     0.02  -0.01   0.04    -0.36   0.16   0.08
   8   6     0.04   0.05  -0.00    -0.27   0.21   0.19    -0.32   0.11   0.06
   9   6     0.02   0.06  -0.01    -0.26   0.20   0.18    -0.16  -0.02   0.01
  10  17     0.26  -0.68  -0.01    -0.14   0.06  -0.27     0.67   0.12  -0.04
  11   1    -0.09   0.17  -0.03     0.03  -0.02   0.04    -0.06   0.05  -0.07
  12   1    -0.08   0.11  -0.01    -0.01   0.11   0.02    -0.03  -0.10  -0.03
  13   1     0.02   0.17  -0.04    -0.04   0.01  -0.08     0.08   0.01   0.01
  14   1    -0.01   0.03  -0.01     0.03  -0.02   0.00     0.03  -0.06  -0.02
  15   1    -0.08   0.03   0.05    -0.03  -0.02   0.06     0.00  -0.02   0.03
  16   1    -0.08   0.04   0.04    -0.01  -0.01   0.03     0.02  -0.04   0.03
  17   1    -0.05  -0.01   0.05     0.01  -0.03   0.06     0.03  -0.05   0.03
  18   1    -0.00   0.01  -0.01     0.17  -0.12  -0.07     0.01  -0.03  -0.02
  19   1     0.01   0.00  -0.00     0.16  -0.12  -0.06    -0.07   0.03   0.01
  20   1     0.01   0.01   0.00     0.01  -0.00   0.01    -0.14   0.08   0.04
  21   1     0.02   0.02   0.00    -0.15   0.11   0.09    -0.12   0.05   0.03
  22   1     0.01   0.02  -0.00    -0.14   0.11   0.09    -0.04  -0.02  -0.00
                      4                      5                      6
                        a                      a                      a 
 Frequencies --   102.9518               128.8241               189.5660
 Red. masses --    15.4123                 9.7395                 7.5779
 Frc consts  --     0.0000                 0.0000                 0.0000
 IR Inten    --    13.3739                12.2106                 3.8543
 Raman Activ --     0.0000                 0.0000                 0.0000
 Depolar     --     0.0000                 0.0000                 0.0000
 Atom AN      X      Y      Z        X      Y      Z        X      Y      Z
   1   7    -0.10   0.19  -0.40    -0.28  -0.25  -0.25     0.16   0.15   0.08
   2   6     0.16  -0.11  -0.11    -0.02   0.01   0.01    -0.03  -0.04  -0.10
   3   6     0.05  -0.16   0.34     0.30   0.18   0.20     0.25   0.11   0.24
   4   6     0.17  -0.11  -0.11    -0.22   0.16   0.11    -0.13   0.05  -0.27
   5   6     0.10  -0.06  -0.08    -0.14   0.12   0.07    -0.25  -0.10  -0.18
   6   6    -0.01   0.02  -0.02     0.10  -0.06  -0.07    -0.19  -0.22   0.03
   7   6    -0.06   0.06   0.00     0.25  -0.18  -0.15    -0.02  -0.16   0.11
   8   6     0.04  -0.02  -0.05     0.01  -0.02  -0.03     0.06   0.03   0.05
   9   6     0.16  -0.11  -0.11    -0.22   0.15   0.10    -0.02   0.12  -0.17
  10  17    -0.30   0.17   0.35     0.11  -0.04   0.04     0.03   0.02   0.06
  11   1    -0.09   0.15  -0.19    -0.10  -0.01  -0.20     0.12  -0.09   0.20
  12   1    -0.11  -0.05  -0.09    -0.15  -0.20  -0.06     0.14   0.28   0.03
  13   1     0.07   0.10  -0.07    -0.02  -0.05   0.02    -0.07  -0.01  -0.12
  14   1     0.12  -0.08  -0.07     0.04  -0.03  -0.03    -0.04  -0.10  -0.02
  15   1    -0.06  -0.00   0.14     0.06   0.11   0.08     0.21   0.20   0.03
  16   1     0.01  -0.04   0.10     0.15  -0.00   0.04     0.10  -0.04   0.27
  17   1     0.07  -0.11   0.16     0.13   0.09   0.10    -0.02  -0.03  -0.02
  18   1     0.03  -0.02  -0.03    -0.07   0.06   0.04    -0.11  -0.05  -0.08
  19   1    -0.02   0.02   0.00     0.06  -0.04  -0.04    -0.08  -0.10   0.02
  20   1    -0.05   0.04   0.02     0.15  -0.11  -0.09     0.02  -0.07   0.07
  21   1     0.00   0.00  -0.01     0.02  -0.02  -0.02     0.06   0.03   0.04
  22   1     0.07  -0.05  -0.04    -0.10   0.07   0.05     0.01   0.07  -0.06
                      7                      8                      9
                        a                      a                      a 
 Frequencies --   227.0085               263.5126               291.5249
 Red. masses --     1.7538                 5.1144                 8.9305
 Frc consts  --     0.0000                 0.0000                 0.0000
 IR Inten    --     0.2270                 4.0236                10.8307
 Raman Activ --     0.0000                 0.0000                 0.0000
 Depolar     --     0.0000                 0.0000                 0.0000
 Atom AN      X      Y      Z        X      Y      Z        X      Y      Z
   1   7    -0.01   0.01   0.06     0.14   0.09   0.30    -0.21   0.25  -0.07
   2   6    -0.02   0.01   0.02    -0.08   0.05   0.04    -0.07   0.05   0.08
   3   6     0.01   0.03  -0.05     0.14   0.17   0.02     0.35   0.28  -0.20
   4   6     0.03  -0.02   0.02    -0.05   0.02  -0.13     0.00  -0.09   0.19
   5   6     0.07  -0.04   0.00    -0.02  -0.15  -0.14     0.14  -0.16   0.11
   6   6     0.05  -0.02   0.00    -0.04  -0.17  -0.01     0.05  -0.06  -0.00
   7   6    -0.00   0.02   0.03    -0.09  -0.06   0.09    -0.24  -0.01  -0.01
   8   6    -0.01   0.01   0.03     0.02  -0.01   0.01    -0.11  -0.21  -0.06
   9   6     0.02  -0.01   0.03     0.03   0.01  -0.12     0.02  -0.30   0.03
  10  17    -0.08   0.01  -0.08    -0.08   0.01  -0.09     0.01   0.05   0.03
  11   1    -0.15   0.21  -0.15    -0.16   0.28  -0.07    -0.03   0.02   0.04
  12   1    -0.06  -0.30  -0.02     0.02  -0.34   0.01    -0.09   0.21   0.03
  13   1     0.19   0.09   0.20     0.28   0.13   0.32    -0.08   0.07  -0.15
  14   1    -0.02   0.02   0.02    -0.07  -0.00   0.04    -0.00   0.03   0.02
  15   1     0.41   0.21  -0.18    -0.16  -0.03   0.09     0.17   0.09  -0.09
  16   1    -0.07  -0.03   0.45     0.14   0.02  -0.24     0.20   0.00  -0.07
  17   1    -0.32  -0.14  -0.33     0.22   0.19   0.18     0.07   0.23  -0.10
  18   1     0.02  -0.01   0.00    -0.01  -0.06  -0.06     0.08  -0.05   0.03
  19   1     0.02  -0.01  -0.00    -0.02  -0.07   0.00     0.05   0.01  -0.02
  20   1    -0.01   0.01   0.01    -0.05  -0.00   0.06    -0.13   0.04  -0.01
  21   1    -0.01   0.01   0.01     0.02   0.01   0.02    -0.04  -0.08  -0.04
  22   1     0.01  -0.00   0.01     0.03   0.01  -0.05     0.02  -0.14   0.01
                     10                     11                     12
                        a                      a                      a 
 Frequencies --   300.4755               364.2196               455.3287
 Red. masses --     9.7215                 8.7484                 9.5421
 Frc consts  --     0.0000                 0.0000                 0.0000
 IR Inten    --    13.6525                 0.0628                 9.1929
 Raman Activ --     0.0000                 0.0000                 0.0000
 Depolar     --     0.0000                 0.0000                 0.0000
 Atom AN      X      Y      Z        X      Y      Z        X      Y      Z
   1   7     0.28   0.37  -0.05    -0.02  -0.00  -0.00    -0.35   0.06   0.17
   2   6     0.19  -0.14  -0.06     0.00   0.00   0.01    -0.08  -0.34   0.25
   3   6     0.12  -0.20  -0.19     0.01   0.01   0.01     0.19  -0.31  -0.15
   4   6     0.05  -0.09   0.07    -0.00   0.00  -0.00    -0.10  -0.07  -0.15
   5   6    -0.21   0.10   0.20     0.32  -0.24  -0.16    -0.03   0.13  -0.22
   6   6    -0.12   0.04   0.07    -0.31   0.23   0.15     0.02   0.09  -0.06
   7   6     0.16  -0.25  -0.15    -0.01   0.01   0.00     0.20   0.19   0.07
   8   6    -0.16  -0.05   0.01     0.32  -0.24  -0.16     0.13   0.11   0.12
   9   6    -0.27   0.04   0.15    -0.31   0.23   0.15     0.08   0.10  -0.01
  10  17    -0.07   0.04   0.00     0.00  -0.00   0.00    -0.00   0.02   0.00
  11   1    -0.03   0.21   0.02    -0.01   0.00  -0.01    -0.14   0.06   0.05
  12   1     0.06   0.07  -0.01    -0.01  -0.00   0.00    -0.20   0.09   0.10
  13   1     0.20   0.17  -0.03    -0.00  -0.00  -0.00    -0.01   0.06  -0.09
  14   1     0.06  -0.04  -0.02    -0.00   0.00   0.00    -0.05  -0.14   0.07
  15   1     0.03  -0.11  -0.06     0.01   0.00  -0.00     0.12  -0.17  -0.09
  16   1     0.02  -0.03  -0.10     0.00   0.00   0.01     0.10  -0.11  -0.11
  17   1     0.03  -0.03  -0.06    -0.00   0.00  -0.00     0.02   0.07  -0.09
  18   1    -0.09   0.06   0.08     0.21  -0.16  -0.11    -0.00   0.04  -0.06
  19   1    -0.05   0.05   0.03    -0.19   0.14   0.10    -0.03  -0.03   0.01
  20   1     0.13  -0.13  -0.10    -0.01   0.01   0.00     0.06   0.05   0.03
  21   1    -0.07  -0.01   0.01     0.20  -0.15  -0.10     0.03   0.03   0.03
  22   1    -0.14   0.03   0.08    -0.21   0.15   0.10     0.05   0.09  -0.03
                     13                     14                     15
                        a                      a                      a 
 Frequencies --   507.6591               547.9704               590.5067
 Red. masses --     9.3543                 9.3123                11.1212
 Frc consts  --     0.0000                 0.0000                 0.0000
 IR Inten    --     4.4144                 4.3323                 0.2024
 Raman Activ --     0.0000                 0.0000                 0.0000
 Depolar     --     0.0000                 0.0000                 0.0000
 Atom AN      X      Y      Z        X      Y      Z        X      Y      Z
   1   7    -0.17  -0.07   0.08     0.09   0.02  -0.04     0.04  -0.00  -0.05
   2   6    -0.10   0.09   0.04    -0.35  -0.15  -0.39    -0.06  -0.00  -0.09
   3   6    -0.02   0.20   0.03    -0.02   0.06   0.02    -0.03   0.05  -0.00
   4   6     0.43  -0.32  -0.21    -0.17  -0.28   0.08    -0.06   0.01  -0.14
   5   6     0.10  -0.08  -0.05     0.00  -0.00  -0.02     0.15   0.34  -0.23
   6   6    -0.21   0.15   0.10    -0.01   0.12  -0.20     0.29   0.17   0.32
   7   6     0.26  -0.20  -0.13     0.20   0.28  -0.01     0.07  -0.02   0.17
   8   6    -0.21   0.16   0.10     0.06  -0.02   0.14    -0.15  -0.39   0.29
   9   6     0.09  -0.06  -0.05     0.08  -0.10   0.35    -0.26  -0.18  -0.26
  10  17     0.01  -0.00  -0.00    -0.01   0.00  -0.00    -0.00  -0.00   0.00
  11   1     0.01  -0.06  -0.03    -0.05   0.04   0.16     0.00   0.00   0.02
  12   1    -0.06  -0.02   0.03     0.22   0.01  -0.09     0.05  -0.00  -0.03
  13   1    -0.10  -0.05   0.03     0.08   0.03   0.06     0.01   0.00   0.01
  14   1    -0.05   0.06   0.03    -0.10  -0.03  -0.11    -0.02  -0.00  -0.02
  15   1    -0.00   0.10   0.01    -0.05   0.20   0.07    -0.02   0.05   0.01
  16   1     0.05   0.01   0.00     0.12  -0.10   0.06     0.01  -0.00   0.01
  17   1     0.01   0.11   0.02     0.06   0.03   0.07     0.01   0.01   0.02
  18   1    -0.09   0.07   0.05     0.08   0.07   0.07     0.01   0.07  -0.09
  19   1    -0.21   0.15   0.10    -0.02   0.00  -0.04     0.05  -0.01   0.12
  20   1     0.09  -0.07  -0.04     0.05   0.08   0.00    -0.02   0.05  -0.10
  21   1    -0.21   0.15   0.10    -0.06  -0.06  -0.02    -0.02  -0.09   0.11
  22   1    -0.08   0.06   0.04     0.04   0.01   0.09    -0.05   0.01  -0.09
                     16                     17                     18
                        a                      a                      a 
 Frequencies --   661.6829               749.2958               761.9474
 Red. masses --     8.9924                 4.7488                 9.6051
 Frc consts  --     0.0000                 0.0000                 0.0000
 IR Inten    --     5.1924                23.5064                 9.4393
 Raman Activ --     0.0000                 0.0000                 0.0000
 Depolar     --     0.0000                 0.0000                 0.0000
 Atom AN      X      Y      Z        X      Y      Z        X      Y      Z
   1   7     0.04   0.01  -0.03     0.05  -0.00  -0.05     0.20   0.04  -0.09
   2   6     0.01  -0.01  -0.01    -0.00  -0.01   0.01     0.24   0.16   0.27
   3   6     0.01  -0.04   0.00     0.03  -0.07   0.00    -0.03   0.19   0.05
   4   6    -0.35   0.27   0.18    -0.31   0.24   0.16    -0.11  -0.10  -0.03
   5   6     0.21  -0.16  -0.10     0.17  -0.13  -0.08    -0.15  -0.05  -0.23
   6   6    -0.27   0.20   0.13     0.07  -0.05  -0.02    -0.21  -0.05  -0.34
   7   6     0.21  -0.15  -0.10     0.13  -0.11  -0.07     0.20   0.23   0.04
   8   6    -0.27   0.20   0.13     0.06  -0.03  -0.04    -0.03  -0.22   0.26
   9   6     0.21  -0.15  -0.10     0.16  -0.11  -0.09    -0.04  -0.16   0.14
  10  17    -0.00   0.00   0.00    -0.00   0.00   0.00     0.00   0.00   0.00
  11   1    -0.01   0.02   0.02    -0.02   0.02   0.04     0.14  -0.03  -0.22
  12   1     0.03   0.01  -0.01     0.04   0.02  -0.02    -0.12  -0.03   0.04
  13   1     0.03   0.01  -0.00     0.05   0.02  -0.03    -0.03  -0.03  -0.05
  14   1     0.01  -0.02  -0.01     0.02  -0.03  -0.01     0.08   0.03   0.07
  15   1     0.00  -0.03  -0.00     0.01  -0.05  -0.01     0.02  -0.11  -0.03
  16   1    -0.02   0.01   0.00    -0.03   0.02  -0.01    -0.13   0.16  -0.04
  17   1    -0.01  -0.03  -0.01    -0.00  -0.04  -0.01    -0.07   0.04  -0.04
  18   1     0.23  -0.17  -0.11    -0.24   0.18   0.12    -0.02   0.02  -0.04
  19   1     0.03  -0.02  -0.01    -0.28   0.21   0.14    -0.12  -0.12  -0.05
  20   1     0.21  -0.15  -0.10    -0.31   0.23   0.16     0.05   0.06   0.03
  21   1     0.02  -0.02  -0.01    -0.27   0.21   0.14    -0.09  -0.11   0.01
  22   1     0.23  -0.17  -0.11    -0.22   0.17   0.11     0.00   0.01   0.03
                     19                     20                     21
                        a                      a                      a 
 Frequencies --   861.9162               892.8021               901.1621
 Red. masses --     3.4643                 3.4094                 8.6352
 Frc consts  --     0.0000                 0.0000                 0.0000
 IR Inten    --     0.8001                 0.2072                 4.7553
 Raman Activ --     0.0000                 0.0000                 0.0000
 Depolar     --     0.0000                 0.0000                 0.0000
 Atom AN      X      Y      Z        X      Y      Z        X      Y      Z
   1   7    -0.02   0.04   0.01     0.00  -0.02   0.00    -0.34   0.09   0.32
   2   6     0.03   0.02  -0.02    -0.00  -0.02   0.01     0.28   0.22  -0.33
   3   6     0.02  -0.03  -0.01    -0.02   0.03   0.00     0.25  -0.15  -0.16
   4   6    -0.01   0.00   0.00     0.03  -0.03  -0.02     0.03   0.07   0.02
   5   6     0.23  -0.17  -0.12    -0.17   0.14   0.08    -0.05  -0.04   0.03
   6   6     0.10  -0.08  -0.06     0.12  -0.09  -0.05    -0.08  -0.01  -0.11
   7   6    -0.03   0.02   0.02     0.19  -0.15  -0.10     0.08   0.07  -0.00
   8   6    -0.11   0.07   0.06     0.03  -0.02  -0.02    -0.03  -0.14   0.11
   9   6    -0.21   0.15   0.11    -0.18   0.14   0.10    -0.03  -0.05  -0.02
  10  17     0.00   0.00  -0.00     0.00  -0.00   0.00     0.00  -0.00  -0.00
  11   1     0.02  -0.02   0.00    -0.01   0.01  -0.00    -0.04  -0.02   0.06
  12   1     0.01  -0.01  -0.01    -0.02   0.01   0.01    -0.04  -0.02   0.05
  13   1    -0.04  -0.01   0.04     0.02   0.00  -0.03    -0.17  -0.02   0.17
  14   1     0.00   0.01  -0.00    -0.01   0.01   0.01     0.03   0.13  -0.05
  15   1     0.00  -0.00   0.00    -0.00   0.01   0.00    -0.11   0.08   0.07
  16   1    -0.00  -0.00  -0.00     0.00   0.00   0.01    -0.09   0.06   0.09
  17   1     0.01  -0.02   0.00    -0.00   0.01   0.00     0.16  -0.41   0.07
  18   1    -0.42   0.32   0.22     0.33  -0.26  -0.18     0.03  -0.04  -0.01
  19   1    -0.22   0.16   0.11    -0.27   0.20   0.14    -0.01  -0.03  -0.03
  20   1     0.05  -0.03  -0.02    -0.30   0.22   0.15    -0.02   0.05   0.00
  21   1     0.26  -0.19  -0.13    -0.12   0.09   0.06    -0.06  -0.03   0.03
  22   1     0.36  -0.27  -0.18     0.37  -0.28  -0.19    -0.02   0.01   0.00
                     22                     23                     24
                        a                      a                      a 
 Frequencies --   915.7887               922.6654               932.8785
 Red. masses --     3.2784                 4.0014                 3.3669
 Frc consts  --     0.0000                 0.0000                 0.0000
 IR Inten    --    21.1838                 3.7690                 0.0477
 Raman Activ --     0.0000                 0.0000                 0.0000
 Depolar     --     0.0000                 0.0000                 0.0000
 Atom AN      X      Y      Z        X      Y      Z        X      Y      Z
   1   7     0.14  -0.23   0.11     0.04  -0.10   0.05    -0.02  -0.01  -0.00
   2   6     0.05  -0.10  -0.06     0.03  -0.04  -0.03     0.01   0.01  -0.00
   3   6    -0.06   0.16  -0.12    -0.01   0.07  -0.05     0.01   0.01   0.01
   4   6    -0.02  -0.01   0.00    -0.01   0.01   0.01    -0.05   0.04   0.03
   5   6     0.07  -0.04  -0.03    -0.10   0.08   0.06     0.02  -0.01  -0.02
   6   6    -0.08   0.08   0.07     0.23  -0.17  -0.11     0.11  -0.09  -0.06
   7   6    -0.00  -0.02  -0.01    -0.06   0.05   0.03    -0.25   0.19   0.13
   8   6     0.09  -0.04  -0.06    -0.20   0.15   0.10     0.20  -0.15  -0.10
   9   6    -0.06   0.05   0.04     0.16  -0.12  -0.09    -0.02   0.02   0.02
  10  17    -0.01   0.00   0.01    -0.00   0.00   0.01    -0.00  -0.00  -0.00
  11   1    -0.14   0.14  -0.03    -0.07   0.06   0.00    -0.03   0.01   0.04
  12   1    -0.37   0.17   0.23    -0.15   0.08   0.10     0.03   0.00  -0.01
  13   1     0.30   0.07  -0.42     0.13   0.03  -0.17     0.01   0.00   0.01
  14   1    -0.14   0.08   0.07    -0.05   0.03   0.02     0.02  -0.01  -0.01
  15   1    -0.16   0.23   0.08    -0.07   0.09   0.03     0.00  -0.03  -0.00
  16   1    -0.05   0.05   0.09    -0.03   0.03   0.04    -0.02   0.03  -0.01
  17   1     0.08  -0.17   0.08     0.03  -0.08   0.03    -0.01  -0.01  -0.01
  18   1    -0.11   0.09   0.05     0.15  -0.12  -0.08     0.05  -0.04  -0.03
  19   1     0.16  -0.11  -0.07    -0.37   0.28   0.19    -0.25   0.18   0.12
  20   1    -0.02   0.01   0.01     0.12  -0.09  -0.06     0.46  -0.34  -0.23
  21   1    -0.12   0.09   0.06     0.33  -0.24  -0.16    -0.39   0.28   0.19
  22   1     0.10  -0.07  -0.05    -0.23   0.17   0.11     0.10  -0.08  -0.05
                     25                     26                     27
                        a                      a                      a 
 Frequencies --   952.1312               982.9254              1060.7455
 Red. masses --     3.9741                10.4210                 6.4985
 Frc consts  --     0.0000                 0.0000                 0.0000
 IR Inten    --    23.5350                 4.6336                29.2816
 Raman Activ --     0.0000                 0.0000                 0.0000
 Depolar     --     0.0000                 0.0000                 0.0000
 Atom AN      X      Y      Z        X      Y      Z        X      Y      Z
   1   7     0.23   0.22   0.05    -0.04   0.04   0.05    -0.03  -0.11  -0.22
   2   6    -0.16   0.06   0.00     0.09   0.02  -0.04    -0.09   0.23   0.38
   3   6    -0.03  -0.28  -0.11     0.08   0.09  -0.00     0.01  -0.23  -0.13
   4   6    -0.10   0.03   0.03    -0.15  -0.18  -0.03     0.14   0.07   0.08
   5   6     0.01   0.03  -0.03     0.01   0.30  -0.42     0.00   0.14  -0.20
   6   6     0.04  -0.00   0.04     0.09  -0.01   0.19    -0.11  -0.04  -0.16
   7   6    -0.05  -0.03  -0.01    -0.23  -0.28  -0.05    -0.07  -0.11   0.03
   8   6     0.01   0.01  -0.04    -0.00   0.12  -0.17    -0.02  -0.05   0.05
   9   6     0.04  -0.01   0.05     0.23  -0.04   0.47     0.03   0.01   0.05
  10  17     0.01   0.00   0.00     0.00   0.00  -0.00    -0.00   0.00   0.00
  11   1     0.33  -0.11  -0.44     0.02  -0.01  -0.01    -0.15   0.05   0.22
  12   1    -0.27  -0.10   0.12    -0.01  -0.02   0.01     0.23   0.06  -0.13
  13   1    -0.23  -0.07   0.04    -0.05  -0.01   0.05     0.15   0.04  -0.03
  14   1    -0.19   0.13   0.09     0.04  -0.02  -0.02     0.08   0.40   0.10
  15   1    -0.03   0.22   0.04    -0.02  -0.07   0.00    -0.05   0.18   0.05
  16   1     0.22  -0.29   0.07    -0.12   0.15  -0.01     0.14  -0.21   0.10
  17   1     0.10  -0.01   0.08     0.00  -0.10  -0.01     0.11  -0.09   0.08
  18   1     0.02  -0.01  -0.02    -0.03   0.05  -0.15     0.02   0.04  -0.05
  19   1    -0.03   0.03   0.03    -0.01  -0.07   0.07    -0.07  -0.09  -0.02
  20   1     0.01  -0.03  -0.02    -0.07  -0.07  -0.01     0.00  -0.06   0.08
  21   1    -0.04   0.03   0.01    -0.04  -0.02  -0.09     0.03  -0.00   0.03
  22   1    -0.01   0.00   0.02     0.02  -0.04   0.16     0.01  -0.02   0.02
                     28                     29                     30
                        a                      a                      a 
 Frequencies --  1077.9541              1095.2890              1121.0612
 Red. masses --     7.3167                 6.0647                 5.1190
 Frc consts  --     0.0000                 0.0000                 0.0000
 IR Inten    --    33.1788                 2.9427                 8.4102
 Raman Activ --     0.0000                 0.0000                 0.0000
 Depolar     --     0.0000                 0.0000                 0.0000
 Atom AN      X      Y      Z        X      Y      Z        X      Y      Z
   1   7     0.12   0.03  -0.18     0.04   0.02   0.00    -0.03   0.10  -0.01
   2   6    -0.46   0.14   0.23    -0.11  -0.02  -0.02     0.11  -0.23   0.08
   3   6     0.37  -0.02  -0.06     0.08   0.02   0.02    -0.04   0.16  -0.13
   4   6    -0.00  -0.12  -0.07    -0.02  -0.03  -0.03    -0.08  -0.15   0.12
   5   6    -0.03  -0.08   0.10     0.09   0.10   0.04     0.09   0.14  -0.03
   6   6     0.06   0.02   0.12    -0.09   0.08  -0.30    -0.05  -0.01  -0.09
   7   6     0.08   0.10   0.01    -0.27  -0.32  -0.07     0.05  -0.04   0.15
   8   6     0.01   0.08  -0.08     0.04  -0.15   0.31     0.06   0.17  -0.15
   9   6    -0.06  -0.01  -0.06     0.10   0.11   0.03    -0.17  -0.11  -0.20
  10  17    -0.00   0.00   0.00     0.00   0.00   0.00     0.00   0.00  -0.00
  11   1     0.05  -0.01  -0.06     0.03  -0.00  -0.05     0.06  -0.04  -0.03
  12   1     0.06  -0.01  -0.06    -0.03  -0.01   0.01     0.04  -0.05  -0.04
  13   1     0.01   0.00  -0.00    -0.02  -0.01  -0.01    -0.09  -0.01   0.09
  14   1    -0.22  -0.06   0.09    -0.05  -0.07  -0.00     0.05  -0.07   0.01
  15   1    -0.08  -0.19   0.04    -0.00  -0.08  -0.00    -0.10   0.15   0.03
  16   1    -0.24   0.26   0.04    -0.07   0.09  -0.02    -0.06   0.07   0.04
  17   1     0.08  -0.42   0.00    -0.01  -0.06  -0.02     0.04  -0.08   0.03
  18   1    -0.01  -0.04   0.02     0.22   0.16   0.17     0.28   0.22   0.20
  19   1     0.03   0.01   0.03     0.12   0.30  -0.20    -0.10  -0.16   0.04
  20   1     0.02   0.03  -0.01    -0.08  -0.09  -0.04     0.09  -0.13   0.37
  21   1    -0.01   0.01  -0.04     0.21   0.11   0.27     0.20   0.20   0.12
  22   1    -0.02  -0.04  -0.01     0.16   0.27  -0.09    -0.17  -0.23   0.03
                     31                     32                     33
                        a                      a                      a 
 Frequencies --  1153.4135              1181.6821              1198.9227
 Red. masses --     6.6218                 1.2953                 2.3803
 Frc consts  --     0.0000                 0.0000                 0.0000
 IR Inten    --     5.4815                 0.0231                 2.1526
 Raman Activ --     0.0000                 0.0000                 0.0000
 Depolar     --     0.0000                 0.0000                 0.0000
 Atom AN      X      Y      Z        X      Y      Z        X      Y      Z
   1   7     0.06  -0.12   0.10     0.00   0.00  -0.00    -0.01   0.02  -0.03
   2   6    -0.19   0.35  -0.32    -0.01  -0.01  -0.00    -0.01  -0.09   0.03
   3   6     0.10  -0.22   0.26    -0.00   0.01  -0.01    -0.03   0.04  -0.07
   4   6     0.14   0.10   0.04    -0.01   0.03  -0.06     0.13   0.17  -0.01
   5   6     0.08   0.14  -0.05     0.05   0.06   0.01    -0.04  -0.00  -0.08
   6   6    -0.07  -0.02  -0.11     0.01   0.03  -0.02    -0.01   0.05  -0.11
   7   6     0.00  -0.04   0.07     0.02  -0.03   0.07     0.01   0.01  -0.00
   8   6    -0.02  -0.01  -0.01    -0.02  -0.02  -0.01     0.06  -0.02   0.13
   9   6    -0.05  -0.07   0.02    -0.05  -0.06  -0.01    -0.00  -0.07   0.11
  10  17    -0.00  -0.00   0.00     0.00  -0.00   0.00     0.00   0.00  -0.00
  11   1    -0.05   0.07  -0.04     0.00  -0.00   0.00     0.00  -0.01   0.02
  12   1    -0.14   0.06   0.10     0.00  -0.00  -0.00     0.02  -0.01  -0.02
  13   1     0.09   0.01  -0.16    -0.00  -0.00   0.01    -0.02  -0.00   0.04
  14   1    -0.13   0.02  -0.06     0.00  -0.01  -0.00    -0.08  -0.20   0.02
  15   1     0.17  -0.31  -0.06    -0.00   0.00   0.00    -0.04   0.06   0.01
  16   1     0.03  -0.02  -0.11    -0.00   0.00   0.00     0.00  -0.01   0.03
  17   1    -0.10   0.13  -0.08     0.00  -0.01   0.00     0.03  -0.03   0.02
  18   1     0.11   0.11   0.05    -0.11  -0.07  -0.10    -0.32  -0.22  -0.28
  19   1    -0.10  -0.15   0.03     0.21   0.39  -0.16     0.15   0.29  -0.15
  20   1     0.05  -0.09   0.21     0.15  -0.24   0.65    -0.00   0.01  -0.02
  21   1     0.05   0.03   0.04    -0.29  -0.23  -0.26     0.23   0.16   0.23
  22   1    -0.14  -0.27   0.11     0.06   0.11  -0.06    -0.24  -0.47   0.22
                     34                     35                     36
                        a                      a                      a 
 Frequencies --  1217.4456              1278.7948              1297.1308
 Red. masses --     5.9248                 4.7192                 3.5442
 Frc consts  --     0.0000                 0.0000                 0.0000
 IR Inten    --     6.1892                10.7609                 5.1324
 Raman Activ --     0.0000                 0.0000                 0.0000
 Depolar     --     0.0000                 0.0000                 0.0000
 Atom AN      X      Y      Z        X      Y      Z        X      Y      Z
   1   7    -0.01   0.03  -0.05     0.05   0.05   0.07    -0.03   0.06  -0.16
   2   6    -0.08  -0.16   0.06    -0.21  -0.23  -0.08     0.20  -0.32  -0.13
   3   6    -0.04   0.07  -0.12     0.05   0.09   0.01     0.05   0.04   0.15
   4   6     0.29   0.40  -0.05     0.19   0.07   0.26     0.03   0.07   0.03
   5   6     0.11   0.11   0.04     0.13   0.13   0.06     0.02   0.02   0.01
   6   6    -0.11  -0.08  -0.10    -0.01   0.07  -0.13    -0.01   0.00  -0.03
   7   6    -0.06  -0.08  -0.01    -0.05   0.03  -0.13    -0.01  -0.01  -0.00
   8   6    -0.04  -0.14   0.12    -0.07  -0.07  -0.04     0.00  -0.02   0.02
   9   6     0.12   0.12   0.08    -0.05  -0.07   0.02     0.02   0.02  -0.01
  10  17     0.00  -0.00  -0.00     0.00   0.00  -0.00     0.00  -0.00  -0.00
  11   1     0.02  -0.02  -0.00     0.04  -0.00  -0.05    -0.03  -0.02   0.11
  12   1     0.02  -0.03  -0.03    -0.04  -0.06   0.02     0.01  -0.02  -0.05
  13   1    -0.03  -0.00   0.04    -0.06  -0.02  -0.03    -0.08  -0.02   0.13
  14   1    -0.17  -0.45   0.03     0.16   0.08  -0.10    -0.60   0.44   0.36
  15   1    -0.08   0.09   0.02    -0.02  -0.06   0.01     0.04  -0.08   0.01
  16   1    -0.01   0.00   0.04    -0.04   0.06   0.01    -0.08   0.11  -0.06
  17   1     0.03  -0.06   0.02    -0.02  -0.05  -0.02    -0.07   0.08  -0.05
  18   1     0.11   0.10   0.08    -0.32  -0.22  -0.29    -0.02  -0.02  -0.02
  19   1    -0.15  -0.25   0.06    -0.18  -0.31   0.10    -0.02  -0.03   0.01
  20   1    -0.03  -0.01  -0.03     0.04  -0.07   0.19    -0.01  -0.00   0.00
  21   1    -0.27  -0.23  -0.18     0.15   0.11   0.14    -0.02  -0.02  -0.01
  22   1    -0.01  -0.07   0.07     0.16   0.29  -0.12    -0.01  -0.00   0.01
                     37                     38                     39
                        a                      a                      a 
 Frequencies --  1320.2942              1349.5587              1356.2995
 Red. masses --     7.0136                 8.4419                 3.8171
 Frc consts  --     0.0000                 0.0000                 0.0000
 IR Inten    --     9.5158                30.9770               128.4104
 Raman Activ --     0.0000                 0.0000                 0.0000
 Depolar     --     0.0000                 0.0000                 0.0000
 Atom AN      X      Y      Z        X      Y      Z        X      Y      Z
   1   7     0.03   0.06   0.11    -0.11   0.06   0.12     0.27  -0.07  -0.11
   2   6    -0.23  -0.32  -0.05    -0.08  -0.17  -0.01    -0.10  -0.09   0.02
   3   6     0.08   0.08   0.05     0.02   0.04   0.03     0.04  -0.02  -0.01
   4   6     0.13   0.06   0.18    -0.04   0.15  -0.28    -0.01   0.07  -0.12
   5   6    -0.16  -0.10  -0.17     0.20   0.17   0.15     0.09   0.08   0.06
   6   6     0.03   0.10  -0.09    -0.18  -0.31   0.10    -0.09  -0.15   0.04
   7   6     0.05  -0.12   0.28    -0.05   0.08  -0.23    -0.02   0.03  -0.09
   8   6    -0.08  -0.09  -0.03     0.24   0.19   0.20     0.12   0.10   0.10
   9   6     0.14   0.28  -0.14    -0.14  -0.23   0.06    -0.07  -0.10   0.01
  10  17     0.00   0.00   0.00    -0.00   0.00   0.00     0.01  -0.00  -0.00
  11   1     0.07  -0.02  -0.09     0.18  -0.16  -0.10    -0.32   0.34   0.10
  12   1    -0.02  -0.07   0.02     0.12  -0.15  -0.07    -0.23   0.21   0.14
  13   1    -0.03  -0.00  -0.09     0.17   0.10  -0.21    -0.43  -0.24   0.29
  14   1     0.32   0.36  -0.13     0.17   0.28  -0.05     0.20   0.12  -0.08
  15   1    -0.02  -0.07   0.01     0.00  -0.04   0.00    -0.04   0.02   0.03
  16   1    -0.06   0.08  -0.02    -0.01   0.03  -0.02    -0.05   0.04   0.02
  17   1    -0.04  -0.04  -0.04    -0.02  -0.04  -0.01    -0.02   0.05  -0.03
  18   1     0.07   0.06   0.05     0.03   0.03   0.02     0.03   0.03   0.02
  19   1     0.05   0.11  -0.06     0.02   0.05  -0.03     0.02   0.03  -0.02
  20   1    -0.04   0.04  -0.13    -0.02   0.03  -0.08    -0.02   0.02  -0.06
  21   1    -0.15  -0.12  -0.12    -0.05  -0.04  -0.05    -0.05  -0.03  -0.04
  22   1    -0.12  -0.21   0.08    -0.05  -0.08   0.02    -0.03  -0.05   0.01
                     40                     41                     42
                        a                      a                      a 
 Frequencies --  1398.8703              1425.6739              1439.9230
 Red. masses --     1.6117                 3.1143                 2.7463
 Frc consts  --     0.0000                 0.0000                 0.0000
 IR Inten    --    67.3045                 8.6337                59.9888
 Raman Activ --     0.0000                 0.0000                 0.0000
 Depolar     --     0.0000                 0.0000                 0.0000
 Atom AN      X      Y      Z        X      Y      Z        X      Y      Z
   1   7    -0.07  -0.07  -0.16     0.03  -0.00  -0.02    -0.10  -0.16   0.14
   2   6    -0.06  -0.03  -0.03     0.03  -0.03  -0.01     0.02  -0.09   0.01
   3   6     0.01   0.03   0.01    -0.20   0.37   0.03     0.00   0.03  -0.01
   4   6     0.01  -0.00   0.02    -0.00  -0.01   0.03    -0.02   0.07  -0.12
   5   6     0.03   0.03   0.01     0.01   0.02  -0.01    -0.04  -0.08   0.03
   6   6    -0.02  -0.01  -0.02    -0.02  -0.02  -0.01     0.07   0.07   0.04
   7   6    -0.01  -0.02   0.01     0.01  -0.01   0.04    -0.03   0.04  -0.12
   8   6     0.02   0.02   0.02     0.02   0.03  -0.00    -0.06  -0.10   0.02
   9   6    -0.01   0.01  -0.02    -0.02  -0.01  -0.02     0.06   0.05   0.05
  10  17    -0.01   0.00  -0.01     0.00  -0.00   0.00    -0.00  -0.00  -0.00
  11   1     0.23  -0.28   0.03    -0.05   0.05   0.01    -0.06   0.21  -0.59
  12   1    -0.28   0.39   0.17    -0.01   0.02   0.01     0.41   0.48  -0.06
  13   1     0.42   0.18   0.58    -0.07  -0.03   0.02     0.01  -0.02   0.08
  14   1     0.09   0.03  -0.05    -0.04   0.02   0.03    -0.02   0.08   0.03
  15   1    -0.01  -0.04   0.00     0.20  -0.41  -0.19    -0.04  -0.05   0.01
  16   1     0.01  -0.01   0.00     0.40  -0.31  -0.04     0.01  -0.01   0.05
  17   1    -0.02  -0.02  -0.02     0.08  -0.50   0.15    -0.00   0.01  -0.00
  18   1    -0.01  -0.01  -0.01     0.01   0.02   0.00     0.01   0.00   0.04
  19   1    -0.01  -0.02  -0.01     0.01   0.02  -0.01    -0.02  -0.05   0.04
  20   1    -0.00  -0.00  -0.02    -0.01   0.01  -0.03     0.03  -0.04   0.11
  21   1    -0.02  -0.01  -0.01    -0.02  -0.01  -0.02     0.04   0.01   0.06
  22   1    -0.01  -0.01  -0.00    -0.00   0.01  -0.01    -0.01  -0.04   0.04
                     43                     44                     45
                        a                      a                      a 
 Frequencies --  1446.8621              1479.5059              1490.5031
 Red. masses --     7.8671                 8.2589                 1.7841
 Frc consts  --     0.0000                 0.0000                 0.0000
 IR Inten    --    15.7159                 0.7845                 8.8380
 Raman Activ --     0.0000                 0.0000                 0.0000
 Depolar     --     0.0000                 0.0000                 0.0000
 Atom AN      X      Y      Z        X      Y      Z        X      Y      Z
   1   7    -0.04  -0.05   0.06     0.01   0.00   0.00    -0.00   0.01  -0.00
   2   6     0.03   0.06  -0.06     0.05   0.07   0.02    -0.01  -0.03  -0.05
   3   6     0.02  -0.03  -0.01    -0.06  -0.03  -0.03    -0.03   0.03  -0.20
   4   6     0.07  -0.15   0.37    -0.25  -0.29  -0.06     0.04   0.06   0.00
   5   6     0.13   0.22  -0.07     0.16   0.04   0.26    -0.03  -0.01  -0.05
   6   6    -0.20  -0.18  -0.13     0.10   0.26  -0.19    -0.02  -0.05   0.04
   7   6     0.07  -0.13   0.32    -0.17  -0.18  -0.07     0.03   0.03   0.02
   8   6     0.17   0.25  -0.03     0.20   0.08   0.28    -0.04  -0.02  -0.06
   9   6    -0.17  -0.12  -0.16     0.06   0.22  -0.21    -0.01  -0.04   0.04
  10  17    -0.00  -0.00   0.00     0.00  -0.00   0.00    -0.00   0.00   0.00
  11   1    -0.02   0.08  -0.22    -0.01   0.01   0.01     0.02  -0.03   0.04
  12   1     0.17   0.15  -0.04     0.01  -0.01  -0.01    -0.03  -0.04   0.01
  13   1     0.00  -0.00  -0.00    -0.01  -0.00  -0.02     0.01   0.01  -0.01
  14   1    -0.13  -0.14   0.03     0.02   0.03  -0.00    -0.02   0.04  -0.00
  15   1    -0.03   0.02   0.02     0.16  -0.01  -0.08    -0.03  -0.42  -0.08
  16   1    -0.03   0.02   0.03    -0.08   0.05   0.07    -0.15  -0.02   0.66
  17   1    -0.00   0.06  -0.01     0.16   0.06   0.16     0.29   0.35   0.26
  18   1    -0.11  -0.04  -0.14    -0.16  -0.15  -0.10     0.04   0.04   0.03
  19   1     0.03   0.12  -0.11    -0.12  -0.21   0.06     0.02   0.04  -0.01
  20   1    -0.07   0.10  -0.29    -0.04  -0.06   0.01     0.01   0.01  -0.00
  21   1    -0.11  -0.05  -0.15    -0.15  -0.14  -0.10     0.03   0.02   0.02
  22   1     0.03   0.11  -0.11    -0.13  -0.21   0.05     0.02   0.03  -0.01
                     46                     47                     48
                        a                      a                      a 
 Frequencies --  1494.1893              1605.2017              1611.3163
 Red. masses --     2.1336                11.5281                11.5299
 Frc consts  --     0.0000                 0.0000                 0.0000
 IR Inten    --     6.3256                 0.3310                 0.1884
 Raman Activ --     0.0000                 0.0000                 0.0000
 Depolar     --     0.0000                 0.0000                 0.0000
 Atom AN      X      Y      Z        X      Y      Z        X      Y      Z
   1   7     0.00  -0.01   0.00    -0.01  -0.00   0.00     0.00  -0.00  -0.00
   2   6    -0.07  -0.07  -0.00     0.00  -0.03   0.03     0.02   0.01   0.02
   3   6    -0.17  -0.11   0.03    -0.00  -0.00  -0.00    -0.00   0.00  -0.00
   4   6     0.08   0.09   0.02    -0.04   0.21  -0.41    -0.20  -0.13  -0.20
   5   6    -0.03  -0.00  -0.06     0.03  -0.09   0.19     0.34   0.28   0.27
   6   6    -0.04  -0.08   0.05     0.11   0.33  -0.27    -0.22  -0.28  -0.04
   7   6     0.05   0.05   0.02     0.06  -0.23   0.46     0.16   0.08   0.21
   8   6    -0.06  -0.03  -0.07    -0.02   0.11  -0.20    -0.33  -0.27  -0.27
   9   6    -0.01  -0.05   0.05    -0.12  -0.32   0.24     0.22   0.28   0.02
  10  17     0.00   0.00  -0.00    -0.00  -0.00   0.00     0.00   0.00   0.00
  11   1     0.00   0.01  -0.04    -0.00   0.00   0.01    -0.00   0.00   0.00
  12   1     0.00   0.05   0.01     0.00   0.00  -0.00     0.01  -0.00  -0.00
  13   1     0.00  -0.00   0.04    -0.00  -0.00   0.00    -0.00  -0.00  -0.00
  14   1     0.02   0.01  -0.01     0.04   0.06  -0.01     0.02   0.03  -0.00
  15   1     0.57   0.24  -0.25    -0.00   0.01   0.00    -0.01   0.00   0.00
  16   1    -0.23   0.24  -0.23     0.00  -0.00  -0.00     0.01  -0.01  -0.00
  17   1     0.35  -0.04   0.37    -0.00  -0.00  -0.00    -0.00  -0.00  -0.00
  18   1     0.04   0.03   0.02    -0.03  -0.05   0.02    -0.08  -0.05  -0.07
  19   1     0.03   0.05  -0.02    -0.06  -0.07  -0.00     0.01   0.05  -0.06
  20   1     0.01   0.02  -0.01    -0.04   0.02  -0.11     0.02   0.05  -0.03
  21   1     0.04   0.03   0.03     0.01   0.04  -0.04     0.07   0.05   0.06
  22   1     0.03   0.05  -0.01     0.06   0.08  -0.01    -0.01  -0.05   0.06
                     49                     50                     51
                        a                      a                      a 
 Frequencies --  2898.6026              2903.5542              3012.6829
 Red. masses --     1.7601                 1.9810                 1.8699
 Frc consts  --     0.0000                 0.0000                 0.0000
 IR Inten    --     6.3006              1453.9441                36.6464
 Raman Activ --     0.0000                 0.0000                 0.0000
 Depolar     --     0.0000                 0.0000                 0.0000
 Atom AN      X      Y      Z        X      Y      Z        X      Y      Z
   1   7    -0.00   0.01  -0.00    -0.11   0.25  -0.01     0.00  -0.00  -0.00
   2   6    -0.11   0.03  -0.23    -0.00  -0.00   0.02    -0.01  -0.00  -0.01
   3   6     0.00   0.00   0.01     0.00  -0.00  -0.00    -0.21  -0.17  -0.08
   4   6    -0.01  -0.00  -0.01    -0.00  -0.00   0.00     0.00  -0.00  -0.00
   5   6     0.00  -0.00   0.00     0.00   0.00  -0.00    -0.00  -0.00   0.00
   6   6     0.00   0.00  -0.00     0.00   0.00   0.00    -0.00   0.00  -0.00
   7   6     0.00   0.00   0.00     0.00   0.00   0.00    -0.00  -0.00   0.00
   8   6    -0.00  -0.00  -0.00     0.00   0.00  -0.00    -0.00  -0.00   0.00
   9   6     0.00   0.00   0.00    -0.00  -0.00  -0.00     0.00   0.00   0.00
  10  17     0.00  -0.00   0.00     0.00  -0.01   0.00     0.00   0.00   0.00
  11   1    -0.00  -0.00  -0.00    -0.02   0.00  -0.01     0.00  -0.00  -0.00
  12   1    -0.01   0.00  -0.02     0.00   0.01   0.03     0.00  -0.00   0.00
  13   1     0.02  -0.04  -0.00     0.40  -0.87  -0.01    -0.00   0.00  -0.00
  14   1     0.41  -0.12   0.86    -0.02   0.00  -0.04     0.01  -0.00   0.02
  15   1    -0.02   0.01  -0.04    -0.00   0.00  -0.01     0.08  -0.06   0.22
  16   1    -0.01  -0.01   0.00     0.01   0.01   0.00     0.60   0.68   0.15
  17   1     0.01   0.00  -0.01    -0.01  -0.00   0.01     0.06  -0.03  -0.10
  18   1     0.00   0.00  -0.00    -0.00  -0.01   0.01     0.00   0.01  -0.01
  19   1    -0.00  -0.00  -0.00    -0.00  -0.00  -0.00     0.00  -0.00   0.00
  20   1    -0.00  -0.00  -0.00    -0.00  -0.00  -0.00     0.00   0.00   0.00
  21   1    -0.00  -0.00   0.00     0.00  -0.00   0.00     0.00   0.00  -0.00
  22   1    -0.00  -0.00  -0.00     0.00  -0.00   0.00    -0.00  -0.00  -0.00
                     52                     53                     54
                        a                      a                      a 
 Frequencies --  3024.9170              3035.1658              3097.1313
 Red. masses --     1.9356                 1.3553                 1.7536
 Frc consts  --     0.0000                 0.0000                 0.0000
 IR Inten    --     5.6040                 7.7681                 4.5893
 Raman Activ --     0.0000                 0.0000                 0.0000
 Depolar     --     0.0000                 0.0000                 0.0000
 Atom AN      X      Y      Z        X      Y      Z        X      Y      Z
   1   7    -0.00  -0.00   0.00     0.00  -0.00   0.00     0.00  -0.00  -0.00
   2   6    -0.00   0.00  -0.02     0.01  -0.00   0.01     0.00   0.00  -0.00
   3   6     0.09   0.02  -0.27     0.14  -0.09   0.06    -0.00   0.00  -0.00
   4   6    -0.00  -0.00  -0.00     0.00   0.00   0.00     0.00   0.01  -0.00
   5   6    -0.00  -0.00   0.00     0.00   0.01  -0.01     0.02   0.09  -0.09
   6   6     0.00   0.00   0.00     0.00  -0.00   0.00     0.09   0.02   0.16
   7   6     0.00   0.00   0.00     0.00   0.00   0.00    -0.08  -0.09  -0.01
   8   6     0.00   0.00  -0.00     0.00   0.00  -0.00     0.01   0.03  -0.04
   9   6     0.00   0.00   0.00    -0.00  -0.00  -0.00     0.00   0.00   0.01
  10  17    -0.00  -0.00   0.00    -0.00   0.00  -0.00    -0.00  -0.00   0.00
  11   1     0.00   0.00   0.00     0.00  -0.00   0.00     0.00   0.00   0.00
  12   1    -0.00   0.00  -0.00     0.00  -0.00  -0.00    -0.00  -0.00   0.00
  13   1    -0.00   0.00  -0.00    -0.01   0.02   0.00    -0.00   0.01  -0.00
  14   1     0.02  -0.00   0.03    -0.01   0.00  -0.02     0.00  -0.00   0.00
  15   1     0.26  -0.08   0.46    -0.33   0.11  -0.68     0.01  -0.00   0.02
  16   1    -0.02  -0.03  -0.05     0.20   0.20   0.06    -0.00  -0.00  -0.00
  17   1    -0.57   0.02   0.55    -0.37   0.01   0.40     0.00  -0.00  -0.00
  18   1     0.00   0.01  -0.01    -0.00  -0.02   0.02    -0.06  -0.32   0.36
  19   1     0.00   0.00   0.00    -0.00  -0.00  -0.00    -0.34  -0.06  -0.58
  20   1    -0.00  -0.00  -0.00    -0.00  -0.00  -0.00     0.28   0.34   0.06
  21   1    -0.00  -0.00   0.00    -0.00  -0.00   0.00    -0.03  -0.13   0.15
  22   1    -0.00  -0.00  -0.00     0.00   0.00   0.00    -0.01  -0.00  -0.03
                     55                     56                     57
                        a                      a                      a 
 Frequencies --  3101.2537              3108.1881              3114.0615
 Red. masses --     1.7881                 1.8403                 1.8861
 Frc consts  --     0.0000                 0.0000                 0.0000
 IR Inten    --     7.4228                52.7132                57.6896
 Raman Activ --     0.0000                 0.0000                 0.0000
 Depolar     --     0.0000                 0.0000                 0.0000
 Atom AN      X      Y      Z        X      Y      Z        X      Y      Z
   1   7     0.00   0.00   0.00     0.00   0.00   0.00     0.00   0.00  -0.00
   2   6     0.00  -0.00   0.00    -0.00  -0.00   0.00    -0.00   0.00  -0.00
   3   6     0.00  -0.00   0.00     0.00  -0.00   0.00    -0.00   0.00  -0.00
   4   6    -0.00  -0.00   0.00    -0.01  -0.01  -0.00    -0.00  -0.00  -0.00
   5   6    -0.02  -0.09   0.09    -0.02  -0.11   0.12     0.02   0.08  -0.08
   6   6    -0.03  -0.01  -0.04     0.04   0.01   0.07    -0.08  -0.02  -0.14
   7   6    -0.08  -0.10  -0.02    -0.08  -0.09  -0.02    -0.09  -0.11  -0.02
   8   6     0.02   0.12  -0.13    -0.02  -0.09   0.10     0.00  -0.00   0.00
   9   6     0.04   0.01   0.06    -0.05  -0.01  -0.09    -0.07  -0.01  -0.12
  10  17     0.00  -0.00  -0.00     0.00   0.00  -0.00    -0.00   0.00   0.00
  11   1    -0.00  -0.00  -0.00    -0.00  -0.00  -0.00    -0.00  -0.00  -0.00
  12   1    -0.00   0.00  -0.01    -0.00   0.00  -0.01     0.00  -0.00   0.01
  13   1     0.00  -0.00   0.00     0.00  -0.01   0.00    -0.00   0.00  -0.00
  14   1    -0.00  -0.00  -0.00     0.00   0.00   0.00     0.00   0.00   0.00
  15   1    -0.01   0.00  -0.01    -0.01   0.00  -0.01     0.01  -0.00   0.01
  16   1     0.00   0.00   0.00    -0.00  -0.00   0.00    -0.00  -0.00  -0.00
  17   1    -0.00  -0.00   0.00    -0.00   0.00   0.00    -0.00   0.00  -0.00
  18   1     0.06   0.31  -0.34     0.07   0.38  -0.42    -0.05  -0.25   0.28
  19   1     0.09   0.02   0.15    -0.15  -0.03  -0.25     0.28   0.05   0.48
  20   1     0.29   0.35   0.06     0.26   0.31   0.05     0.29   0.36   0.06
  21   1    -0.08  -0.43   0.47     0.06   0.32  -0.34     0.00   0.00  -0.00
  22   1    -0.13  -0.02  -0.23     0.18   0.03   0.31     0.25   0.04   0.43
                     58                     59                     60
                        a                      a                      a 
 Frequencies --  3119.2190              3230.8591              3247.5558
 Red. masses --     1.9097                 1.8544                 1.6778
 Frc consts  --     0.0000                 0.0000                 0.0000
 IR Inten    --    10.9901                27.0645                24.7293
 Raman Activ --     0.0000                 0.0000                 0.0000
 Depolar     --     0.0000                 0.0000                 0.0000
 Atom AN      X      Y      Z        X      Y      Z        X      Y      Z
   1   7     0.00  -0.00   0.00     0.19   0.15   0.08    -0.07   0.06  -0.21
   2   6    -0.00  -0.00   0.00     0.00   0.00   0.00     0.00   0.00  -0.01
   3   6    -0.00  -0.00  -0.00    -0.00  -0.00  -0.00     0.00   0.00   0.00
   4   6    -0.01  -0.01  -0.00     0.00  -0.00  -0.00    -0.00   0.00  -0.00
   5   6    -0.00  -0.03   0.03    -0.00   0.00  -0.00    -0.00  -0.00   0.00
   6   6     0.03   0.00   0.06     0.00  -0.00   0.00     0.00   0.00   0.00
   7   6     0.07   0.08   0.02     0.00   0.00  -0.00     0.00   0.00   0.00
   8   6     0.02   0.10  -0.11     0.00   0.00  -0.00    -0.00   0.00  -0.00
   9   6    -0.10  -0.02  -0.17     0.00  -0.00   0.00    -0.00  -0.00  -0.00
  10  17     0.00  -0.00   0.00     0.00  -0.00  -0.00     0.00  -0.00   0.00
  11   1     0.00   0.00   0.00    -0.68  -0.65  -0.19    -0.11  -0.09  -0.05
  12   1    -0.00   0.00  -0.01    -0.04   0.04  -0.12     0.37  -0.17   0.87
  13   1    -0.00   0.00   0.00     0.01   0.03   0.01    -0.02   0.04  -0.02
  14   1     0.00   0.00   0.00    -0.00  -0.00  -0.00     0.01  -0.00   0.01
  15   1     0.00  -0.00   0.00     0.00   0.00   0.00     0.00  -0.00  -0.00
  16   1     0.00   0.00   0.00     0.00  -0.00  -0.00    -0.00  -0.00  -0.00
  17   1    -0.00   0.00  -0.00    -0.00   0.00   0.00    -0.00   0.00   0.00
  18   1     0.02   0.09  -0.10    -0.00  -0.00   0.00     0.00   0.01  -0.01
  19   1    -0.11  -0.02  -0.19    -0.00  -0.00  -0.00    -0.00  -0.00  -0.00
  20   1    -0.23  -0.28  -0.05    -0.00  -0.00  -0.00    -0.00  -0.00  -0.00
  21   1    -0.06  -0.34   0.37    -0.00  -0.00   0.00    -0.00  -0.00   0.00
  22   1     0.34   0.06   0.59    -0.00   0.00  -0.00     0.00   0.00   0.00
