 Entering Gaussian System
 *********************************************
 Gaussian 98:
 frequency output generated by the xtb code
 *********************************************
                         Standard orientation:
 --------------------------------------------------------------------
  Center     Atomic     Atomic              Coordinates (Angstroms)
  Number     Number      Type              X           Y           Z
 --------------------------------------------------------------------
    1          7             0       -4.076920    0.551750   -0.669767
    2          6             0       -3.224000   -0.167753    0.325082
    3          6             0       -1.735462   -0.222791   -0.056664
    4          6             0       -0.948083   -1.199334    0.853265
    5          6             0        0.534155   -1.284252    0.449750
    6          6             0        1.207452    0.104704    0.450776
    7          6             0        2.640750   -0.010214   -0.014009
    8          8             0        2.832375   -0.060907   -1.344840
    9          8             0        3.532413   -0.075487    0.798778
   10          6             0        0.420714    1.094867   -0.433223
   11          6             0       -1.063084    1.170866   -0.030098
   12          1             0       -3.819285    1.542409   -0.736899
   13          1             0       -5.067479    0.508886   -0.406013
   14          1             0       -3.980855    0.134578   -1.601906
   15          1             0       -3.606075   -1.188180    0.440275
   16          1             0       -3.330104    0.303460    1.307491
   17          1             0       -1.667037   -0.602993   -1.086953
   18          1             0       -1.412109   -2.192881    0.834659
   19          1             0       -1.026448   -0.857881    1.890765
   20          1             0        0.625649   -1.714904   -0.553539
   21          1             0        1.084814   -1.964124    1.112030
   22          1             0        1.227188    0.487206    1.481685
   23          1             0        3.769304   -0.147482   -1.541443
   24          1             0        0.512469    0.773055   -1.476833
   25          1             0        0.890590    2.085455   -0.393837
   26          1             0       -1.599783    1.867977   -0.682708
   27          1             0       -1.148378    1.587108    0.979161
 --------------------------------------------------------------------
     1 basis functions        1 primitive gaussians
     1 alpha electrons        1 beta electrons

 Harmonic frequencies (cm**-1), IR intensities (km*mol⁻¹),
 Raman scattering activities (A**4/amu), Raman depolarization ratios,
 reduced masses (AMU), force constants (mDyne/A) and normal coordinates:
                      1                      2                      3
                        a                      a                      a 
 Frequencies --   -17.1184                69.6993               119.0694
 Red. masses --    13.9167                11.7014                 8.1877
 Frc consts  --     0.0000                 0.0000                 0.0000
 IR Inten    --     0.9334                11.1760                16.4312
 Raman Activ --     0.0000                 0.0000                 0.0000
 Depolar     --     0.0000                 0.0000                 0.0000
 Atom AN      X      Y      Z        X      Y      Z        X      Y      Z
   1   7     0.02   0.22   0.08     0.13  -0.13  -0.38    -0.22  -0.41  -0.05
   2   6    -0.02   0.08   0.02    -0.02  -0.01  -0.16     0.02   0.20   0.19
   3   6    -0.04  -0.03  -0.03     0.05   0.06   0.09    -0.02   0.18   0.02
   4   6    -0.07  -0.14  -0.11    -0.02   0.02   0.10     0.01   0.02  -0.18
   5   6    -0.08  -0.21  -0.13    -0.01   0.01   0.12    -0.03   0.03  -0.29
   6   6    -0.02  -0.25   0.00     0.04  -0.02   0.17     0.01   0.01  -0.06
   7   6     0.01   0.01   0.02    -0.04  -0.03  -0.08     0.04  -0.04   0.03
   8   8     0.02  -0.28   0.04    -0.35  -0.19  -0.13     0.14  -0.19   0.06
   9   8     0.07   0.75   0.03     0.16   0.11  -0.31    -0.03  -0.01   0.12
  10   6     0.05  -0.15   0.04     0.02   0.13   0.34     0.05   0.14   0.05
  11   6     0.05  -0.07   0.03     0.02   0.07   0.32     0.06   0.15   0.11
  12   1     0.04   0.05   0.02     0.04  -0.03  -0.12     0.00  -0.14  -0.26
  13   1     0.01   0.10   0.04     0.02  -0.03  -0.15    -0.03   0.02   0.11
  14   1    -0.02   0.06   0.02     0.08  -0.06  -0.09    -0.19  -0.32   0.07
  15   1    -0.03   0.03  -0.00     0.01  -0.01  -0.05     0.04   0.06   0.21
  16   1     0.02   0.02   0.01    -0.06   0.01  -0.06     0.03   0.19  -0.01
  17   1    -0.03   0.01  -0.01     0.06   0.05   0.02    -0.04   0.08  -0.01
  18   1    -0.04  -0.03  -0.05    -0.01   0.01   0.02    -0.01   0.01  -0.09
  19   1    -0.01  -0.06  -0.03    -0.02  -0.00   0.03     0.02  -0.04  -0.04
  20   1    -0.03  -0.04  -0.05    -0.00   0.01   0.03    -0.03   0.06  -0.11
  21   1    -0.04  -0.09  -0.05    -0.01  -0.01   0.03    -0.01  -0.03  -0.13
  22   1    -0.02  -0.09   0.01     0.06  -0.03   0.06    -0.01  -0.04  -0.00
  23   1     0.02   0.08   0.01    -0.10  -0.06  -0.09     0.04  -0.08   0.04
  24   1     0.01  -0.04   0.01     0.01   0.08   0.08     0.01   0.07   0.00
  25   1     0.03  -0.05   0.02     0.01   0.03   0.14     0.02   0.03   0.04
  26   1     0.03  -0.00   0.02     0.01   0.05   0.12     0.01   0.07   0.06
  27   1     0.02  -0.03   0.01    -0.01  -0.02   0.11     0.03   0.02   0.04
                      4                      5                      6
                        a                      a                      a 
 Frequencies --   130.0111               182.3429               201.9791
 Red. masses --     9.5014                 5.3172                 9.2038
 Frc consts  --     0.0000                 0.0000                 0.0000
 IR Inten    --    11.4265                 2.4131                18.2000
 Raman Activ --     0.0000                 0.0000                 0.0000
 Depolar     --     0.0000                 0.0000                 0.0000
 Atom AN      X      Y      Z        X      Y      Z        X      Y      Z
   1   7     0.10  -0.03  -0.23     0.02  -0.12  -0.12    -0.40  -0.15   0.11
   2   6    -0.05   0.24   0.10    -0.06   0.05   0.08    -0.01   0.08  -0.04
   3   6    -0.05  -0.02   0.14    -0.03   0.11   0.21    -0.02   0.11  -0.19
   4   6    -0.09  -0.03   0.18    -0.00   0.07   0.13    -0.12   0.11  -0.09
   5   6    -0.10  -0.18   0.09    -0.09  -0.05  -0.16    -0.06  -0.06   0.13
   6   6    -0.01  -0.23  -0.03    -0.02  -0.09  -0.18     0.11  -0.15   0.20
   7   6     0.01  -0.02  -0.05     0.02  -0.04  -0.07     0.09  -0.07   0.06
   8   8     0.06   0.52  -0.07     0.27  -0.03  -0.05    -0.11   0.14   0.03
   9   8     0.02  -0.04  -0.07    -0.11   0.04   0.08     0.28  -0.00  -0.12
  10   6     0.02  -0.23  -0.06    -0.05  -0.02  -0.08     0.22  -0.07   0.14
  11   6     0.07  -0.08   0.03     0.02   0.09   0.18     0.11   0.05  -0.24
  12   1     0.13  -0.05  -0.23    -0.29   0.06   0.23    -0.31   0.02   0.13
  13   1     0.03   0.14  -0.03    -0.05  -0.39  -0.29    -0.11  -0.27  -0.00
  14   1    -0.04  -0.16   0.00     0.37   0.18  -0.09     0.00   0.07  -0.01
  15   1    -0.05   0.09   0.13     0.01   0.00   0.02     0.04   0.01   0.03
  16   1    -0.01   0.18  -0.02    -0.07   0.02   0.01     0.02   0.04  -0.02
  17   1    -0.03  -0.03   0.05    -0.00   0.04   0.06    -0.02   0.01  -0.05
  18   1    -0.05   0.00   0.08    -0.03   0.03   0.07    -0.05   0.04  -0.02
  19   1     0.00   0.01   0.05     0.06   0.03   0.04    -0.06   0.05  -0.03
  20   1    -0.06  -0.07   0.03    -0.09   0.00  -0.06     0.01  -0.03   0.04
  21   1    -0.04  -0.05   0.03    -0.00  -0.04  -0.09    -0.07  -0.03   0.07
  22   1     0.00  -0.06  -0.01    -0.01  -0.03  -0.05     0.04  -0.05   0.06
  23   1     0.03   0.33  -0.02     0.08   0.03   0.04    -0.03   0.13  -0.04
  24   1    -0.02  -0.09  -0.01    -0.07  -0.01  -0.03     0.12  -0.01   0.04
  25   1     0.03  -0.08  -0.05     0.01  -0.02  -0.04     0.07  -0.03   0.07
  26   1     0.02  -0.02   0.01    -0.02   0.04   0.09     0.09  -0.01  -0.14
  27   1     0.05  -0.01   0.01     0.06   0.01   0.06    -0.04   0.06  -0.09
                      7                      8                      9
                        a                      a                      a 
 Frequencies --   230.6626               248.7388               283.3702
 Red. masses --     9.5311                 6.3642                10.0304
 Frc consts  --     0.0000                 0.0000                 0.0000
 IR Inten    --     6.7121                 1.8029                 2.2458
 Raman Activ --     0.0000                 0.0000                 0.0000
 Depolar     --     0.0000                 0.0000                 0.0000
 Atom AN      X      Y      Z        X      Y      Z        X      Y      Z
   1   7     0.31  -0.04  -0.02    -0.08  -0.00  -0.02     0.08  -0.14   0.12
   2   6     0.17   0.22   0.26     0.01   0.13   0.02     0.26  -0.19  -0.13
   3   6     0.07  -0.08   0.02    -0.01   0.09  -0.05     0.25   0.25  -0.04
   4   6     0.09  -0.17  -0.11    -0.07  -0.22  -0.30     0.02   0.16   0.04
   5   6     0.07  -0.02  -0.16     0.14   0.05   0.30    -0.07  -0.15  -0.02
   6   6    -0.10   0.05   0.10     0.01   0.13   0.00    -0.14  -0.14  -0.06
   7   6    -0.15   0.06   0.12     0.00   0.05   0.01    -0.18  -0.06   0.05
   8   8    -0.44   0.04   0.11    -0.05   0.01   0.01    -0.30   0.06   0.04
   9   8    -0.08  -0.03   0.03     0.02   0.00  -0.01    -0.25   0.04   0.10
  10   6     0.04   0.03  -0.02    -0.06  -0.17  -0.24     0.09  -0.07  -0.18
  11   6     0.01  -0.04  -0.24     0.11   0.01   0.26     0.21   0.27   0.06
  12   1    -0.04   0.02   0.05    -0.09   0.02   0.02     0.05  -0.04   0.02
  13   1     0.05  -0.14  -0.15    -0.02  -0.08  -0.03     0.04  -0.01   0.11
  14   1     0.27   0.02  -0.00     0.04   0.02  -0.01    -0.07  -0.03   0.02
  15   1     0.01   0.09   0.20     0.01   0.04   0.05     0.15  -0.09  -0.13
  16   1     0.09   0.18   0.02     0.02   0.07  -0.01     0.03  -0.15   0.01
  17   1    -0.05  -0.05   0.01    -0.02   0.10  -0.04     0.12   0.10  -0.02
  18   1     0.03  -0.05  -0.08     0.03  -0.08  -0.26    -0.07   0.08   0.04
  19   1     0.03  -0.10  -0.02    -0.15  -0.21  -0.05     0.04   0.08   0.00
  20   1     0.03   0.06  -0.07     0.17  -0.08   0.14    -0.04  -0.06   0.00
  21   1     0.04  -0.03  -0.09    -0.00   0.10   0.21    -0.02  -0.03   0.00
  22   1    -0.07  -0.01   0.04    -0.01   0.12  -0.03    -0.07  -0.03  -0.02
  23   1    -0.13  -0.04  -0.04    -0.02  -0.05  -0.01    -0.07   0.11  -0.03
  24   1     0.06   0.00  -0.00    -0.12  -0.18  -0.04    -0.04  -0.08  -0.04
  25   1    -0.00   0.01   0.01     0.01  -0.06  -0.22     0.11  -0.06  -0.11
  26   1     0.00  -0.07  -0.13    -0.01   0.09   0.20     0.05   0.10   0.06
  27   1    -0.04   0.05  -0.10     0.15  -0.10   0.13     0.12   0.06   0.03
                     10                     11                     12
                        a                      a                      a 
 Frequencies --   323.2420               388.4937               437.9273
 Red. masses --     9.4618                 9.0287                 8.8013
 Frc consts  --     0.0000                 0.0000                 0.0000
 IR Inten    --    10.1358                 5.3732                15.7951
 Raman Activ --     0.0000                 0.0000                 0.0000
 Depolar     --     0.0000                 0.0000                 0.0000
 Atom AN      X      Y      Z        X      Y      Z        X      Y      Z
   1   7     0.13  -0.06   0.08     0.34  -0.13   0.06    -0.16   0.08  -0.09
   2   6     0.19   0.06   0.06    -0.11  -0.25   0.22    -0.09   0.08  -0.04
   3   6     0.10  -0.01  -0.12    -0.18   0.24   0.07     0.04   0.15   0.17
   4   6    -0.11  -0.11  -0.06    -0.18   0.06  -0.21     0.33  -0.01  -0.05
   5   6    -0.03  -0.12   0.31    -0.13   0.04   0.03     0.37  -0.30   0.02
   6   6    -0.10  -0.08  -0.10     0.01  -0.02   0.09    -0.00  -0.15   0.04
   7   6    -0.13  -0.07  -0.20     0.07  -0.04   0.03    -0.03   0.10  -0.05
   8   8     0.27  -0.04  -0.19     0.13  -0.02   0.03     0.04   0.05  -0.05
   9   8    -0.35   0.05  -0.01     0.22  -0.02  -0.11    -0.11  -0.00   0.02
  10   6     0.02   0.26   0.19    -0.08  -0.08   0.02    -0.17  -0.16   0.16
  11   6    -0.05   0.06  -0.09    -0.16   0.26  -0.13    -0.20   0.25  -0.06
  12   1    -0.00  -0.01   0.02     0.22  -0.07   0.03    -0.05   0.02  -0.04
  13   1     0.03  -0.05   0.02     0.05   0.08  -0.10    -0.03   0.02   0.01
  14   1     0.05  -0.02   0.02     0.16  -0.06   0.04    -0.07   0.01  -0.02
  15   1     0.04   0.03   0.08     0.02  -0.10  -0.04    -0.01   0.01  -0.04
  16   1     0.10   0.06   0.00    -0.11  -0.15   0.09    -0.08   0.01  -0.01
  17   1     0.02   0.00  -0.04    -0.09   0.10   0.00     0.02   0.06   0.04
  18   1    -0.04  -0.03  -0.08    -0.06   0.02  -0.18     0.04   0.02  -0.02
  19   1    -0.11  -0.06  -0.01    -0.10  -0.08  -0.03     0.15  -0.03  -0.00
  20   1     0.07  -0.17   0.15     0.00   0.01   0.01     0.16  -0.14   0.03
  21   1    -0.03   0.08   0.21    -0.09  -0.01   0.03     0.08  -0.04   0.07
  22   1     0.04  -0.02  -0.03     0.01   0.00   0.02    -0.00  -0.07   0.02
  23   1     0.10   0.11   0.06     0.04   0.05   0.03    -0.01  -0.26   0.02
  24   1     0.07   0.23   0.01    -0.04  -0.09   0.03    -0.08  -0.08   0.05
  25   1     0.00   0.07   0.23     0.01  -0.03  -0.07     0.01  -0.07  -0.00
  26   1    -0.01  -0.02  -0.06     0.02   0.03  -0.14    -0.00  -0.03  -0.16
  27   1    -0.08   0.03  -0.03    -0.08   0.18  -0.08    -0.14   0.21  -0.08
                     13                     14                     15
                        a                      a                      a 
 Frequencies --   445.4155               457.5852               511.5266
 Red. masses --     7.8434                 4.5442                 8.0750
 Frc consts  --     0.0000                 0.0000                 0.0000
 IR Inten    --     3.0850               193.3186                24.9589
 Raman Activ --     0.0000                 0.0000                 0.0000
 Depolar     --     0.0000                 0.0000                 0.0000
 Atom AN      X      Y      Z        X      Y      Z        X      Y      Z
   1   7    -0.17   0.04  -0.07    -0.06   0.04  -0.04     0.00  -0.01  -0.02
   2   6    -0.13  -0.05  -0.07    -0.07   0.01  -0.00    -0.30  -0.10   0.16
   3   6     0.08   0.05   0.41    -0.02   0.01   0.04    -0.21   0.02   0.02
   4   6    -0.07  -0.39   0.18     0.20   0.02  -0.07     0.06   0.10  -0.11
   5   6    -0.06   0.06   0.01     0.21   0.05  -0.02     0.12  -0.14   0.04
   6   6    -0.02   0.07  -0.03     0.04   0.06  -0.04     0.09  -0.11  -0.30
   7   6    -0.02  -0.03  -0.01     0.02  -0.17   0.03     0.16  -0.04   0.03
   8   8    -0.01   0.00  -0.02    -0.11  -0.29   0.03    -0.24   0.08   0.02
   9   8    -0.03   0.02  -0.01    -0.00  -0.07   0.08     0.02   0.03   0.24
  10   6     0.24   0.17  -0.12    -0.10   0.05  -0.00     0.19   0.18  -0.12
  11   6     0.21   0.10  -0.13    -0.12   0.05   0.02     0.12  -0.06  -0.03
  12   1    -0.03   0.01  -0.03    -0.02   0.01  -0.00     0.09  -0.02   0.01
  13   1    -0.03   0.03   0.03    -0.02   0.01  -0.02    -0.03   0.08  -0.11
  14   1    -0.10   0.01  -0.02    -0.01   0.02  -0.01     0.07  -0.02   0.01
  15   1     0.01  -0.04  -0.14    -0.03   0.00  -0.00    -0.07  -0.04  -0.00
  16   1    -0.15  -0.10   0.01    -0.03   0.01  -0.00    -0.13  -0.06   0.06
  17   1     0.05  -0.00   0.12    -0.01   0.01   0.01    -0.13   0.01  -0.00
  18   1     0.01  -0.12  -0.19     0.07  -0.00  -0.01     0.01   0.03   0.05
  19   1    -0.07  -0.34   0.12     0.07  -0.00  -0.02     0.05   0.09  -0.05
  20   1    -0.06   0.06  -0.02     0.10  -0.00   0.00     0.11  -0.22   0.09
  21   1     0.05   0.01  -0.06     0.06   0.04   0.02    -0.01   0.08   0.17
  22   1    -0.01   0.03  -0.02     0.02   0.03  -0.01    -0.02  -0.02  -0.08
  23   1     0.00   0.04  -0.00     0.04   0.82  -0.07    -0.11  -0.11  -0.18
  24   1     0.10   0.07  -0.04    -0.05   0.01   0.00     0.11   0.25  -0.09
  25   1     0.07   0.05   0.01    -0.04   0.02  -0.02     0.02   0.06   0.17
  26   1     0.03  -0.10  -0.14    -0.03  -0.01  -0.02     0.03   0.05   0.07
  27   1     0.06   0.19  -0.10    -0.05   0.04  -0.01     0.10  -0.07   0.02
                     16                     17                     18
                        a                      a                      a 
 Frequencies --   518.7687               599.2312               708.5126
 Red. masses --    11.3683                 9.7439                11.8819
 Frc consts  --     0.0000                 0.0000                 0.0000
 IR Inten    --    12.7671                93.5649                65.0226
 Raman Activ --     0.0000                 0.0000                 0.0000
 Depolar     --     0.0000                 0.0000                 0.0000
 Atom AN      X      Y      Z        X      Y      Z        X      Y      Z
   1   7     0.00  -0.01  -0.01    -0.04   0.01  -0.02     0.01  -0.01   0.02
   2   6    -0.16  -0.07   0.08    -0.16  -0.04   0.08     0.01   0.00  -0.00
   3   6    -0.13   0.01  -0.01    -0.07   0.00  -0.00    -0.01   0.03  -0.00
   4   6     0.06   0.12  -0.10     0.13   0.04  -0.06    -0.15  -0.04   0.04
   5   6     0.09   0.22  -0.01     0.11  -0.11  -0.02    -0.07  -0.19  -0.02
   6   6     0.17   0.06   0.27    -0.24   0.04   0.14     0.00   0.02  -0.00
   7   6    -0.11   0.01  -0.20    -0.38   0.10   0.10     0.14   0.84  -0.04
   8   8     0.02  -0.01  -0.27     0.16  -0.05   0.22    -0.01  -0.26  -0.09
   9   8    -0.48   0.05   0.14     0.02  -0.04  -0.45    -0.01  -0.23   0.07
  10   6     0.25  -0.23   0.18     0.15   0.07  -0.09     0.03  -0.04   0.04
  11   6     0.22  -0.13  -0.02     0.18  -0.04  -0.03     0.08  -0.02  -0.01
  12   1     0.05  -0.02   0.01     0.03  -0.01   0.00     0.00  -0.00  -0.00
  13   1    -0.02   0.04  -0.06    -0.03   0.04  -0.06     0.00  -0.00  -0.00
  14   1     0.04  -0.01   0.00     0.03  -0.01   0.00     0.01  -0.01   0.01
  15   1    -0.03  -0.03  -0.01    -0.04  -0.02  -0.01     0.01  -0.01  -0.02
  16   1    -0.08  -0.04   0.03    -0.08  -0.03   0.03    -0.01  -0.02   0.01
  17   1    -0.08   0.00  -0.01    -0.07  -0.00  -0.00    -0.00   0.01  -0.00
  18   1     0.06   0.01  -0.02     0.01   0.02   0.09    -0.08   0.01   0.04
  19   1     0.00   0.03  -0.03     0.11   0.09  -0.04    -0.02   0.02   0.00
  20   1     0.03   0.16  -0.04     0.10  -0.05   0.01    -0.03  -0.08   0.01
  21   1    -0.01  -0.02  -0.06     0.03   0.01   0.04    -0.03  -0.04   0.01
  22   1     0.15   0.01   0.07    -0.13   0.00   0.04    -0.07  -0.05   0.02
  23   1     0.01   0.02  -0.03     0.12   0.07   0.38     0.00   0.16  -0.08
  24   1     0.10  -0.17   0.08     0.12   0.05  -0.03     0.03  -0.01   0.01
  25   1     0.05  -0.05  -0.04     0.04   0.02   0.04     0.00  -0.01   0.02
  26   1     0.13  -0.00  -0.02     0.02   0.05   0.09     0.03  -0.00  -0.01
  27   1     0.06  -0.03  -0.01     0.13  -0.08   0.03     0.03   0.00  -0.00
                     19                     20                     21
                        a                      a                      a 
 Frequencies --   789.1716               816.0544               824.8080
 Red. masses --     6.9457                 4.6911                 4.6741
 Frc consts  --     0.0000                 0.0000                 0.0000
 IR Inten    --    14.7813                 1.1005                34.0328
 Raman Activ --     0.0000                 0.0000                 0.0000
 Depolar     --     0.0000                 0.0000                 0.0000
 Atom AN      X      Y      Z        X      Y      Z        X      Y      Z
   1   7    -0.10  -0.03  -0.00    -0.01   0.02   0.02     0.03   0.10   0.05
   2   6    -0.17  -0.18   0.02    -0.00   0.04   0.03     0.04   0.17   0.09
   3   6    -0.00  -0.14  -0.23    -0.01   0.15  -0.10    -0.01  -0.03  -0.04
   4   6    -0.02  -0.24   0.13     0.12   0.08   0.16    -0.08  -0.20  -0.04
   5   6     0.04  -0.19   0.06     0.15  -0.09   0.21    -0.01  -0.18  -0.02
   6   6    -0.02   0.06   0.17    -0.02  -0.10   0.14    -0.06   0.14   0.23
   7   6     0.05  -0.04  -0.01     0.03   0.02  -0.00     0.06  -0.11   0.01
   8   8     0.03   0.01  -0.13     0.02  -0.02  -0.07     0.05   0.02  -0.18
   9   8     0.01   0.01   0.07     0.00  -0.01   0.04     0.04   0.03   0.09
  10   6     0.11   0.24  -0.07    -0.13  -0.10  -0.15     0.00   0.21  -0.05
  11   6    -0.02   0.38  -0.02    -0.15   0.05  -0.25    -0.02   0.02  -0.04
  12   1     0.18  -0.05   0.18    -0.01   0.00  -0.06    -0.20   0.06  -0.31
  13   1    -0.06   0.14  -0.12    -0.01   0.00  -0.04    -0.00  -0.11  -0.04
  14   1     0.02   0.13  -0.06     0.05  -0.06   0.04     0.13  -0.27   0.16
  15   1    -0.13   0.02   0.28     0.04  -0.01  -0.08     0.04  -0.01  -0.33
  16   1     0.11   0.18  -0.09    -0.03  -0.07   0.04    -0.08  -0.28   0.17
  17   1     0.04  -0.02  -0.06    -0.02  -0.05   0.01    -0.09   0.01  -0.03
  18   1    -0.04  -0.05   0.16     0.05   0.02  -0.21    -0.11  -0.02   0.24
  19   1     0.01   0.06  -0.01    -0.13  -0.18   0.09     0.11   0.15  -0.07
  20   1    -0.04   0.06  -0.04    -0.16   0.22  -0.07     0.09  -0.00  -0.01
  21   1     0.08  -0.11  -0.09     0.11  -0.23  -0.21    -0.00  -0.04   0.01
  22   1     0.02   0.01   0.05    -0.00   0.05   0.01     0.00   0.02   0.07
  23   1    -0.00  -0.01  -0.07     0.00   0.01  -0.04    -0.00  -0.01  -0.10
  24   1    -0.05  -0.12   0.03     0.16   0.17  -0.08    -0.01  -0.10   0.03
  25   1     0.14   0.02  -0.21    -0.08  -0.02   0.23     0.00   0.06  -0.17
  26   1    -0.03   0.16   0.07    -0.11   0.24   0.23    -0.08   0.00   0.05
  27   1     0.01   0.01   0.03     0.18  -0.25   0.06    -0.00  -0.05   0.01
                     22                     23                     24
                        a                      a                      a 
 Frequencies --   870.4623               915.7868               926.3013
 Red. masses --     6.5481                 7.4515                 4.5918
 Frc consts  --     0.0000                 0.0000                 0.0000
 IR Inten    --    47.1571                37.4083                16.0243
 Raman Activ --     0.0000                 0.0000                 0.0000
 Depolar     --     0.0000                 0.0000                 0.0000
 Atom AN      X      Y      Z        X      Y      Z        X      Y      Z
   1   7    -0.14   0.10   0.08    -0.30   0.06   0.01    -0.01  -0.06   0.01
   2   6    -0.06   0.01   0.09     0.04  -0.06   0.09     0.00   0.04  -0.02
   3   6     0.07  -0.09  -0.28     0.29   0.04   0.00    -0.01   0.15  -0.05
   4   6     0.03  -0.05   0.15     0.09   0.06  -0.05    -0.17  -0.17  -0.08
   5   6     0.05   0.10   0.07    -0.11   0.10  -0.05     0.17  -0.14   0.20
   6   6     0.14  -0.10  -0.31    -0.34   0.03   0.11     0.08   0.13  -0.05
   7   6    -0.06   0.08  -0.06     0.05  -0.04   0.10    -0.01  -0.04  -0.02
   8   8    -0.07  -0.00   0.27     0.08  -0.01  -0.26    -0.02   0.01   0.06
   9   8    -0.07  -0.01  -0.11     0.12  -0.00   0.09    -0.02   0.01  -0.02
  10   6     0.05  -0.04   0.13    -0.13  -0.12   0.01    -0.13  -0.12  -0.11
  11   6     0.05   0.11   0.08     0.11  -0.12   0.05     0.13  -0.12   0.18
  12   1    -0.02   0.00  -0.20     0.16  -0.05  -0.00     0.07  -0.03   0.08
  13   1    -0.12   0.06  -0.26    -0.18   0.23  -0.35    -0.01   0.05  -0.02
  14   1     0.25  -0.23   0.16     0.20  -0.06   0.06    -0.00   0.04  -0.02
  15   1    -0.06   0.01  -0.09     0.04  -0.02   0.05     0.07  -0.01   0.01
  16   1     0.10  -0.14   0.10     0.09  -0.03   0.04    -0.04   0.02  -0.01
  17   1     0.06  -0.02  -0.07     0.17   0.03  -0.00    -0.03   0.25  -0.09
  18   1     0.11  -0.06  -0.04     0.00   0.03  -0.04    -0.13  -0.01   0.23
  19   1    -0.16  -0.04   0.04     0.05  -0.01  -0.00    -0.03   0.22  -0.11
  20   1    -0.16   0.02   0.00     0.05  -0.02   0.02    -0.03   0.24  -0.08
  21   1     0.12   0.02  -0.08    -0.05   0.09   0.06     0.12  -0.21  -0.18
  22   1     0.09  -0.03  -0.08    -0.23   0.03   0.02     0.05   0.24  -0.09
  23   1    -0.01   0.00   0.11    -0.00  -0.01  -0.14    -0.00   0.01   0.03
  24   1    -0.16  -0.03   0.02     0.04   0.06  -0.02    -0.02   0.21  -0.10
  25   1     0.11  -0.05  -0.05    -0.06  -0.03   0.13    -0.13   0.01   0.18
  26   1     0.12   0.01  -0.08     0.02  -0.10  -0.05     0.09  -0.19  -0.17
  27   1    -0.16   0.04   0.00     0.03   0.05  -0.02    -0.01   0.22  -0.06
                     25                     26                     27
                        a                      a                      a 
 Frequencies --   935.9474               961.0795               978.4835
 Red. masses --     7.4278                 6.8411                 6.9962
 Frc consts  --     0.0000                 0.0000                 0.0000
 IR Inten    --     3.1051                35.7006                32.2917
 Raman Activ --     0.0000                 0.0000                 0.0000
 Depolar     --     0.0000                 0.0000                 0.0000
 Atom AN      X      Y      Z        X      Y      Z        X      Y      Z
   1   7    -0.14   0.00  -0.03    -0.09  -0.14   0.06    -0.12   0.13  -0.05
   2   6     0.04  -0.01   0.07     0.09   0.18  -0.07     0.12  -0.17   0.05
   3   6     0.19   0.06   0.09    -0.03   0.24  -0.05     0.12  -0.09   0.16
   4   6    -0.03   0.28  -0.08    -0.16  -0.23   0.20    -0.06  -0.12  -0.13
   5   6    -0.01  -0.32   0.04     0.07   0.01  -0.20    -0.16   0.10  -0.06
   6   6     0.28   0.06   0.07     0.10   0.16  -0.08     0.30  -0.05   0.09
   7   6    -0.04  -0.01  -0.04     0.01  -0.07  -0.08     0.01   0.06  -0.14
   8   8    -0.05   0.01   0.08    -0.01   0.02   0.17    -0.04   0.00   0.21
   9   8    -0.07   0.01  -0.03    -0.04   0.02  -0.05    -0.11  -0.01  -0.06
  10   6    -0.01   0.33  -0.09    -0.14  -0.10   0.19     0.00  -0.15  -0.15
  11   6    -0.03  -0.30   0.02     0.03  -0.05  -0.23    -0.20   0.18  -0.05
  12   1     0.10  -0.03   0.06     0.21  -0.09   0.16    -0.05   0.03  -0.10
  13   1    -0.08   0.12  -0.14    -0.07   0.15  -0.12    -0.05   0.03  -0.10
  14   1     0.04   0.03  -0.01     0.06   0.08  -0.03     0.06  -0.06   0.04
  15   1     0.08  -0.02   0.02     0.24  -0.04  -0.07    -0.09   0.01   0.08
  16   1    -0.02  -0.01   0.02    -0.09  -0.02  -0.00     0.17   0.01   0.00
  17   1     0.06  -0.04   0.05    -0.04  -0.06   0.03     0.15   0.04   0.03
  18   1    -0.11   0.12  -0.22    -0.14  -0.02   0.11    -0.06  -0.02   0.14
  19   1    -0.05  -0.09   0.03     0.11  -0.04   0.06     0.17   0.07  -0.05
  20   1    -0.06  -0.04  -0.02     0.12  -0.15   0.02     0.15   0.02   0.01
  21   1    -0.10  -0.20  -0.03     0.09   0.18   0.07    -0.22  -0.00   0.10
  22   1     0.18  -0.05   0.04     0.12  -0.06   0.01     0.25   0.03   0.00
  23   1     0.01   0.00   0.10    -0.01   0.00  -0.02    -0.01   0.00   0.05
  24   1    -0.06  -0.10   0.03     0.04  -0.09   0.08     0.20   0.10  -0.06
  25   1    -0.11   0.15  -0.25    -0.16   0.03  -0.00    -0.05  -0.02   0.16
  26   1    -0.11  -0.17  -0.02     0.08   0.18   0.08    -0.20   0.05   0.11
  27   1    -0.06  -0.06  -0.01     0.07  -0.19   0.02     0.18   0.06   0.00
                     28                     29                     30
                        a                      a                      a 
 Frequencies --   995.2958              1027.5150              1030.8622
 Red. masses --     8.0160                 7.9460                 7.8776
 Frc consts  --     0.0000                 0.0000                 0.0000
 IR Inten    --     6.0163                21.1960               329.9171
 Raman Activ --     0.0000                 0.0000                 0.0000
 Depolar     --     0.0000                 0.0000                 0.0000
 Atom AN      X      Y      Z        X      Y      Z        X      Y      Z
   1   7     0.16  -0.10   0.36    -0.02   0.23  -0.22    -0.07   0.01  -0.08
   2   6    -0.28   0.09  -0.44     0.09  -0.38   0.26     0.16   0.02   0.07
   3   6    -0.09   0.02   0.03    -0.01   0.04  -0.03    -0.07   0.03  -0.04
   4   6    -0.14   0.10   0.10    -0.21   0.09   0.11    -0.06  -0.07   0.07
   5   6     0.15  -0.09  -0.14     0.15  -0.16  -0.12     0.02   0.06  -0.06
   6   6     0.08   0.10   0.06     0.01   0.26  -0.07     0.23  -0.05  -0.04
   7   6    -0.03  -0.05   0.06    -0.02  -0.09   0.04    -0.06   0.02   0.22
   8   8    -0.03   0.01  -0.12    -0.02   0.01  -0.06    -0.20   0.00  -0.46
   9   8     0.01   0.01   0.03     0.03   0.02   0.02     0.11  -0.01   0.18
  10   6     0.03  -0.05  -0.07    -0.12  -0.09   0.14     0.09  -0.04  -0.07
  11   6    -0.03  -0.02   0.07     0.18   0.02  -0.06    -0.16   0.03   0.05
  12   1     0.01  -0.03  -0.06    -0.21   0.10  -0.17     0.04  -0.01   0.03
  13   1     0.01  -0.06  -0.03     0.04  -0.11   0.08    -0.03   0.06  -0.04
  14   1     0.19  -0.19   0.18    -0.09  -0.02  -0.03    -0.01   0.04  -0.04
  15   1    -0.22   0.09   0.03    -0.18  -0.01   0.15     0.13  -0.03  -0.03
  16   1     0.19   0.08  -0.12     0.17   0.01   0.03    -0.01  -0.04   0.03
  17   1     0.25  -0.00   0.03     0.04  -0.04   0.02    -0.06   0.03  -0.02
  18   1    -0.11   0.06  -0.09    -0.22   0.10  -0.09     0.05  -0.05   0.05
  19   1     0.03  -0.11   0.07    -0.05  -0.07   0.06    -0.04   0.02   0.01
  20   1     0.12  -0.07  -0.01     0.03  -0.08  -0.01    -0.00  -0.05   0.02
  21   1     0.01   0.02   0.03     0.13   0.04  -0.02     0.01   0.06   0.02
  22   1    -0.03   0.01   0.02    -0.03   0.05  -0.01    -0.04  -0.04  -0.00
  23   1     0.02   0.01   0.11     0.01   0.01   0.06     0.11   0.01   0.63
  24   1     0.08   0.04  -0.03    -0.00  -0.01   0.04     0.01   0.05  -0.04
  25   1    -0.07   0.02   0.04    -0.15   0.03   0.03     0.03  -0.02   0.03
  26   1     0.01  -0.03  -0.03     0.19   0.10  -0.02    -0.04   0.00   0.00
  27   1     0.04   0.08  -0.01     0.06  -0.01  -0.01    -0.07   0.00   0.01
                     31                     32                     33
                        a                      a                      a 
 Frequencies --  1055.3523              1071.2024              1096.7752
 Red. masses --     8.1102                 2.2847                 8.3356
 Frc consts  --     0.0000                 0.0000                 0.0000
 IR Inten    --    19.5203                 1.7474                 5.0697
 Raman Activ --     0.0000                 0.0000                 0.0000
 Depolar     --     0.0000                 0.0000                 0.0000
 Atom AN      X      Y      Z        X      Y      Z        X      Y      Z
   1   7     0.07  -0.03   0.06    -0.03  -0.05   0.01    -0.05   0.06  -0.02
   2   6    -0.18   0.03  -0.06     0.02   0.08  -0.01     0.25  -0.09  -0.08
   3   6     0.06  -0.04  -0.04     0.06  -0.15   0.07    -0.45   0.19  -0.08
   4   6     0.31  -0.09  -0.07    -0.07   0.07  -0.09     0.28  -0.05   0.14
   5   6    -0.34  -0.06   0.10    -0.03  -0.07   0.03    -0.22  -0.18   0.01
   6   6     0.12   0.05  -0.02    -0.01   0.11  -0.08     0.03   0.20   0.03
   7   6     0.01   0.01   0.02     0.00   0.00   0.01    -0.04  -0.01   0.01
   8   8    -0.07   0.00  -0.09    -0.02   0.00  -0.02     0.05   0.00   0.04
   9   8     0.05  -0.00   0.07     0.01  -0.00   0.01    -0.03   0.01  -0.04
  10   6    -0.38   0.05   0.09     0.08  -0.09   0.06     0.21  -0.04  -0.08
  11   6     0.35   0.09  -0.14     0.00   0.10  -0.01    -0.13  -0.09   0.15
  12   1    -0.02   0.00  -0.01     0.04  -0.02   0.03     0.00   0.01  -0.05
  13   1     0.03  -0.05   0.05    -0.01   0.02  -0.01    -0.03   0.01  -0.06
  14   1     0.00  -0.03   0.02     0.01   0.02  -0.01     0.04  -0.02   0.02
  15   1    -0.09   0.02  -0.00     0.03   0.01  -0.06     0.10  -0.03   0.04
  16   1    -0.05   0.02  -0.02    -0.07  -0.03   0.02     0.23   0.00  -0.02
  17   1    -0.00  -0.02  -0.01    -0.00  -0.36   0.14    -0.10   0.09  -0.03
  18   1     0.17  -0.06   0.02    -0.21   0.10  -0.06     0.15  -0.05  -0.04
  19   1     0.13  -0.02  -0.02     0.22  -0.09   0.03     0.19  -0.17   0.09
  20   1    -0.10  -0.02   0.03     0.22   0.17  -0.06    -0.06  -0.08   0.02
  21   1    -0.22  -0.10   0.05    -0.19  -0.15   0.02    -0.13  -0.07   0.04
  22   1     0.13   0.02  -0.01    -0.02   0.37  -0.14    -0.04   0.16  -0.03
  23   1     0.03   0.00   0.20     0.01   0.01   0.05    -0.02   0.00  -0.14
  24   1    -0.12   0.03   0.01    -0.24   0.13  -0.05     0.08   0.02  -0.03
  25   1    -0.25   0.08  -0.01     0.26  -0.14   0.08    -0.05   0.04  -0.01
  26   1     0.21   0.12  -0.03     0.15   0.14  -0.01     0.16   0.03  -0.07
  27   1     0.14   0.01  -0.03    -0.25  -0.17   0.06    -0.14   0.03   0.01
                     34                     35                     36
                        a                      a                      a 
 Frequencies --  1109.4888              1142.3313              1147.0960
 Red. masses --     8.6030                 7.8982                 8.0683
 Frc consts  --     0.0000                 0.0000                 0.0000
 IR Inten    --     5.2142                 8.7788                 2.0582
 Raman Activ --     0.0000                 0.0000                 0.0000
 Depolar     --     0.0000                 0.0000                 0.0000
 Atom AN      X      Y      Z        X      Y      Z        X      Y      Z
   1   7     0.09  -0.01   0.01    -0.01   0.10   0.06     0.08   0.03  -0.06
   2   6    -0.28   0.01   0.10     0.07  -0.20  -0.17    -0.19  -0.06   0.17
   3   6     0.36   0.17  -0.11    -0.13   0.28   0.20     0.12   0.28  -0.31
   4   6     0.19  -0.11  -0.04     0.04  -0.12  -0.14     0.00  -0.12   0.24
   5   6    -0.24  -0.09   0.05     0.01   0.15   0.24    -0.00   0.18  -0.09
   6   6    -0.02   0.28  -0.16    -0.18  -0.24  -0.18     0.08  -0.31   0.23
   7   6     0.01  -0.02   0.01     0.07   0.05  -0.03     0.00   0.06  -0.03
   8   8    -0.03   0.01  -0.02    -0.06  -0.00  -0.03     0.02  -0.01   0.02
   9   8     0.02   0.01   0.02     0.06  -0.02   0.05    -0.04  -0.01  -0.02
  10   6     0.25  -0.18   0.11     0.03   0.16   0.16    -0.06   0.10  -0.24
  11   6    -0.27  -0.10  -0.02     0.00  -0.22  -0.19     0.02  -0.15   0.07
  12   1    -0.05   0.02   0.01    -0.04   0.03  -0.09    -0.07   0.03  -0.00
  13   1     0.05  -0.05   0.08    -0.02  -0.02  -0.05     0.05  -0.06   0.09
  14   1    -0.06   0.00  -0.01     0.07  -0.08   0.07    -0.08   0.01  -0.03
  15   1    -0.11   0.02   0.03    -0.02  -0.01   0.14    -0.04  -0.02   0.05
  16   1    -0.17   0.04   0.00     0.16   0.10  -0.10    -0.06  -0.00   0.04
  17   1     0.12   0.18  -0.07    -0.02   0.09   0.04     0.12   0.07  -0.07
  18   1    -0.14   0.06  -0.01    -0.16   0.05   0.07    -0.09   0.01  -0.00
  19   1     0.08   0.02  -0.02     0.24   0.02  -0.03     0.19  -0.14   0.11
  20   1    -0.18  -0.08   0.03     0.02   0.23  -0.02     0.25   0.07  -0.01
  21   1     0.10   0.07  -0.03     0.11  -0.00  -0.08    -0.09   0.06   0.07
  22   1     0.00   0.13  -0.06     0.06  -0.03  -0.06     0.02  -0.06   0.05
  23   1     0.01   0.01   0.06     0.02  -0.01   0.15    -0.00  -0.01  -0.04
  24   1     0.18  -0.09   0.05    -0.11  -0.12   0.07    -0.16   0.14  -0.11
  25   1     0.03  -0.03   0.02     0.08   0.01  -0.13    -0.03   0.03  -0.01
  26   1    -0.10  -0.01   0.04    -0.03   0.01   0.05     0.10  -0.05  -0.07
  27   1    -0.11  -0.12   0.03     0.03  -0.15  -0.01    -0.23  -0.08   0.01
                     37                     38                     39
                        a                      a                      a 
 Frequencies --  1206.4617              1209.2745              1218.6735
 Red. masses --     5.2053                 5.3672                 6.8164
 Frc consts  --     0.0000                 0.0000                 0.0000
 IR Inten    --    52.7983                48.8407               163.4103
 Raman Activ --     0.0000                 0.0000                 0.0000
 Depolar     --     0.0000                 0.0000                 0.0000
 Atom AN      X      Y      Z        X      Y      Z        X      Y      Z
   1   7     0.02   0.14   0.09    -0.03   0.01   0.04    -0.01   0.10   0.10
   2   6    -0.03  -0.17  -0.08     0.05  -0.00  -0.05     0.04  -0.12  -0.11
   3   6     0.13   0.15   0.12     0.07  -0.06   0.15     0.06   0.01   0.11
   4   6    -0.11  -0.04   0.05     0.02  -0.07  -0.19     0.04  -0.01  -0.07
   5   6     0.07  -0.03  -0.12    -0.03   0.10   0.13    -0.02  -0.02  -0.05
   6   6     0.19   0.05  -0.04     0.18  -0.11  -0.03    -0.04   0.05   0.28
   7   6    -0.21   0.00   0.26    -0.24   0.05   0.30     0.31  -0.06  -0.44
   8   8     0.10  -0.01  -0.08     0.11  -0.01  -0.10    -0.11   0.01   0.15
   9   8    -0.03   0.01  -0.07    -0.02  -0.00  -0.07    -0.05   0.01   0.05
  10   6    -0.02  -0.00   0.08     0.07  -0.04  -0.17     0.01  -0.04  -0.15
  11   6    -0.00  -0.06  -0.17    -0.10   0.07   0.09     0.02   0.03   0.03
  12   1    -0.07   0.04  -0.12     0.02  -0.01  -0.03    -0.03   0.02  -0.10
  13   1    -0.01  -0.04  -0.04    -0.01  -0.01  -0.02    -0.02  -0.03  -0.05
  14   1     0.05  -0.09   0.08     0.03  -0.00   0.02     0.06  -0.07   0.07
  15   1     0.16  -0.08   0.18    -0.04   0.02  -0.00     0.11  -0.05   0.12
  16   1    -0.21   0.18  -0.15    -0.06   0.03  -0.03    -0.20   0.15  -0.14
  17   1    -0.01   0.11  -0.00    -0.02  -0.16   0.09    -0.15  -0.08   0.04
  18   1     0.30  -0.16   0.11    -0.19   0.07   0.03    -0.01   0.01   0.01
  19   1    -0.25   0.12  -0.04     0.04   0.09  -0.08    -0.13   0.09  -0.06
  20   1     0.06  -0.05  -0.01    -0.15   0.02   0.03    -0.17  -0.14   0.03
  21   1    -0.22  -0.12   0.05     0.19   0.09  -0.06     0.12   0.10  -0.01
  22   1    -0.06   0.09  -0.04     0.01  -0.22   0.07    -0.23  -0.03   0.09
  23   1    -0.02  -0.00  -0.19    -0.02  -0.01  -0.22     0.03   0.01   0.22
  24   1    -0.16   0.05  -0.01     0.10   0.04  -0.05    -0.09   0.12  -0.08
  25   1     0.12  -0.06   0.01    -0.30   0.14  -0.05    -0.02   0.00   0.05
  26   1    -0.05   0.03   0.05     0.33   0.22  -0.06     0.13   0.07  -0.03
  27   1    -0.07  -0.17   0.02    -0.23  -0.08   0.05    -0.21  -0.09   0.03
                     40                     41                     42
                        a                      a                      a 
 Frequencies --  1241.1598              1251.0494              1277.2705
 Red. masses --     3.2728                 3.5447                 3.5935
 Frc consts  --     0.0000                 0.0000                 0.0000
 IR Inten    --    27.8788                 4.7422                 1.5662
 Raman Activ --     0.0000                 0.0000                 0.0000
 Depolar     --     0.0000                 0.0000                 0.0000
 Atom AN      X      Y      Z        X      Y      Z        X      Y      Z
   1   7     0.01   0.01   0.04    -0.03  -0.14  -0.09    -0.03  -0.04   0.00
   2   6     0.04  -0.05  -0.08     0.01   0.09   0.02     0.06   0.02  -0.02
   3   6    -0.05  -0.01  -0.06     0.01   0.09   0.22     0.06  -0.03   0.16
   4   6     0.12  -0.01  -0.00     0.01  -0.06  -0.07     0.02   0.06   0.05
   5   6    -0.13  -0.02  -0.04     0.03   0.04  -0.02    -0.05  -0.11  -0.16
   6   6     0.15   0.06   0.16     0.20   0.03   0.13    -0.30  -0.09   0.10
   7   6    -0.14   0.03   0.16     0.01  -0.03  -0.03     0.00   0.05   0.01
   8   8     0.06  -0.01  -0.06     0.02  -0.00   0.02    -0.02  -0.00  -0.02
   9   8     0.01  -0.00  -0.01    -0.07   0.01  -0.04     0.09  -0.02   0.07
  10   6    -0.15  -0.02  -0.05     0.00   0.02   0.03    -0.00   0.04  -0.11
  11   6     0.13   0.00  -0.02    -0.02  -0.10  -0.19    -0.06  -0.07  -0.02
  12   1    -0.01   0.01  -0.03     0.05  -0.04   0.11     0.03  -0.02   0.02
  13   1    -0.01   0.01  -0.04     0.00   0.05   0.03    -0.01   0.00  -0.01
  14   1     0.01  -0.02   0.02    -0.04   0.08  -0.08     0.01   0.02  -0.01
  15   1     0.01  -0.01   0.02    -0.34   0.13  -0.15    -0.16   0.06  -0.06
  16   1    -0.01   0.04  -0.05     0.38  -0.18   0.15     0.05  -0.02   0.01
  17   1    -0.26  -0.03  -0.03     0.09   0.21  -0.00    -0.03   0.20  -0.04
  18   1    -0.24   0.12  -0.09     0.03  -0.03   0.06     0.13  -0.04  -0.03
  19   1     0.10  -0.05   0.02    -0.10   0.09  -0.05    -0.27   0.10  -0.04
  20   1    -0.20  -0.16   0.05    -0.18  -0.13   0.04     0.13  -0.03  -0.03
  21   1     0.28   0.23  -0.02    -0.01   0.00   0.00     0.11   0.13   0.02
  22   1     0.27   0.01   0.04    -0.30   0.01   0.04     0.60   0.22  -0.07
  23   1    -0.01  -0.00  -0.11    -0.00   0.00  -0.03     0.01  -0.00   0.04
  24   1    -0.23   0.15  -0.07    -0.30   0.13  -0.06     0.05   0.00  -0.02
  25   1     0.32  -0.18   0.13     0.12  -0.05  -0.00     0.05  -0.02   0.01
  26   1    -0.24  -0.18   0.02     0.06   0.10   0.03     0.25   0.15  -0.05
  27   1     0.09   0.05  -0.02    -0.05  -0.16   0.01    -0.14  -0.11   0.03
                     43                     44                     45
                        a                      a                      a 
 Frequencies --  1281.6566              1298.1616              1308.3635
 Red. masses --     3.1235                 3.6035                 3.3904
 Frc consts  --     0.0000                 0.0000                 0.0000
 IR Inten    --     0.8323                 4.0086                 8.5328
 Raman Activ --     0.0000                 0.0000                 0.0000
 Depolar     --     0.0000                 0.0000                 0.0000
 Atom AN      X      Y      Z        X      Y      Z        X      Y      Z
   1   7     0.02   0.05  -0.10    -0.01  -0.03   0.02     0.03  -0.07   0.01
   2   6    -0.16   0.04   0.09     0.04  -0.03  -0.02    -0.02  -0.05  -0.06
   3   6    -0.13   0.15  -0.00     0.05   0.07   0.02     0.13   0.31  -0.02
   4   6    -0.14   0.02  -0.21    -0.00  -0.05   0.03    -0.08  -0.02  -0.02
   5   6    -0.01  -0.08   0.05     0.13   0.06   0.07     0.01  -0.02  -0.02
   6   6    -0.06   0.10   0.06    -0.12   0.32  -0.13    -0.05  -0.05  -0.01
   7   6     0.00  -0.00  -0.01     0.02  -0.03  -0.02    -0.00   0.01   0.01
   8   8    -0.00   0.00  -0.00    -0.02   0.00   0.00    -0.00   0.00  -0.01
   9   8     0.03   0.00   0.02     0.04   0.01   0.03     0.01  -0.00   0.01
  10   6    -0.05  -0.01  -0.07    -0.15  -0.02  -0.15     0.04  -0.09  -0.00
  11   6     0.03  -0.04   0.01     0.04  -0.03   0.06     0.20   0.15   0.06
  12   1    -0.01   0.02   0.04     0.00  -0.01  -0.01    -0.04  -0.00   0.00
  13   1     0.04  -0.04   0.09    -0.01   0.01  -0.02    -0.01   0.06  -0.03
  14   1    -0.01  -0.03  -0.00    -0.00   0.02  -0.01    -0.03   0.04  -0.03
  15   1     0.27  -0.10   0.07    -0.14   0.05  -0.02    -0.25   0.08  -0.03
  16   1     0.14  -0.07   0.08     0.02  -0.00  -0.01     0.20  -0.05   0.02
  17   1     0.51  -0.30   0.17    -0.14   0.03  -0.01    -0.34  -0.35   0.13
  18   1     0.29  -0.15   0.11    -0.05   0.01   0.03     0.20  -0.11   0.07
  19   1     0.12   0.02  -0.05     0.02  -0.01   0.01    -0.02   0.03  -0.02
  20   1    -0.16  -0.08   0.02    -0.04   0.03   0.01    -0.00  -0.02  -0.00
  21   1     0.19   0.06  -0.06    -0.29  -0.23   0.04     0.01   0.00  -0.00
  22   1     0.19  -0.08   0.05     0.15  -0.55   0.19     0.04   0.11  -0.05
  23   1     0.00   0.00   0.01     0.00   0.01   0.03     0.00  -0.00   0.00
  24   1    -0.01   0.04  -0.03     0.18  -0.03  -0.01     0.11  -0.05   0.02
  25   1     0.15  -0.08   0.06     0.30  -0.17   0.14    -0.23   0.09   0.01
  26   1     0.01  -0.02  -0.01     0.09  -0.01  -0.05    -0.33  -0.23   0.04
  27   1    -0.06  -0.04   0.01    -0.18  -0.09   0.03    -0.28  -0.11   0.05
                     46                     47                     48
                        a                      a                      a 
 Frequencies --  1332.9590              1339.0486              1340.6437
 Red. masses --     3.8356                 4.1939                 3.7453
 Frc consts  --     0.0000                 0.0000                 0.0000
 IR Inten    --     0.2366                15.5456                40.0497
 Raman Activ --     0.0000                 0.0000                 0.0000
 Depolar     --     0.0000                 0.0000                 0.0000
 Atom AN      X      Y      Z        X      Y      Z        X      Y      Z
   1   7    -0.01  -0.00  -0.01    -0.02   0.03  -0.04     0.02  -0.12   0.17
   2   6    -0.02  -0.02   0.00    -0.06  -0.01   0.00     0.33  -0.06   0.09
   3   6     0.01   0.21  -0.05     0.00   0.16  -0.06    -0.14   0.14  -0.11
   4   6     0.22  -0.09   0.05     0.17  -0.20   0.01    -0.04  -0.02  -0.04
   5   6    -0.22  -0.12   0.01     0.22   0.21  -0.12     0.01   0.00   0.01
   6   6     0.00   0.13  -0.05    -0.05  -0.14   0.05     0.02  -0.02   0.02
   7   6     0.01  -0.01  -0.02    -0.01   0.02   0.03     0.00  -0.00  -0.01
   8   8    -0.00   0.00   0.01     0.00  -0.00  -0.01    -0.00   0.00   0.00
   9   8     0.00   0.00   0.00     0.00  -0.01  -0.00    -0.01  -0.00  -0.00
  10   6     0.15  -0.06   0.03    -0.08   0.12  -0.01    -0.04   0.06   0.01
  11   6    -0.16  -0.10   0.04    -0.10  -0.11   0.10    -0.03  -0.08   0.02
  12   1     0.02  -0.01   0.00     0.04  -0.01   0.01    -0.08  -0.01  -0.18
  13   1     0.01  -0.01   0.03     0.03  -0.06   0.08    -0.06   0.12  -0.17
  14   1     0.02   0.00  -0.00     0.05  -0.02   0.01    -0.06   0.20  -0.07
  15   1    -0.05   0.01  -0.02     0.05  -0.02   0.02    -0.44   0.16  -0.15
  16   1     0.06   0.00   0.00     0.08  -0.01   0.02    -0.44   0.13  -0.10
  17   1    -0.03  -0.32   0.12    -0.01  -0.29   0.11     0.29  -0.14   0.06
  18   1    -0.04   0.02  -0.01    -0.26   0.09   0.00     0.11  -0.06   0.04
  19   1    -0.38   0.17  -0.08    -0.21   0.13  -0.08     0.07  -0.01  -0.01
  20   1     0.36   0.22  -0.07    -0.29  -0.24   0.06    -0.06  -0.05   0.01
  21   1     0.06   0.06   0.00    -0.29  -0.14   0.06     0.04  -0.00  -0.02
  22   1    -0.00  -0.25   0.09     0.05   0.27  -0.10    -0.02   0.06  -0.02
  23   1    -0.00  -0.00   0.00     0.00   0.00  -0.00     0.00  -0.00   0.00
  24   1    -0.25   0.12  -0.06     0.14  -0.11   0.06     0.02  -0.02   0.02
  25   1    -0.00   0.01  -0.01     0.09  -0.03   0.01     0.09  -0.03  -0.00
  26   1     0.03   0.01  -0.00     0.11   0.03  -0.03     0.02  -0.01  -0.01
  27   1     0.26   0.16  -0.05     0.16   0.14  -0.03     0.10   0.07  -0.03
                     49                     50                     51
                        a                      a                      a 
 Frequencies --  1357.3001              1359.3489              1368.5463
 Red. masses --     4.8107                 4.6507                 2.9076
 Frc consts  --     0.0000                 0.0000                 0.0000
 IR Inten    --     1.3683                 3.6429               273.9376
 Raman Activ --     0.0000                 0.0000                 0.0000
 Depolar     --     0.0000                 0.0000                 0.0000
 Atom AN      X      Y      Z        X      Y      Z        X      Y      Z
   1   7    -0.01  -0.01  -0.01    -0.04   0.02  -0.03     0.27  -0.12   0.17
   2   6     0.07   0.02   0.03    -0.02  -0.01  -0.02    -0.15   0.04  -0.02
   3   6    -0.34  -0.06   0.05     0.04   0.05   0.03     0.02  -0.04   0.04
   4   6     0.29  -0.10   0.04     0.03   0.03   0.00     0.05  -0.01   0.00
   5   6    -0.06   0.02  -0.03    -0.21  -0.11   0.02    -0.02   0.00  -0.01
   6   6     0.01  -0.01  -0.04     0.28  -0.08  -0.02     0.02  -0.01   0.00
   7   6    -0.00   0.00   0.01     0.00  -0.01  -0.01     0.00   0.00  -0.01
   8   8    -0.00   0.00  -0.00     0.00   0.00   0.02    -0.00   0.00   0.00
   9   8    -0.00  -0.00  -0.00    -0.05   0.00  -0.03    -0.00  -0.00  -0.00
  10   6    -0.05  -0.05  -0.00    -0.35   0.19  -0.06    -0.04   0.03  -0.02
  11   6     0.29   0.15  -0.07     0.03  -0.06   0.06    -0.03  -0.01   0.01
  12   1    -0.03   0.01   0.00     0.07  -0.02   0.01    -0.39   0.09  -0.15
  13   1     0.01   0.06   0.04     0.02  -0.06   0.06    -0.11   0.23  -0.47
  14   1     0.04   0.02  -0.01     0.05  -0.02   0.01    -0.46   0.15  -0.11
  15   1     0.06  -0.01   0.01    -0.03   0.01   0.01     0.23  -0.08   0.02
  16   1    -0.07  -0.00   0.01     0.06  -0.02   0.01     0.21  -0.03   0.04
  17   1     0.38   0.09   0.01    -0.07  -0.04   0.02    -0.02  -0.00   0.01
  18   1    -0.28   0.13  -0.04     0.07  -0.02  -0.00    -0.05   0.03  -0.01
  19   1    -0.32   0.12  -0.06    -0.08   0.03  -0.01    -0.07   0.03  -0.02
  20   1     0.10   0.04  -0.01     0.23   0.13  -0.04     0.02   0.01  -0.00
  21   1    -0.05  -0.00   0.02     0.21   0.14  -0.04    -0.00   0.01   0.01
  22   1    -0.00  -0.01  -0.01    -0.28   0.12  -0.05    -0.02   0.01  -0.01
  23   1    -0.00  -0.00   0.00    -0.00   0.00  -0.01     0.00  -0.00   0.00
  24   1     0.09  -0.02   0.01     0.44  -0.22   0.11     0.06  -0.03   0.01
  25   1    -0.07   0.02   0.01     0.31  -0.14   0.06     0.04  -0.02   0.01
  26   1    -0.26  -0.13   0.07     0.12   0.02  -0.04     0.08   0.05  -0.01
  27   1    -0.34  -0.19   0.05    -0.07  -0.01   0.01     0.00   0.01  -0.00
                     52                     53                     54
                        a                      a                      a 
 Frequencies --  1392.4913              1400.0749              1473.3600
 Red. masses --     1.6353                 1.6791                 1.8452
 Frc consts  --     0.0000                 0.0000                 0.0000
 IR Inten    --   121.0898               105.4502                10.8732
 Raman Activ --     0.0000                 0.0000                 0.0000
 Depolar     --     0.0000                 0.0000                 0.0000
 Atom AN      X      Y      Z        X      Y      Z        X      Y      Z
   1   7    -0.03  -0.20  -0.04    -0.09  -0.02   0.17    -0.01  -0.01   0.01
   2   6    -0.06  -0.03  -0.02    -0.11   0.02   0.02    -0.10  -0.11   0.22
   3   6     0.04  -0.02   0.01     0.03  -0.02   0.01     0.00  -0.01   0.01
   4   6    -0.02   0.01   0.00    -0.00   0.00   0.01     0.02   0.03  -0.04
   5   6    -0.00  -0.00   0.00     0.00   0.00  -0.00     0.00  -0.00  -0.00
   6   6     0.00  -0.00   0.00    -0.01   0.01  -0.00     0.00  -0.00   0.00
   7   6     0.00   0.00  -0.00     0.00  -0.00   0.00     0.00   0.00   0.00
   8   8     0.00  -0.00   0.00    -0.00  -0.00  -0.00    -0.00  -0.00  -0.00
   9   8    -0.00  -0.00  -0.00     0.00   0.00   0.00    -0.00  -0.00  -0.00
  10   6    -0.01   0.01  -0.01     0.01  -0.02   0.00    -0.00  -0.00   0.00
  11   6    -0.03  -0.02   0.01     0.02  -0.01  -0.01    -0.00   0.04   0.01
  12   1    -0.39   0.07  -0.14     0.31  -0.12  -0.61     0.02  -0.01   0.03
  13   1     0.07   0.57   0.37     0.01  -0.29   0.05     0.00  -0.01   0.02
  14   1     0.48   0.21  -0.06     0.11   0.53  -0.21     0.02  -0.03   0.02
  15   1     0.08  -0.04   0.03     0.11  -0.04   0.01     0.10  -0.12  -0.65
  16   1     0.03   0.02  -0.01     0.12  -0.02   0.04     0.23   0.57  -0.24
  17   1    -0.05   0.02  -0.01    -0.01   0.03  -0.01     0.01   0.01  -0.00
  18   1     0.01  -0.00  -0.01    -0.01   0.00  -0.01    -0.02   0.01   0.11
  19   1     0.02  -0.01   0.01     0.00  -0.00   0.00    -0.05  -0.10   0.03
  20   1     0.00   0.00  -0.00     0.00   0.00  -0.00    -0.01   0.01  -0.00
  21   1     0.01   0.00  -0.00    -0.01  -0.00   0.00    -0.00   0.01   0.01
  22   1    -0.00  -0.00   0.00     0.01  -0.01   0.00     0.00   0.00  -0.00
  23   1    -0.00  -0.00  -0.00     0.00   0.00   0.00     0.00  -0.00   0.00
  24   1     0.00  -0.00   0.00    -0.02   0.01  -0.00     0.01   0.01  -0.00
  25   1     0.01  -0.00   0.00    -0.02   0.01   0.00    -0.00   0.00  -0.01
  26   1     0.05   0.03  -0.00    -0.04   0.01   0.04     0.01  -0.04  -0.06
  27   1     0.02   0.03  -0.01    -0.04   0.03  -0.02     0.01  -0.07   0.03
                     55                     56                     57
                        a                      a                      a 
 Frequencies --  1492.1810              1501.0804              1503.7472
 Red. masses --     1.9032                 1.9210                 1.9448
 Frc consts  --     0.0000                 0.0000                 0.0000
 IR Inten    --     0.1320                 2.9790                 1.2439
 Raman Activ --     0.0000                 0.0000                 0.0000
 Depolar     --     0.0000                 0.0000                 0.0000
 Atom AN      X      Y      Z        X      Y      Z        X      Y      Z
   1   7     0.01   0.00  -0.01    -0.00  -0.00   0.01     0.00  -0.00   0.00
   2   6    -0.02  -0.02   0.04    -0.01  -0.00   0.01    -0.01  -0.01   0.01
   3   6     0.01  -0.02   0.00    -0.03  -0.01   0.02    -0.01   0.01   0.00
   4   6    -0.07  -0.07   0.11    -0.06  -0.09   0.14    -0.06  -0.09   0.11
   5   6    -0.02   0.03   0.02    -0.08   0.12   0.05     0.10  -0.13  -0.04
   6   6    -0.00   0.02  -0.01    -0.00   0.01  -0.00    -0.00  -0.01   0.00
   7   6    -0.00  -0.00  -0.00     0.00  -0.00   0.00     0.01  -0.00  -0.00
   8   8     0.00   0.00  -0.00    -0.00   0.00  -0.00    -0.00  -0.00   0.00
   9   8     0.00   0.00   0.00    -0.00   0.00  -0.00    -0.00  -0.00  -0.00
  10   6     0.02   0.01  -0.04     0.02   0.01  -0.01    -0.09  -0.08   0.13
  11   6     0.11  -0.19  -0.06    -0.06   0.15   0.03    -0.00   0.01   0.01
  12   1    -0.01   0.00   0.06     0.01  -0.00  -0.03     0.00  -0.00  -0.00
  13   1    -0.00   0.00  -0.00    -0.00  -0.00   0.00     0.00  -0.00   0.00
  14   1    -0.01  -0.04   0.02     0.01   0.02  -0.01     0.00   0.00  -0.00
  15   1     0.01  -0.02  -0.12     0.02  -0.01  -0.04     0.00  -0.01  -0.04
  16   1     0.04   0.11  -0.05     0.03   0.03  -0.01     0.02   0.03  -0.01
  17   1    -0.00  -0.00  -0.00     0.01   0.01   0.00     0.01  -0.01   0.01
  18   1     0.07  -0.02  -0.35     0.06  -0.02  -0.42     0.06  -0.03  -0.32
  19   1     0.16   0.30  -0.09     0.17   0.38  -0.11     0.15   0.29  -0.09
  20   1     0.06  -0.08   0.04     0.20  -0.26   0.14    -0.23   0.29  -0.15
  21   1     0.02  -0.07  -0.09     0.08  -0.22  -0.28    -0.10   0.22   0.32
  22   1     0.01  -0.01   0.00    -0.01  -0.00   0.00    -0.01  -0.00   0.00
  23   1     0.00   0.00   0.00     0.00  -0.00  -0.00     0.00   0.00  -0.00
  24   1    -0.05  -0.10   0.02    -0.03  -0.03   0.01     0.22   0.36  -0.09
  25   1    -0.02  -0.00   0.12    -0.02   0.01   0.04     0.09  -0.02  -0.42
  26   1    -0.11   0.31   0.42     0.06  -0.21  -0.29     0.00  -0.04  -0.04
  27   1    -0.29   0.42  -0.19     0.19  -0.30   0.14     0.02  -0.04   0.02
                     58                     59                     60
                        a                      a                      a 
 Frequencies --  1511.3282              1726.4776              2888.3013
 Red. masses --     1.9368                13.3636                 1.7455
 Frc consts  --     0.0000                 0.0000                 0.0000
 IR Inten    --     0.5664               728.7561                32.9991
 Raman Activ --     0.0000                 0.0000                 0.0000
 Depolar     --     0.0000                 0.0000                 0.0000
 Atom AN      X      Y      Z        X      Y      Z        X      Y      Z
   1   7     0.00   0.00  -0.00    -0.00   0.00   0.00     0.00  -0.00  -0.00
   2   6    -0.00  -0.00  -0.01     0.00  -0.00   0.00    -0.00  -0.01  -0.00
   3   6     0.02   0.01  -0.00     0.00   0.00   0.00    -0.02   0.09   0.24
   4   6     0.02   0.04  -0.05    -0.00  -0.01   0.00    -0.01  -0.02  -0.01
   5   6    -0.08   0.14   0.04     0.01   0.01   0.00    -0.00   0.00  -0.01
   6   6    -0.03   0.00   0.01     0.07  -0.01  -0.00     0.00   0.00   0.01
   7   6     0.01   0.00  -0.00    -0.62   0.04  -0.48    -0.00   0.00   0.00
   8   8    -0.00  -0.00   0.00     0.03  -0.00   0.04    -0.00  -0.00  -0.00
   9   8     0.00   0.00   0.00     0.46  -0.03   0.39     0.00  -0.00   0.00
  10   6    -0.09  -0.11   0.16     0.01  -0.00   0.01    -0.00  -0.00  -0.00
  11   6     0.02  -0.06  -0.00    -0.00   0.00  -0.00    -0.00   0.01  -0.02
  12   1    -0.00   0.00   0.01     0.00  -0.00  -0.00    -0.00  -0.00   0.00
  13   1    -0.00   0.00  -0.00    -0.00  -0.00   0.00    -0.00  -0.00   0.00
  14   1    -0.00  -0.01   0.00     0.00   0.00  -0.00    -0.00   0.00  -0.00
  15   1    -0.00   0.00   0.01     0.00  -0.00  -0.00     0.01   0.01  -0.00
  16   1     0.00  -0.01   0.00     0.00   0.00  -0.00    -0.01   0.02   0.04
  17   1    -0.03  -0.00   0.00     0.00   0.00   0.00     0.07  -0.33  -0.89
  18   1    -0.02   0.01   0.15    -0.01   0.00   0.00     0.03   0.05  -0.00
  19   1    -0.07  -0.14   0.04     0.00   0.00  -0.00    -0.00   0.02   0.06
  20   1     0.21  -0.30   0.15     0.00   0.00   0.00     0.00   0.01   0.02
  21   1     0.09  -0.23  -0.31    -0.01  -0.00  -0.00     0.01  -0.01   0.01
  22   1     0.02  -0.00   0.00    -0.06   0.01  -0.01    -0.00  -0.01  -0.03
  23   1     0.00   0.00   0.00    -0.01  -0.00  -0.07     0.00   0.00  -0.00
  24   1     0.24   0.44  -0.11     0.01  -0.00   0.00     0.00   0.00   0.01
  25   1     0.10  -0.03  -0.49    -0.00   0.00  -0.01     0.01   0.01  -0.00
  26   1    -0.03   0.07   0.10    -0.00  -0.00   0.00     0.02  -0.03   0.03
  27   1    -0.07   0.11  -0.05     0.00  -0.00   0.00    -0.00   0.02   0.05
                     61                     62                     63
                        a                      a                      a 
 Frequencies --  2897.9220              2917.2600              2920.6792
 Red. masses --     1.7497                 1.9310                 1.9174
 Frc consts  --     0.0000                 0.0000                 0.0000
 IR Inten    --    20.1231                65.1944                57.0223
 Raman Activ --     0.0000                 0.0000                 0.0000
 Depolar     --     0.0000                 0.0000                 0.0000
 Atom AN      X      Y      Z        X      Y      Z        X      Y      Z
   1   7     0.00  -0.00  -0.00    -0.00   0.00   0.00    -0.00   0.00   0.00
   2   6    -0.00  -0.00   0.00    -0.00  -0.00  -0.00     0.00   0.00   0.00
   3   6    -0.00   0.00   0.01     0.00  -0.00  -0.00     0.00   0.00   0.00
   4   6     0.00   0.00   0.00    -0.00   0.00   0.01     0.01   0.04   0.03
   5   6     0.01  -0.01   0.04    -0.08   0.06  -0.19    -0.06   0.06  -0.16
   6   6    -0.00  -0.09  -0.24    -0.00   0.00  -0.01    -0.00  -0.02  -0.06
   7   6    -0.00  -0.00  -0.01    -0.00   0.00  -0.00    -0.00  -0.00  -0.00
   8   8    -0.00  -0.00   0.00    -0.00   0.00   0.00     0.00   0.00  -0.00
   9   8     0.00   0.00   0.00     0.00  -0.00   0.00     0.00  -0.00   0.00
  10   6     0.01   0.04   0.02     0.06   0.16   0.09    -0.06  -0.17  -0.09
  11   6     0.00  -0.00   0.00     0.00  -0.00  -0.01     0.00  -0.00   0.03
  12   1     0.00   0.00  -0.00     0.00  -0.00   0.00     0.00   0.00   0.00
  13   1    -0.00  -0.00  -0.00    -0.00   0.00   0.00    -0.00   0.00   0.00
  14   1    -0.00   0.00   0.00     0.00   0.00  -0.00     0.00  -0.00  -0.00
  15   1     0.00   0.00  -0.00     0.00   0.00  -0.00    -0.00  -0.00   0.00
  16   1    -0.00   0.00   0.00    -0.00   0.00   0.00     0.00   0.00  -0.00
  17   1     0.00  -0.01  -0.04    -0.00   0.00   0.01     0.00   0.00   0.00
  18   1    -0.01  -0.01  -0.00     0.01   0.01   0.00    -0.05  -0.10   0.00
  19   1    -0.00  -0.00  -0.00     0.00  -0.02  -0.06     0.01  -0.04  -0.12
  20   1     0.01  -0.05  -0.10    -0.04   0.15   0.31    -0.03   0.13   0.26
  21   1    -0.06   0.07  -0.07     0.31  -0.38   0.37     0.26  -0.33   0.32
  22   1     0.01   0.32   0.88     0.00   0.00   0.02     0.00   0.07   0.19
  23   1     0.00   0.00  -0.00    -0.00   0.00   0.00     0.00  -0.00   0.00
  24   1     0.01  -0.03  -0.10     0.03  -0.07  -0.29    -0.03   0.07   0.29
  25   1    -0.05  -0.10  -0.00    -0.24  -0.51  -0.02     0.26   0.56   0.03
  26   1    -0.00   0.01  -0.01    -0.01   0.01  -0.01    -0.02   0.03  -0.02
  27   1    -0.00  -0.00  -0.00    -0.00   0.02   0.05     0.01  -0.04  -0.10
                     64                     65                     66
                        a                      a                      a 
 Frequencies --  2924.1366              2928.6453              2955.1827
 Red. masses --     1.9253                 1.9237                 1.5375
 Frc consts  --     0.0000                 0.0000                 0.0000
 IR Inten    --    52.6782                76.3272                67.1122
 Raman Activ --     0.0000                 0.0000                 0.0000
 Depolar     --     0.0000                 0.0000                 0.0000
 Atom AN      X      Y      Z        X      Y      Z        X      Y      Z
   1   7    -0.00  -0.00   0.00    -0.00  -0.00   0.00     0.00   0.00   0.00
   2   6    -0.00  -0.00   0.00     0.00   0.00   0.00    -0.00  -0.00  -0.00
   3   6     0.00   0.01   0.01    -0.00  -0.01  -0.03    -0.00  -0.00  -0.00
   4   6     0.08   0.23   0.11    -0.03  -0.08  -0.03    -0.01  -0.03   0.00
   5   6     0.02  -0.02   0.01    -0.01   0.01  -0.01     0.08  -0.16  -0.12
   6   6     0.00   0.00   0.01    -0.00  -0.00  -0.01    -0.00  -0.01  -0.01
   7   6    -0.00   0.00   0.00     0.00  -0.00  -0.00     0.00  -0.00  -0.00
   8   8     0.00  -0.00  -0.00    -0.00  -0.00   0.00     0.00   0.00   0.00
   9   8    -0.00  -0.00  -0.00    -0.00  -0.00   0.00    -0.00   0.00  -0.00
  10   6     0.00   0.02   0.01    -0.02  -0.03   0.01    -0.01  -0.01   0.04
  11   6    -0.03   0.03  -0.09    -0.09   0.08  -0.24     0.00   0.00   0.01
  12   1     0.00  -0.00   0.00     0.00  -0.00   0.00    -0.00  -0.00  -0.00
  13   1    -0.00  -0.00   0.00     0.00  -0.00  -0.00     0.00   0.00  -0.00
  14   1    -0.00  -0.00  -0.00     0.00  -0.00  -0.00    -0.00   0.00   0.00
  15   1    -0.00   0.00   0.00    -0.00  -0.00  -0.00     0.00   0.00  -0.00
  16   1     0.00  -0.00  -0.00    -0.00  -0.00  -0.01    -0.00   0.00   0.01
  17   1     0.00  -0.02  -0.05    -0.01   0.03   0.08     0.00   0.00   0.01
  18   1    -0.33  -0.71  -0.02     0.12   0.27   0.01     0.06   0.12   0.01
  19   1     0.04  -0.10  -0.38    -0.01   0.03   0.11     0.00  -0.01  -0.03
  20   1    -0.00   0.01   0.05    -0.00   0.00  -0.01    -0.05   0.30   0.76
  21   1    -0.06   0.08  -0.08     0.04  -0.05   0.05    -0.23   0.27  -0.32
  22   1    -0.00  -0.01  -0.04     0.00   0.01   0.04    -0.00   0.01   0.03
  23   1    -0.00  -0.00  -0.00     0.00  -0.00   0.00    -0.00  -0.00   0.00
  24   1     0.01  -0.02  -0.06     0.00  -0.02  -0.05     0.01  -0.05  -0.15
  25   1    -0.02  -0.04  -0.00     0.06   0.13   0.01     0.04   0.09   0.01
  26   1     0.14  -0.18   0.16     0.37  -0.48   0.45    -0.01   0.01  -0.01
  27   1    -0.02   0.08   0.18    -0.04   0.19   0.40     0.00  -0.01  -0.02
                     67                     68                     69
                        a                      a                      a 
 Frequencies --  2958.5891              2959.7254              2961.2538
 Red. masses --     1.5420                 1.5461                 1.5706
 Frc consts  --     0.0000                 0.0000                 0.0000
 IR Inten    --    48.8333                40.2016               124.4709
 Raman Activ --     0.0000                 0.0000                 0.0000
 Depolar     --     0.0000                 0.0000                 0.0000
 Atom AN      X      Y      Z        X      Y      Z        X      Y      Z
   1   7    -0.00  -0.00   0.00     0.00   0.00  -0.00    -0.00   0.00  -0.00
   2   6    -0.00  -0.00  -0.00     0.01   0.03   0.00    -0.00  -0.02  -0.02
   3   6    -0.00  -0.00  -0.00     0.00  -0.00   0.00    -0.00   0.01   0.02
   4   6    -0.01  -0.01   0.02    -0.04  -0.02   0.15    -0.04  -0.02   0.14
   5   6     0.01  -0.03  -0.02     0.00   0.00   0.03    -0.00   0.01   0.03
   6   6    -0.00  -0.00  -0.02    -0.00   0.00  -0.00     0.00   0.00   0.01
   7   6     0.00   0.00  -0.00     0.00  -0.00  -0.00     0.00   0.00   0.00
   8   8     0.00  -0.00   0.00     0.00  -0.00   0.00    -0.00   0.00   0.00
   9   8    -0.00   0.00  -0.00     0.00   0.00  -0.00    -0.00   0.00  -0.00
  10   6     0.06   0.04  -0.20     0.00  -0.01  -0.03    -0.01   0.01   0.05
  11   6    -0.02   0.04  -0.01     0.05  -0.11  -0.08    -0.05   0.11   0.09
  12   1     0.00  -0.00   0.00    -0.00   0.00  -0.00     0.00  -0.00   0.00
  13   1     0.00   0.00  -0.00    -0.00  -0.00  -0.00     0.00   0.00  -0.00
  14   1    -0.00  -0.00  -0.00    -0.00   0.00   0.00    -0.00  -0.00  -0.00
  15   1     0.00   0.01  -0.00    -0.03  -0.09   0.01     0.01   0.03  -0.00
  16   1    -0.00   0.01   0.01     0.00  -0.01  -0.02    -0.01   0.04   0.08
  17   1     0.00   0.00   0.01     0.00  -0.00  -0.01     0.00  -0.01  -0.04
  18   1     0.02   0.05   0.00     0.13   0.30   0.04     0.11   0.26   0.03
  19   1     0.00  -0.02  -0.06     0.03  -0.21  -0.58     0.03  -0.20  -0.55
  20   1    -0.01   0.05   0.14     0.00  -0.03  -0.06     0.01  -0.05  -0.11
  21   1    -0.04   0.04  -0.05    -0.02   0.02  -0.02    -0.00   0.01  -0.00
  22   1    -0.00   0.02   0.04    -0.00  -0.00   0.00    -0.00  -0.01  -0.03
  23   1    -0.00   0.00   0.00    -0.00   0.00   0.00     0.00   0.00  -0.00
  24   1    -0.05   0.27   0.77    -0.01   0.03   0.10     0.01  -0.06  -0.19
  25   1    -0.18  -0.40  -0.06     0.00   0.00  -0.00     0.01   0.02   0.01
  26   1     0.10  -0.12   0.13    -0.17   0.21  -0.24     0.15  -0.19   0.22
  27   1     0.00  -0.04  -0.11    -0.03   0.19   0.52     0.03  -0.21  -0.55
                     70                     71                     72
                        a                      a                      a 
 Frequencies --  2971.2048              2995.7662              3261.3477
 Red. masses --     1.9579                 1.5333                 2.0487
 Frc consts  --     0.0000                 0.0000                 0.0000
 IR Inten    --    10.5787                17.2462               203.3248
 Raman Activ --     0.0000                 0.0000                 0.0000
 Depolar     --     0.0000                 0.0000                 0.0000
 Atom AN      X      Y      Z        X      Y      Z        X      Y      Z
   1   7     0.00   0.00   0.00    -0.00   0.00  -0.00     0.23   0.08  -0.14
   2   6    -0.06  -0.26  -0.11     0.07   0.04  -0.20     0.00   0.00  -0.00
   3   6    -0.00  -0.01  -0.01     0.01  -0.00  -0.01    -0.00  -0.00  -0.00
   4   6    -0.00   0.00   0.00     0.00   0.00  -0.01    -0.00   0.00   0.00
   5   6    -0.00   0.00   0.00    -0.00  -0.00  -0.00     0.00  -0.00  -0.00
   6   6    -0.00  -0.00  -0.00    -0.00  -0.00  -0.00    -0.00   0.00   0.00
   7   6    -0.00   0.00   0.00    -0.00  -0.00  -0.00    -0.00  -0.00   0.00
   8   8     0.00   0.00   0.00     0.00   0.00   0.00    -0.00  -0.00   0.00
   9   8    -0.00  -0.00  -0.00     0.00  -0.00  -0.00     0.00   0.00  -0.00
  10   6    -0.00  -0.00  -0.00    -0.00  -0.00  -0.00     0.00   0.00  -0.00
  11   6     0.01  -0.02  -0.01     0.00  -0.00  -0.00    -0.00   0.00   0.00
  12   1    -0.01  -0.02   0.00     0.00   0.01  -0.00    -0.10  -0.43   0.01
  13   1    -0.00   0.00   0.00     0.00   0.00  -0.00    -0.76  -0.04   0.21
  14   1     0.00  -0.00  -0.01     0.00  -0.01  -0.02    -0.01   0.15   0.29
  15   1     0.27   0.74  -0.09    -0.18  -0.51   0.02    -0.00  -0.01   0.00
  16   1    -0.06   0.21   0.47    -0.06   0.37   0.71    -0.00   0.00   0.01
  17   1    -0.00   0.01   0.04    -0.00   0.01   0.03    -0.00   0.00   0.00
  18   1     0.00   0.01  -0.00    -0.01  -0.03  -0.00    -0.00   0.00   0.00
  19   1     0.00  -0.01  -0.02    -0.00   0.02   0.05     0.00  -0.00  -0.00
  20   1     0.00  -0.00  -0.00    -0.00   0.00   0.00    -0.00   0.00   0.00
  21   1     0.00  -0.00   0.00     0.00  -0.00   0.00    -0.00  -0.00   0.00
  22   1     0.00   0.00   0.00     0.00   0.00   0.00     0.00  -0.00  -0.00
  23   1     0.00  -0.00  -0.00    -0.00  -0.00  -0.00     0.00  -0.00  -0.00
  24   1    -0.00   0.00   0.01    -0.00   0.00   0.00    -0.00   0.00   0.00
  25   1     0.00   0.01   0.00    -0.00  -0.00  -0.00     0.00  -0.00   0.00
  26   1    -0.03   0.03  -0.04    -0.00   0.00  -0.00     0.00  -0.00  -0.00
  27   1    -0.00   0.04   0.10     0.00   0.01   0.01     0.00  -0.00  -0.00
                     73                     74                     75
                        a                      a                      a 
 Frequencies --  3267.3257              3289.5652              3564.2963
 Red. masses --     2.0516                 1.2839                 1.8627
 Frc consts  --     0.0000                 0.0000                 0.0000
 IR Inten    --   168.7568                60.4168               179.8423
 Raman Activ --     0.0000                 0.0000                 0.0000
 Depolar     --     0.0000                 0.0000                 0.0000
 Atom AN      X      Y      Z        X      Y      Z        X      Y      Z
   1   7    -0.01  -0.23  -0.16     0.08  -0.08   0.09     0.00   0.00  -0.00
   2   6    -0.00  -0.01  -0.00     0.00  -0.01   0.01    -0.00  -0.00  -0.00
   3   6    -0.00  -0.00   0.00    -0.00  -0.00  -0.00    -0.00   0.00   0.00
   4   6     0.00  -0.00   0.00    -0.00  -0.00   0.00    -0.00  -0.00  -0.00
   5   6    -0.00   0.00  -0.00     0.00  -0.00   0.00    -0.00   0.00   0.00
   6   6     0.00   0.00   0.00     0.00   0.00   0.00    -0.00  -0.00   0.00
   7   6    -0.00   0.00   0.00    -0.00   0.00  -0.00     0.00  -0.00  -0.01
   8   8     0.00  -0.00   0.00    -0.00   0.00  -0.00     0.23  -0.02  -0.04
   9   8     0.00  -0.00  -0.00     0.00  -0.00   0.00     0.00  -0.00   0.00
  10   6     0.00  -0.00   0.00     0.00   0.00   0.00    -0.00  -0.00   0.00
  11   6    -0.00   0.00  -0.00    -0.00   0.00  -0.00    -0.00  -0.00  -0.00
  12   1     0.17   0.59  -0.05     0.17   0.59  -0.03    -0.00  -0.00   0.00
  13   1    -0.04  -0.02  -0.01    -0.54  -0.04   0.16    -0.00  -0.00   0.00
  14   1    -0.08   0.30   0.67     0.06  -0.23  -0.48    -0.00   0.00   0.00
  15   1     0.00   0.01  -0.00     0.00   0.01  -0.00     0.00   0.00   0.00
  16   1    -0.00   0.01   0.01     0.00  -0.00  -0.01     0.00   0.00   0.00
  17   1    -0.00   0.00   0.00     0.00  -0.00   0.00     0.00  -0.00  -0.00
  18   1     0.00   0.00  -0.00     0.00   0.00  -0.00    -0.00  -0.00   0.00
  19   1     0.00  -0.00  -0.00     0.00  -0.00  -0.00     0.00   0.00   0.00
  20   1     0.00   0.00   0.00     0.00   0.00   0.00     0.00  -0.00  -0.00
  21   1     0.00  -0.00   0.00    -0.00   0.00  -0.00     0.00  -0.00   0.00
  22   1    -0.00  -0.00  -0.00     0.00  -0.00  -0.00     0.00   0.00   0.00
  23   1     0.00  -0.00  -0.00     0.00  -0.00   0.00    -0.94   0.09   0.21
  24   1    -0.00   0.00   0.00    -0.00   0.00   0.00     0.00  -0.00  -0.00
  25   1    -0.00   0.00   0.00    -0.00  -0.00  -0.00     0.00   0.00  -0.00
  26   1     0.00  -0.00   0.00     0.00   0.00   0.00    -0.00   0.00  -0.00
  27   1    -0.00   0.00   0.00     0.00  -0.00  -0.00     0.00   0.00   0.00
