 Entering Gaussian System
 *********************************************
 Gaussian 98:
 frequency output generated by the xtb code
 *********************************************
                         Standard orientation:
 --------------------------------------------------------------------
  Center     Atomic     Atomic              Coordinates (Angstroms)
  Number     Number      Type              X           Y           Z
 --------------------------------------------------------------------
    1          7             0        1.314200    0.654326    1.898724
    2          6             0        2.666182    1.184689    1.566719
    3          6             0        2.634003    2.122747    0.357247
    4          6             0        2.558064    1.396825   -1.005461
    5          6             0        1.161781    1.253771   -1.619276
    6          7             0        0.258448    0.322467   -0.926782
    7          6             0        0.268600   -1.123714   -1.269699
    8          6             0       -1.061291   -1.659306   -0.610983
    9          6             0       -0.838411   -2.539185    0.582227
   10          6             0        0.361098   -2.988651    0.944344
   11          6             0        1.549567   -2.668058    0.193169
   12          6             0        1.519288   -1.825470   -0.833792
   13          6             0       -0.994428    0.720445   -0.425538
   14          6             0       -1.812073   -0.401101   -0.237243
   15          6             0       -3.099891   -0.254143    0.228351
   16          6             0       -3.572113    1.014780    0.512801
   17          6             0       -2.764358    2.125495    0.332876
   18          6             0       -1.475530    1.991228   -0.136008
   19          1             0        1.343008   -0.195643    2.479726
   20          1             0        0.847486    0.439887    0.996276
   21          1             0        0.738675    1.360130    2.378035
   22          1             0        3.351527    0.353765    1.364168
   23          1             0        3.074608    1.692268    2.449007
   24          1             0        3.529476    2.757412    0.380603
   25          1             0        1.793257    2.817082    0.453659
   26          1             0        3.018509    0.409353   -0.910991
   27          1             0        3.193754    1.928050   -1.726165
   28          1             0        1.234056    0.909959   -2.655256
   29          1             0        0.676916    2.231204   -1.671266
   30          1             0        0.181186   -1.188255   -2.364899
   31          1             0       -1.641767   -2.218084   -1.358711
   32          1             0       -1.698741   -2.787069    1.182821
   33          1             0        0.457237   -3.615590    1.815945
   34          1             0        2.475755   -3.145882    0.467627
   35          1             0        2.420677   -1.642175   -1.393846
   36          1             0       -3.723245   -1.120900    0.363495
   37          1             0       -4.578281    1.139286    0.877744
   38          1             0       -3.148722    3.106308    0.560726
   39          1             0       -0.847156    2.852934   -0.270612
 --------------------------------------------------------------------
     1 basis functions        1 primitive gaussians
     1 alpha electrons        1 beta electrons

 Harmonic frequencies (cm**-1), IR intensities (km*mol⁻¹),
 Raman scattering activities (A**4/amu), Raman depolarization ratios,
 reduced masses (AMU), force constants (mDyne/A) and normal coordinates:
                      1                      2                      3
                        a                      a                      a 
 Frequencies --  -104.1025               -13.8523                42.0981
 Red. masses --    10.7416                10.2450                 9.5181
 Frc consts  --     0.0000                 0.0000                 0.0000
 IR Inten    --    71.2771                 3.3706                 4.9446
 Raman Activ --     0.0000                 0.0000                 0.0000
 Depolar     --     0.0000                 0.0000                 0.0000
 Atom AN      X      Y      Z        X      Y      Z        X      Y      Z
   1   7    -0.01  -0.21  -0.58    -0.05  -0.30   0.01    -0.27   0.03  -0.12
   2   6     0.00   0.02  -0.06    -0.02  -0.34   0.02    -0.26   0.23   0.18
   3   6     0.16   0.06  -0.03     0.00  -0.22   0.10    -0.15   0.09   0.07
   4   6     0.06   0.07  -0.03    -0.01  -0.09   0.03     0.02  -0.09   0.16
   5   6    -0.01   0.05   0.17    -0.01   0.02   0.01     0.09  -0.12  -0.01
   6   7     0.14   0.03   0.42    -0.06   0.03  -0.06     0.03  -0.08  -0.02
   7   6     0.04   0.06   0.14    -0.07   0.03  -0.06    -0.08  -0.06  -0.05
   8   6     0.02   0.03   0.06     0.02   0.02   0.09    -0.01  -0.01   0.11
   9   6     0.00   0.04   0.07     0.18   0.21   0.20     0.13   0.04   0.13
  10   6    -0.01  -0.03   0.03     0.25   0.37   0.17     0.15  -0.06  -0.09
  11   6    -0.01  -0.08   0.00     0.15   0.25  -0.04     0.05  -0.17  -0.29
  12   6     0.01  -0.04   0.04    -0.01   0.05  -0.19    -0.05  -0.13  -0.26
  13   6    -0.04   0.02   0.11    -0.05   0.03  -0.05     0.04  -0.01  -0.02
  14   6    -0.03   0.01  -0.00    -0.03   0.02   0.00     0.03   0.02   0.09
  15   6    -0.07  -0.01  -0.09    -0.03   0.00   0.00     0.06   0.08   0.15
  16   6    -0.10  -0.02  -0.11    -0.06   0.00  -0.06     0.11   0.11   0.10
  17   6    -0.10  -0.00  -0.04    -0.09   0.02  -0.11     0.11   0.09  -0.03
  18   6    -0.06   0.01   0.07    -0.09   0.03  -0.11     0.08   0.02  -0.10
  19   1    -0.03  -0.07  -0.18    -0.03  -0.12  -0.05    -0.07   0.04   0.01
  20   1     0.10  -0.05  -0.24    -0.04  -0.01  -0.00     0.02  -0.06  -0.07
  21   1    -0.08  -0.09  -0.20     0.02  -0.09   0.06    -0.15  -0.00  -0.11
  22   1     0.05   0.04   0.02    -0.02  -0.11  -0.03    -0.02   0.10   0.12
  23   1    -0.09   0.01   0.02     0.01  -0.13   0.01    -0.16   0.11   0.06
  24   1     0.07  -0.02  -0.00     0.01  -0.07   0.05    -0.05   0.03   0.03
  25   1     0.07   0.05  -0.01     0.01  -0.06   0.05    -0.05   0.02  -0.03
  26   1     0.03   0.02  -0.02    -0.02  -0.04  -0.01    -0.01  -0.03   0.10
  27   1    -0.01   0.03  -0.03     0.01  -0.02   0.03     0.04  -0.06   0.05
  28   1    -0.05   0.01   0.05    -0.00   0.02  -0.00     0.06  -0.07   0.01
  29   1    -0.01   0.01   0.07     0.01   0.01   0.02     0.03  -0.04  -0.05
  30   1     0.00   0.07   0.04    -0.06   0.01  -0.02    -0.07  -0.01  -0.01
  31   1     0.02  -0.00   0.01    -0.00  -0.03   0.06    -0.02  -0.02   0.06
  32   1     0.00   0.02   0.03     0.07   0.07   0.09     0.06   0.04   0.09
  33   1    -0.00  -0.01   0.01     0.11   0.15   0.08     0.07  -0.01  -0.03
  34   1    -0.01  -0.04  -0.01     0.05   0.08  -0.03     0.02  -0.07  -0.13
  35   1     0.00  -0.01   0.01    -0.03  -0.02  -0.11    -0.04  -0.04  -0.11
  36   1    -0.02  -0.00  -0.04    -0.00  -0.00   0.01     0.01   0.03   0.07
  37   1    -0.03  -0.01  -0.05    -0.02  -0.00  -0.02     0.04   0.05   0.04
  38   1    -0.04  -0.00  -0.01    -0.03   0.00  -0.04     0.04   0.03  -0.03
  39   1    -0.01   0.00   0.05    -0.03   0.01  -0.04     0.03   0.00  -0.06
                      4                      5                      6
                        a                      a                      a 
 Frequencies --    56.3237                75.0517                94.2255
 Red. masses --    10.2731                 9.8823                 9.3654
 Frc consts  --     0.0000                 0.0000                 0.0000
 IR Inten    --    12.5721                 1.1379                13.9771
 Raman Activ --     0.0000                 0.0000                 0.0000
 Depolar     --     0.0000                 0.0000                 0.0000
 Atom AN      X      Y      Z        X      Y      Z        X      Y      Z
   1   7     0.22   0.28   0.26     0.02  -0.04   0.09    -0.46   0.44  -0.07
   2   6     0.22   0.12   0.05     0.04  -0.17  -0.05    -0.18  -0.23  -0.08
   3   6     0.19   0.00  -0.03     0.00  -0.04   0.04     0.26  -0.18  -0.05
   4   6     0.02  -0.11   0.04    -0.01   0.10  -0.03     0.08  -0.08  -0.09
   5   6    -0.03  -0.02   0.15    -0.02   0.08  -0.01     0.02   0.05   0.03
   6   7    -0.01  -0.03   0.19    -0.02   0.11   0.02     0.03   0.04   0.03
   7   6    -0.09   0.01   0.00     0.04   0.07   0.15     0.05   0.04   0.01
   8   6    -0.04  -0.02   0.07     0.06   0.07   0.18     0.05   0.01  -0.01
   9   6     0.07   0.08   0.12     0.07  -0.11   0.05     0.04  -0.00  -0.02
  10   6     0.09  -0.01  -0.06     0.04  -0.35  -0.16     0.04  -0.01  -0.02
  11   6    -0.00  -0.15  -0.26     0.03  -0.22  -0.12     0.04  -0.00  -0.02
  12   6    -0.08  -0.10  -0.23     0.06   0.08   0.13     0.05   0.03   0.01
  13   6    -0.04  -0.03   0.10    -0.04   0.09  -0.02     0.01   0.01   0.03
  14   6    -0.08  -0.02  -0.01     0.05   0.06   0.19     0.03  -0.01   0.00
  15   6    -0.14  -0.02  -0.19     0.06   0.04   0.23     0.03  -0.05   0.02
  16   6    -0.18  -0.02  -0.25    -0.05   0.05  -0.03     0.02  -0.06   0.08
  17   6    -0.13  -0.03  -0.10    -0.17   0.09  -0.32    -0.01  -0.05   0.10
  18   6    -0.06  -0.03   0.10    -0.17   0.11  -0.30    -0.01  -0.01   0.08
  19   1     0.06   0.11   0.12    -0.00  -0.04  -0.02    -0.23   0.15   0.03
  20   1     0.03   0.03   0.10    -0.05   0.06   0.04    -0.12   0.11  -0.02
  21   1     0.08   0.11   0.04     0.06  -0.01   0.09    -0.05   0.21  -0.07
  22   1     0.04   0.01   0.02    -0.02  -0.07  -0.06    -0.17  -0.16  -0.03
  23   1     0.10   0.05  -0.01     0.06  -0.09  -0.02     0.02  -0.12  -0.02
  24   1     0.07  -0.02  -0.05    -0.00  -0.01   0.02     0.14  -0.15   0.01
  25   1     0.07   0.02  -0.01    -0.00  -0.02   0.04     0.15   0.04  -0.03
  26   1    -0.02  -0.05   0.03     0.02   0.04  -0.04     0.01  -0.03  -0.06
  27   1     0.01  -0.07  -0.01    -0.02   0.06  -0.00     0.01  -0.02  -0.03
  28   1    -0.04   0.01   0.03    -0.01   0.02  -0.00    -0.03   0.04  -0.00
  29   1     0.00   0.00   0.07    -0.00   0.02  -0.00     0.02   0.02   0.05
  30   1    -0.06   0.04   0.00     0.01  -0.00   0.04     0.02   0.02   0.00
  31   1    -0.01  -0.03   0.04     0.01   0.04   0.04     0.02   0.00  -0.01
  32   1     0.04   0.06   0.08     0.03  -0.03   0.03     0.01  -0.00  -0.01
  33   1     0.05   0.01  -0.01     0.01  -0.16  -0.09     0.01  -0.01  -0.01
  34   1    -0.00  -0.07  -0.12     0.01  -0.08  -0.07     0.01  -0.01  -0.01
  35   1    -0.04  -0.05  -0.11     0.02   0.07   0.07     0.01   0.01   0.00
  36   1    -0.05  -0.00  -0.08     0.04   0.00   0.12     0.01  -0.02  -0.00
  37   1    -0.07  -0.00  -0.12    -0.02   0.01  -0.01     0.01  -0.03   0.03
  38   1    -0.04  -0.01  -0.04    -0.08   0.03  -0.17    -0.01  -0.02   0.04
  39   1    -0.01  -0.01   0.06    -0.08   0.04  -0.15    -0.01   0.00   0.03
                      7                      8                      9
                        a                      a                      a 
 Frequencies --   121.7865               175.7949               201.9001
 Red. masses --     9.4099                 9.5362                 9.5056
 Frc consts  --     0.0000                 0.0000                 0.0000
 IR Inten    --     2.1440                 1.6187                 5.2940
 Raman Activ --     0.0000                 0.0000                 0.0000
 Depolar     --     0.0000                 0.0000                 0.0000
 Atom AN      X      Y      Z        X      Y      Z        X      Y      Z
   1   7    -0.13  -0.06   0.10    -0.02   0.00  -0.03    -0.01  -0.11  -0.04
   2   6    -0.14  -0.16  -0.17    -0.02   0.02   0.02    -0.06   0.11   0.06
   3   6    -0.28   0.03  -0.03     0.03  -0.05  -0.04    -0.02  -0.15  -0.14
   4   6    -0.12   0.25  -0.15    -0.03  -0.12   0.00     0.02  -0.40  -0.01
   5   6    -0.10  -0.01  -0.11    -0.05  -0.10   0.05     0.04   0.00  -0.15
   6   7     0.06  -0.04   0.04    -0.06  -0.08   0.07    -0.14   0.16  -0.23
   7   6     0.03  -0.04   0.08    -0.12  -0.04  -0.03     0.06   0.10   0.09
   8   6     0.04  -0.01   0.12    -0.09  -0.07   0.04     0.08   0.09   0.11
   9   6     0.09   0.04   0.16     0.04  -0.37  -0.21     0.10   0.05   0.09
  10   6     0.08  -0.10   0.01     0.14  -0.05  -0.12     0.07  -0.18  -0.08
  11   6     0.05  -0.15  -0.05     0.17   0.38   0.11     0.08  -0.05  -0.01
  12   6     0.05  -0.05   0.04    -0.01   0.17  -0.05     0.11   0.22   0.21
  13   6     0.10  -0.03   0.13     0.02  -0.06   0.19    -0.05   0.12  -0.03
  14   6     0.02   0.01   0.02    -0.01  -0.04   0.23    -0.00   0.08  -0.01
  15   6    -0.06   0.10  -0.23    -0.06   0.11   0.07    -0.07   0.02  -0.17
  16   6     0.00   0.13  -0.25    -0.05   0.18  -0.19    -0.11  -0.02  -0.07
  17   6     0.16   0.07   0.07     0.03   0.13  -0.15    -0.07  -0.01   0.21
  18   6     0.22  -0.01   0.27     0.10  -0.01   0.11    -0.06   0.07   0.18
  19   1    -0.02  -0.03   0.00    -0.01   0.04   0.04     0.02  -0.06  -0.06
  20   1    -0.09   0.01   0.05     0.03  -0.06  -0.01    -0.00   0.01  -0.01
  21   1     0.01  -0.01   0.08    -0.03   0.02  -0.07    -0.02  -0.08   0.03
  22   1    -0.08  -0.06  -0.12     0.00   0.01   0.03     0.04   0.06   0.10
  23   1     0.03  -0.09  -0.05    -0.02   0.02   0.00    -0.09   0.11   0.00
  24   1    -0.11   0.05   0.02     0.02  -0.03  -0.02    -0.01  -0.04  -0.06
  25   1    -0.11  -0.03   0.02     0.02   0.00  -0.02    -0.01  -0.04  -0.09
  26   1     0.04   0.10  -0.10    -0.01  -0.03   0.01    -0.10  -0.15   0.08
  27   1    -0.08   0.15  -0.03    -0.01  -0.05  -0.01     0.10  -0.22  -0.00
  28   1    -0.02  -0.04  -0.02    -0.03  -0.03   0.02     0.00   0.00  -0.05
  29   1    -0.07  -0.02  -0.06    -0.01  -0.03   0.01     0.07   0.03  -0.03
  30   1     0.00  -0.02   0.02    -0.05   0.00  -0.01     0.04  -0.04   0.03
  31   1     0.02  -0.02   0.05    -0.06   0.03  -0.00     0.04   0.01   0.04
  32   1     0.04   0.04   0.08     0.01  -0.25  -0.12     0.03   0.03   0.04
  33   1     0.03  -0.03   0.00     0.05  -0.07  -0.07     0.02  -0.09  -0.05
  34   1     0.01  -0.05  -0.03     0.08   0.20   0.08     0.03  -0.02  -0.02
  35   1     0.01   0.01   0.02    -0.02   0.09  -0.02     0.04   0.09   0.08
  36   1    -0.05   0.04  -0.12    -0.04   0.05   0.03    -0.02  -0.00  -0.09
  37   1    -0.02   0.06  -0.14    -0.03   0.08  -0.12    -0.04  -0.02  -0.05
  38   1     0.07   0.02   0.04     0.01   0.05  -0.09    -0.02  -0.01   0.11
  39   1     0.10  -0.02   0.14     0.06  -0.02   0.04    -0.02   0.03   0.08
                     10                     11                     12
                        a                      a                      a 
 Frequencies --   237.1029               248.4541               261.2116
 Red. masses --    10.3008                 2.7183                 9.8820
 Frc consts  --     0.0000                 0.0000                 0.0000
 IR Inten    --    11.2568                 2.3875                 2.7347
 Raman Activ --     0.0000                 0.0000                 0.0000
 Depolar     --     0.0000                 0.0000                 0.0000
 Atom AN      X      Y      Z        X      Y      Z        X      Y      Z
   1   7     0.05   0.07  -0.19     0.07  -0.10   0.07    -0.01  -0.07  -0.08
   2   6     0.14  -0.02   0.08     0.02  -0.10   0.00    -0.01   0.02   0.05
   3   6     0.27   0.13   0.20    -0.05  -0.10   0.01     0.09   0.01   0.04
   4   6    -0.06   0.21   0.16    -0.06   0.02  -0.06    -0.05   0.05   0.01
   5   6    -0.05   0.09   0.07    -0.08   0.04   0.01    -0.05   0.25  -0.06
   6   7    -0.22  -0.08  -0.37    -0.01   0.00   0.04    -0.08   0.06  -0.40
   7   6    -0.10  -0.14  -0.04     0.03   0.02   0.03     0.01  -0.02  -0.12
   8   6    -0.07  -0.11   0.12     0.02   0.01   0.01     0.04   0.04   0.02
   9   6     0.06  -0.05   0.17     0.05   0.06   0.05    -0.07   0.03   0.03
  10   6     0.07  -0.17  -0.01     0.03  -0.04  -0.03    -0.10   0.05   0.12
  11   6     0.05  -0.02   0.01     0.05  -0.01   0.01    -0.14  -0.08   0.01
  12   6    -0.03   0.07   0.09     0.06   0.08   0.08    -0.06  -0.11  -0.02
  13   6    -0.11  -0.10  -0.18    -0.06   0.01  -0.10     0.16   0.02   0.16
  14   6    -0.14  -0.08  -0.08    -0.05   0.01  -0.10     0.19   0.02   0.25
  15   6    -0.14   0.06  -0.11    -0.04   0.04  -0.07     0.17  -0.10   0.20
  16   6     0.00   0.10  -0.01     0.02   0.03   0.07    -0.06  -0.10  -0.24
  17   6     0.12   0.03   0.11     0.02   0.03   0.04    -0.07  -0.08  -0.16
  18   6     0.04  -0.07  -0.06    -0.04   0.02  -0.11     0.09  -0.02   0.26
  19   1    -0.03  -0.02  -0.10     0.02   0.27   0.45    -0.00   0.05   0.08
  20   1     0.02   0.08  -0.06     0.20  -0.50   0.04     0.06  -0.14  -0.01
  21   1     0.02   0.01  -0.03    -0.15   0.16  -0.44    -0.07   0.02  -0.15
  22   1     0.03  -0.01   0.01     0.00  -0.03   0.01     0.02   0.01   0.04
  23   1     0.03  -0.05   0.06     0.01  -0.02  -0.01    -0.04   0.02   0.02
  24   1     0.13  -0.04   0.04    -0.02  -0.02   0.00     0.06  -0.04   0.01
  25   1     0.14   0.11   0.10    -0.02  -0.04   0.02     0.06   0.04   0.02
  26   1     0.02   0.07   0.01    -0.00   0.01  -0.05    -0.06  -0.01  -0.01
  27   1    -0.05   0.09   0.03    -0.03   0.04  -0.01     0.02  -0.00   0.01
  28   1     0.05   0.08   0.01    -0.04   0.03  -0.01    -0.01   0.17  -0.05
  29   1    -0.04   0.01   0.04    -0.03   0.01   0.03    -0.02   0.07   0.07
  30   1    -0.03  -0.11  -0.01     0.02  -0.00   0.01     0.00  -0.05  -0.03
  31   1    -0.01  -0.08   0.06     0.02  -0.02   0.01    -0.03   0.05   0.01
  32   1     0.03  -0.00   0.08     0.02   0.03   0.02    -0.03   0.04   0.00
  33   1     0.04  -0.06  -0.02     0.01  -0.02  -0.01    -0.03   0.04   0.05
  34   1     0.03   0.04   0.01     0.01  -0.00   0.00    -0.05  -0.05  -0.01
  35   1    -0.00   0.08   0.06     0.02   0.05   0.04    -0.01  -0.08  -0.02
  36   1    -0.07   0.04  -0.03    -0.02   0.01  -0.02     0.08  -0.05   0.08
  37   1     0.01   0.05   0.01     0.02   0.01   0.06    -0.05  -0.03  -0.17
  38   1     0.08   0.01   0.08     0.02   0.01   0.04    -0.06  -0.02  -0.11
  39   1     0.04  -0.04  -0.01    -0.01   0.00  -0.04     0.02   0.01   0.11
                     13                     14                     15
                        a                      a                      a 
 Frequencies --   281.1293               335.5634               354.6151
 Red. masses --     8.0739                 7.3224                 9.2586
 Frc consts  --     0.0000                 0.0000                 0.0000
 IR Inten    --     0.9465                 7.2679                 0.4925
 Raman Activ --     0.0000                 0.0000                 0.0000
 Depolar     --     0.0000                 0.0000                 0.0000
 Atom AN      X      Y      Z        X      Y      Z        X      Y      Z
   1   7    -0.03  -0.04   0.07     0.10   0.25  -0.29    -0.01  -0.00   0.01
   2   6    -0.07   0.09   0.04     0.24  -0.18  -0.12    -0.02   0.00  -0.03
   3   6    -0.01  -0.08  -0.09    -0.30   0.07   0.15    -0.03   0.03  -0.01
   4   6    -0.26  -0.14  -0.04    -0.13  -0.18   0.28     0.04   0.03  -0.02
   5   6    -0.35   0.32   0.16    -0.02   0.03   0.03     0.03   0.19  -0.01
   6   7    -0.02  -0.01   0.10    -0.04   0.03  -0.03     0.07   0.09  -0.06
   7   6     0.14   0.00   0.02     0.06   0.02   0.01    -0.04  -0.01  -0.00
   8   6     0.07  -0.06  -0.10     0.04   0.00  -0.04     0.05   0.02   0.19
   9   6     0.06  -0.02  -0.07     0.02  -0.02  -0.06     0.00  -0.31   0.00
  10   6     0.04   0.04   0.05     0.02   0.03   0.03     0.05  -0.07   0.17
  11   6     0.06  -0.11   0.03     0.03  -0.05   0.01    -0.02   0.05   0.12
  12   6     0.11  -0.10   0.03     0.05  -0.04   0.02    -0.15  -0.28  -0.17
  13   6    -0.05  -0.10  -0.03    -0.03   0.00   0.00     0.09   0.13   0.01
  14   6    -0.05  -0.09  -0.08     0.00  -0.01   0.01     0.17   0.09   0.18
  15   6    -0.00   0.07   0.01     0.01   0.01   0.03    -0.01   0.04  -0.34
  16   6     0.15   0.13   0.03     0.01   0.03  -0.03    -0.00  -0.04   0.04
  17   6     0.16   0.11  -0.08     0.00   0.03  -0.01     0.01  -0.02   0.24
  18   6     0.10  -0.03  -0.12     0.02   0.01   0.05    -0.14   0.12  -0.24
  19   1     0.02  -0.06  -0.06    -0.10   0.08  -0.05     0.00   0.01   0.01
  20   1    -0.04   0.06   0.02     0.05   0.09  -0.10    -0.00  -0.01   0.01
  21   1     0.00  -0.06   0.11     0.08   0.15  -0.13    -0.00   0.00  -0.00
  22   1     0.01   0.04   0.06    -0.01  -0.08  -0.16    -0.01   0.00  -0.02
  23   1    -0.05   0.08  -0.00     0.16  -0.17  -0.01     0.00  -0.01  -0.01
  24   1     0.03  -0.07  -0.06    -0.21   0.19  -0.00    -0.03   0.03   0.01
  25   1     0.04   0.03  -0.02    -0.21  -0.14   0.10    -0.03  -0.01  -0.01
  26   1    -0.19  -0.09  -0.00    -0.16  -0.10   0.19    -0.03  -0.01   0.00
  27   1    -0.02  -0.12  -0.02     0.07  -0.18   0.08     0.05  -0.02   0.01
  28   1    -0.21   0.26  -0.02     0.02   0.01   0.01    -0.02   0.11  -0.02
  29   1    -0.10   0.10   0.25     0.01   0.01  -0.00     0.01   0.06   0.07
  30   1     0.07   0.02   0.00     0.03   0.00   0.00    -0.06   0.01   0.00
  31   1     0.05  -0.02  -0.04     0.01   0.01  -0.02    -0.03   0.05   0.06
  32   1     0.01  -0.00  -0.03     0.00  -0.01  -0.03    -0.02  -0.20  -0.08
  33   1    -0.00   0.03   0.03    -0.01   0.02   0.02     0.02  -0.07   0.01
  34   1     0.00  -0.07  -0.00    -0.00  -0.04  -0.01     0.00   0.01   0.01
  35   1     0.03  -0.08  -0.01     0.01  -0.05  -0.02    -0.06  -0.18  -0.12
  36   1    -0.03   0.05   0.03     0.00   0.01   0.02    -0.02   0.00  -0.22
  37   1     0.06   0.06   0.04    -0.00   0.01  -0.02    -0.00  -0.04   0.01
  38   1     0.06   0.04  -0.03     0.00   0.01  -0.01     0.01  -0.02   0.13
  39   1     0.05  -0.03  -0.04     0.01  -0.00   0.02    -0.10   0.07  -0.16
                     16                     17                     18
                        a                      a                      a 
 Frequencies --   386.7151               411.4088               428.4632
 Red. masses --     9.2955                 8.9356                 9.3408
 Frc consts  --     0.0000                 0.0000                 0.0000
 IR Inten    --     0.2513                 4.0419                 4.1089
 Raman Activ --     0.0000                 0.0000                 0.0000
 Depolar     --     0.0000                 0.0000                 0.0000
 Atom AN      X      Y      Z        X      Y      Z        X      Y      Z
   1   7     0.01  -0.02   0.01    -0.03  -0.06   0.06     0.04   0.09  -0.00
   2   6     0.01   0.01   0.06    -0.10   0.02  -0.20     0.11  -0.01   0.24
   3   6     0.10   0.01   0.05    -0.06   0.11  -0.12    -0.01  -0.18   0.09
   4   6    -0.05   0.09  -0.01     0.36  -0.01  -0.03    -0.20   0.05  -0.07
   5   6     0.01  -0.14  -0.15     0.23   0.15   0.21    -0.12   0.01  -0.22
   6   7    -0.12   0.04  -0.10     0.03   0.01  -0.06     0.10   0.09   0.16
   7   6     0.18  -0.02   0.10    -0.00  -0.05  -0.02    -0.03   0.05   0.02
   8   6     0.03   0.01  -0.14    -0.02  -0.04   0.03     0.07   0.02   0.10
   9   6     0.09  -0.15  -0.28     0.06  -0.09   0.02     0.03  -0.10   0.08
  10   6     0.12   0.22   0.13     0.06  -0.08   0.05     0.02  -0.15   0.05
  11   6     0.18  -0.26   0.02     0.06  -0.00   0.09    -0.02   0.12   0.11
  12   6     0.19  -0.24   0.03    -0.03  -0.15  -0.04    -0.12  -0.15  -0.12
  13   6    -0.12   0.03  -0.00    -0.12  -0.00  -0.29    -0.10   0.14  -0.34
  14   6    -0.08   0.01   0.06    -0.15   0.01  -0.22     0.00   0.08  -0.30
  15   6    -0.10   0.15   0.07    -0.02   0.08   0.21     0.16  -0.04   0.12
  16   6    -0.18   0.15   0.02    -0.15   0.10  -0.03     0.04  -0.05  -0.12
  17   6    -0.16   0.15   0.09    -0.10   0.06  -0.01    -0.02   0.01  -0.02
  18   6    -0.15   0.04   0.09    -0.04  -0.06   0.19     0.06   0.09   0.15
  19   1     0.00   0.00   0.02     0.06   0.00   0.04    -0.07  -0.00  -0.04
  20   1     0.02  -0.02   0.00    -0.05  -0.06   0.05     0.07   0.08  -0.05
  21   1    -0.01  -0.00  -0.02    -0.00  -0.02   0.03     0.01   0.03  -0.01
  22   1     0.01   0.00   0.03    -0.05   0.01  -0.10     0.05  -0.00   0.14
  23   1    -0.01   0.01   0.02     0.01  -0.03  -0.05    -0.01   0.06   0.05
  24   1     0.07  -0.06   0.01    -0.08   0.11   0.04     0.00  -0.06  -0.02
  25   1     0.08   0.06   0.03    -0.09  -0.04  -0.10     0.01  -0.04   0.07
  26   1     0.02   0.04  -0.03     0.11   0.00   0.02    -0.06   0.01  -0.08
  27   1    -0.04   0.06   0.00     0.10  -0.01  -0.02    -0.05   0.05   0.01
  28   1     0.08  -0.15  -0.00    -0.02   0.19   0.01    -0.01  -0.08  -0.03
  29   1    -0.01  -0.05  -0.18     0.10   0.07   0.22    -0.06  -0.01  -0.15
  30   1     0.11  -0.02   0.02    -0.01  -0.02  -0.01    -0.05   0.05   0.01
  31   1     0.01   0.05  -0.08     0.02  -0.05   0.01     0.04  -0.03   0.04
  32   1     0.02  -0.08  -0.10     0.01  -0.07  -0.02    -0.01  -0.11  -0.04
  33   1    -0.01   0.12   0.08     0.01  -0.05  -0.00     0.01  -0.12  -0.04
  34   1     0.01  -0.19  -0.05     0.03   0.01   0.03     0.01   0.06   0.02
  35   1     0.02  -0.17  -0.08    -0.02  -0.06  -0.03    -0.04  -0.09  -0.06
  36   1    -0.04   0.05   0.03     0.03   0.02   0.19     0.11  -0.03   0.17
  37   1    -0.06   0.03  -0.01    -0.04   0.02   0.00     0.02  -0.03  -0.01
  38   1    -0.03   0.05   0.03     0.00   0.03   0.02    -0.01  -0.01   0.05
  39   1    -0.03   0.00   0.03     0.03  -0.03   0.18     0.06   0.02   0.19
                     19                     20                     21
                        a                      a                      a 
 Frequencies --   452.7698               459.3196               503.2463
 Red. masses --     6.8103                10.2740                10.1447
 Frc consts  --     0.0000                 0.0000                 0.0000
 IR Inten    --     8.2335                 0.8271                 0.5132
 Raman Activ --     0.0000                 0.0000                 0.0000
 Depolar     --     0.0000                 0.0000                 0.0000
 Atom AN      X      Y      Z        X      Y      Z        X      Y      Z
   1   7     0.04   0.16  -0.10    -0.00  -0.01  -0.00    -0.00  -0.01  -0.00
   2   6     0.16   0.01   0.30    -0.02  -0.00  -0.04     0.00  -0.01   0.02
   3   6    -0.16  -0.35   0.03     0.02   0.06   0.01     0.02   0.00   0.01
   4   6     0.19   0.04  -0.23    -0.14  -0.01   0.06     0.05   0.02  -0.01
   5   6     0.04   0.07   0.01    -0.10  -0.08   0.04     0.08   0.12  -0.17
   6   7     0.04  -0.07  -0.09     0.06  -0.22  -0.04    -0.01   0.18  -0.08
   7   6     0.01  -0.08  -0.06     0.03  -0.24  -0.16    -0.05   0.14  -0.05
   8   6    -0.05  -0.00  -0.04    -0.03   0.17  -0.07     0.06  -0.10  -0.06
   9   6     0.01   0.06  -0.03     0.12   0.32  -0.02     0.12  -0.08   0.05
  10   6     0.00   0.02  -0.05    -0.00  -0.20  -0.22     0.07  -0.14   0.16
  11   6     0.05  -0.03   0.01     0.21   0.07   0.26    -0.06   0.00   0.05
  12   6     0.05  -0.02   0.02     0.06  -0.30  -0.06    -0.19  -0.02   0.01
  13   6     0.05  -0.07   0.10     0.15   0.10   0.12     0.06  -0.09   0.33
  14   6    -0.03  -0.01   0.10     0.02   0.20  -0.06    -0.10  -0.11  -0.24
  15   6    -0.09   0.07  -0.00     0.01   0.09  -0.04    -0.08   0.05  -0.18
  16   6    -0.10   0.06   0.07    -0.11  -0.01   0.15     0.13   0.03   0.36
  17   6    -0.05   0.01   0.02    -0.17   0.01  -0.05    -0.15   0.11  -0.33
  18   6    -0.06  -0.08  -0.01    -0.09   0.08   0.07     0.02  -0.07   0.19
  19   1    -0.12  -0.00  -0.08     0.01  -0.01  -0.01    -0.01   0.00   0.01
  20   1     0.08   0.13  -0.09    -0.02  -0.00   0.01     0.00  -0.01  -0.00
  21   1     0.01   0.05  -0.03     0.00  -0.01   0.02    -0.01   0.00  -0.01
  22   1     0.10   0.02   0.23    -0.02  -0.00  -0.04     0.00  -0.00   0.01
  23   1    -0.05   0.14   0.05     0.01  -0.03  -0.00    -0.00  -0.00   0.01
  24   1    -0.18   0.09   0.02     0.04  -0.04  -0.02     0.00   0.01   0.01
  25   1    -0.19  -0.26   0.00     0.05   0.06   0.02     0.00  -0.00   0.00
  26   1     0.18   0.06  -0.22    -0.05  -0.01   0.04    -0.04  -0.02   0.02
  27   1    -0.04   0.19  -0.01    -0.03  -0.03   0.00     0.07  -0.03   0.01
  28   1    -0.07   0.14  -0.04    -0.02   0.02  -0.00     0.05  -0.04  -0.02
  29   1     0.02   0.03   0.15    -0.07  -0.04   0.05     0.04   0.04  -0.12
  30   1     0.01  -0.04  -0.02     0.02  -0.06  -0.05    -0.01   0.05  -0.01
  31   1    -0.03   0.01  -0.01    -0.05   0.02   0.04     0.07  -0.10  -0.01
  32   1     0.01   0.05   0.02     0.04   0.10   0.00     0.01  -0.03  -0.02
  33   1    -0.01   0.03   0.00    -0.08  -0.12  -0.10     0.02  -0.05   0.04
  34   1     0.01   0.01   0.03     0.08   0.13   0.18     0.01   0.02  -0.04
  35   1     0.02   0.03   0.03     0.03  -0.02   0.03    -0.05  -0.03   0.00
  36   1    -0.04   0.03  -0.04     0.03  -0.00  -0.05    -0.07   0.04  -0.09
  37   1    -0.03   0.02   0.01    -0.03  -0.03   0.06     0.06  -0.01   0.19
  38   1     0.00   0.02  -0.03    -0.07   0.01  -0.06    -0.08   0.05  -0.23
  39   1    -0.04  -0.01  -0.05    -0.07   0.06   0.02     0.02  -0.04   0.01
                     22                     23                     24
                        a                      a                      a 
 Frequencies --   522.1541               546.0940               560.3252
 Red. masses --    10.2735                10.5394                10.9512
 Frc consts  --     0.0000                 0.0000                 0.0000
 IR Inten    --     2.4383                 2.1657                 0.4256
 Raman Activ --     0.0000                 0.0000                 0.0000
 Depolar     --     0.0000                 0.0000                 0.0000
 Atom AN      X      Y      Z        X      Y      Z        X      Y      Z
   1   7    -0.00  -0.02   0.04     0.00   0.00  -0.00     0.00   0.00   0.00
   2   6    -0.01  -0.02   0.02     0.00  -0.00   0.01    -0.00   0.00  -0.01
   3   6     0.03   0.03   0.03     0.00   0.01   0.02    -0.00   0.00  -0.00
   4   6    -0.01   0.03  -0.00    -0.04   0.01   0.00    -0.05  -0.02   0.02
   5   6     0.08   0.17  -0.26    -0.01   0.06  -0.07    -0.04  -0.09   0.04
   6   7     0.21   0.11   0.05     0.10  -0.08  -0.08     0.03  -0.09   0.02
   7   6     0.19   0.13  -0.05     0.10  -0.16   0.25     0.14  -0.07  -0.20
   8   6     0.13   0.09   0.07    -0.15  -0.00   0.27     0.21  -0.25  -0.04
   9   6    -0.06   0.15   0.09    -0.34  -0.19   0.14    -0.13  -0.09   0.19
  10   6    -0.11  -0.09  -0.10    -0.08   0.25  -0.17    -0.10  -0.07   0.05
  11   6    -0.07   0.17   0.07     0.05   0.06  -0.14    -0.21   0.11  -0.11
  12   6     0.11  -0.10  -0.17     0.36   0.08  -0.11     0.17   0.11  -0.13
  13   6     0.00  -0.27  -0.02     0.15   0.03  -0.04     0.00  -0.03   0.03
  14   6    -0.15  -0.11   0.18    -0.04   0.15  -0.14     0.23  -0.16  -0.06
  15   6    -0.23   0.06   0.14    -0.04   0.05  -0.11     0.28   0.23  -0.04
  16   6    -0.23   0.11  -0.02    -0.05  -0.04   0.21    -0.03   0.15  -0.03
  17   6     0.09  -0.10   0.08    -0.07  -0.09  -0.18    -0.24   0.30   0.16
  18   6    -0.02  -0.33  -0.11     0.06  -0.04   0.11    -0.28  -0.06   0.06
  19   1    -0.00  -0.00   0.01    -0.00  -0.00  -0.00     0.00  -0.00  -0.00
  20   1     0.01  -0.01  -0.00     0.00   0.00  -0.00    -0.00   0.00   0.00
  21   1    -0.01  -0.00   0.00    -0.00   0.00  -0.00     0.00  -0.00   0.00
  22   1    -0.01  -0.01  -0.01    -0.00  -0.00  -0.00    -0.00   0.00  -0.01
  23   1     0.01  -0.02   0.01     0.00  -0.01   0.00     0.00  -0.00  -0.00
  24   1     0.03  -0.02   0.01     0.01  -0.01  -0.00     0.01  -0.02  -0.01
  25   1     0.03   0.03   0.02     0.01   0.01   0.01     0.01   0.01   0.00
  26   1    -0.11  -0.04   0.05    -0.05  -0.01   0.02     0.01   0.00   0.01
  27   1     0.10  -0.08   0.03     0.03  -0.03   0.01    -0.03   0.00  -0.00
  28   1     0.05  -0.04  -0.04    -0.01   0.07  -0.04    -0.01  -0.01   0.01
  29   1     0.01   0.04  -0.15    -0.03   0.00   0.04    -0.02  -0.03   0.02
  30   1     0.00   0.06  -0.01    -0.04  -0.10   0.08     0.01   0.01  -0.05
  31   1     0.08  -0.00   0.01    -0.02   0.02   0.04     0.08  -0.09  -0.01
  32   1    -0.04   0.03  -0.02    -0.06  -0.17   0.04    -0.05   0.06   0.07
  33   1    -0.03  -0.09  -0.08     0.05   0.02  -0.09     0.06   0.02   0.03
  34   1    -0.03   0.06   0.07    -0.05  -0.09  -0.00    -0.06   0.07   0.03
  35   1     0.06  -0.07  -0.02     0.07  -0.02  -0.10     0.10   0.05   0.06
  36   1    -0.09   0.03   0.04     0.03  -0.01  -0.03     0.05   0.09  -0.01
  37   1    -0.07   0.09  -0.04     0.01  -0.01   0.12    -0.03  -0.07  -0.03
  38   1     0.11   0.00   0.02    -0.02  -0.02  -0.09    -0.04   0.09   0.04
  39   1     0.01  -0.11  -0.06    -0.01   0.01   0.09    -0.06  -0.03  -0.01
                     25                     26                     27
                        a                      a                      a 
 Frequencies --   574.2776               640.8117               672.6388
 Red. masses --     9.9670                10.6789                10.2887
 Frc consts  --     0.0000                 0.0000                 0.0000
 IR Inten    --     5.8939                 1.0415                 4.8991
 Raman Activ --     0.0000                 0.0000                 0.0000
 Depolar     --     0.0000                 0.0000                 0.0000
 Atom AN      X      Y      Z        X      Y      Z        X      Y      Z
   1   7     0.00   0.01  -0.03    -0.01  -0.02   0.02    -0.00  -0.01   0.03
   2   6     0.00   0.02  -0.03     0.00  -0.01   0.02    -0.00  -0.01   0.01
   3   6    -0.01  -0.03  -0.03     0.03   0.02   0.01     0.01   0.01   0.00
   4   6     0.07  -0.03   0.01     0.11   0.05  -0.05     0.04   0.02  -0.02
   5   6    -0.03  -0.18   0.24     0.07   0.19  -0.15     0.03   0.07  -0.06
   6   7    -0.36   0.04  -0.12    -0.09   0.18   0.02     0.01   0.05   0.11
   7   6     0.20   0.12   0.01    -0.08  -0.11   0.24     0.01  -0.06  -0.03
   8   6     0.26   0.12   0.11    -0.23  -0.23  -0.09    -0.02  -0.05  -0.02
   9   6    -0.07   0.10   0.10    -0.15   0.05   0.08    -0.04  -0.01  -0.04
  10   6    -0.12  -0.05  -0.04    -0.04   0.02  -0.28    -0.04  -0.03  -0.10
  11   6    -0.08   0.17   0.06     0.22   0.03   0.11     0.04  -0.02   0.02
  12   6     0.20  -0.13  -0.21     0.06  -0.20  -0.06     0.03  -0.11  -0.06
  13   6    -0.21   0.03   0.11    -0.10   0.01   0.26    -0.28   0.04  -0.43
  14   6    -0.09  -0.08   0.04    -0.03  -0.17  -0.13     0.14  -0.11   0.47
  15   6    -0.11  -0.18  -0.03     0.11  -0.14   0.10    -0.10  -0.05  -0.23
  16   6     0.20  -0.05  -0.01     0.21  -0.03  -0.20     0.18  -0.04   0.17
  17   6     0.06   0.06  -0.08     0.01   0.18   0.15    -0.09   0.11  -0.20
  18   6     0.09   0.16   0.03    -0.09   0.14  -0.07     0.06   0.03   0.25
  19   1     0.01   0.01  -0.00    -0.01   0.00   0.02    -0.00  -0.00   0.01
  20   1    -0.02  -0.01   0.01     0.00  -0.01   0.00     0.01   0.00  -0.00
  21   1     0.00   0.00  -0.01    -0.01   0.00  -0.01    -0.01  -0.00   0.00
  22   1     0.01   0.01   0.01     0.00  -0.00   0.01    -0.01  -0.00  -0.00
  23   1    -0.02   0.02  -0.01    -0.01  -0.00   0.01     0.01  -0.00   0.00
  24   1    -0.03   0.03  -0.00    -0.01   0.04   0.03    -0.00   0.01   0.01
  25   1    -0.03  -0.04  -0.03    -0.02  -0.03  -0.00    -0.00  -0.00  -0.00
  26   1     0.15   0.05  -0.07    -0.06  -0.02   0.02    -0.03  -0.01   0.02
  27   1    -0.11   0.10  -0.03     0.11  -0.05   0.01     0.05  -0.03   0.00
  28   1     0.01  -0.07   0.07     0.02  -0.00  -0.02     0.00  -0.00  -0.01
  29   1     0.04  -0.03   0.03     0.04   0.06  -0.09     0.01   0.02  -0.03
  30   1     0.03   0.02   0.00    -0.03  -0.01   0.07    -0.01   0.01  -0.01
  31   1     0.11  -0.00   0.02    -0.03  -0.08  -0.04    -0.06   0.07  -0.02
  32   1    -0.07  -0.08  -0.09     0.02   0.07   0.14     0.03   0.18   0.12
  33   1    -0.03  -0.15  -0.11    -0.01   0.07  -0.03     0.01   0.14   0.08
  34   1    -0.06  -0.04   0.01     0.05   0.03   0.11     0.03   0.11   0.12
  35   1     0.06  -0.18  -0.11    -0.01   0.02  -0.04     0.05   0.10   0.09
  36   1    -0.07  -0.02  -0.01    -0.03  -0.00   0.01    -0.06   0.00  -0.07
  37   1     0.06   0.02   0.01     0.04  -0.04  -0.10     0.05  -0.01   0.04
  38   1    -0.04  -0.00  -0.03    -0.07   0.02   0.04    -0.04   0.02  -0.03
  39   1     0.05   0.02  -0.02     0.00   0.01  -0.09     0.05  -0.01   0.06
                     28                     29                     30
                        a                      a                      a 
 Frequencies --   703.9204               755.0350               762.2644
 Red. masses --     9.1095                 7.4338                 3.8952
 Frc consts  --     0.0000                 0.0000                 0.0000
 IR Inten    --    11.0032                57.2361                21.2475
 Raman Activ --     0.0000                 0.0000                 0.0000
 Depolar     --     0.0000                 0.0000                 0.0000
 Atom AN      X      Y      Z        X      Y      Z        X      Y      Z
   1   7    -0.01  -0.00   0.02    -0.05  -0.02   0.06     0.03   0.01  -0.01
   2   6     0.00  -0.01   0.02     0.03  -0.02   0.10    -0.01   0.01  -0.03
   3   6     0.01   0.01   0.00     0.08   0.12   0.04    -0.04  -0.03  -0.00
   4   6     0.02   0.02  -0.03     0.12   0.07  -0.13    -0.05  -0.02   0.04
   5   6     0.02   0.06  -0.08    -0.01   0.05  -0.18     0.01  -0.02   0.03
   6   7     0.07  -0.07   0.05     0.13  -0.21   0.12     0.01   0.04   0.02
   7   6     0.12  -0.09  -0.30    -0.03  -0.20  -0.23     0.03   0.04   0.03
   8   6     0.04  -0.04  -0.00    -0.04  -0.03  -0.03    -0.03  -0.05  -0.06
   9   6    -0.02  -0.26   0.03     0.07   0.19   0.06    -0.02  -0.07   0.05
  10   6     0.02  -0.09   0.16     0.01   0.09   0.10     0.01  -0.05   0.02
  11   6    -0.12  -0.07  -0.10    -0.05  -0.02  -0.03    -0.00   0.02   0.01
  12   6     0.18  -0.02  -0.10     0.08   0.21   0.15     0.02  -0.02  -0.04
  13   6    -0.00   0.16   0.17    -0.12   0.02  -0.05    -0.03   0.06  -0.19
  14   6    -0.21   0.12  -0.08    -0.05  -0.05   0.08    -0.04   0.05  -0.13
  15   6    -0.28  -0.16   0.13    -0.09  -0.15   0.04     0.04   0.03   0.17
  16   6    -0.07  -0.03  -0.04     0.16  -0.03  -0.02    -0.05  -0.00   0.15
  17   6     0.07  -0.06   0.01    -0.06   0.17   0.06     0.09  -0.11   0.14
  18   6     0.10   0.37  -0.08    -0.03   0.13   0.09     0.14   0.02   0.23
  19   1    -0.01  -0.00   0.00    -0.03  -0.02  -0.01     0.01   0.01   0.00
  20   1     0.00   0.00  -0.01     0.05   0.01  -0.03    -0.01   0.00   0.01
  21   1    -0.00  -0.00   0.00    -0.04  -0.02   0.00     0.02   0.01  -0.00
  22   1    -0.00  -0.01   0.01    -0.03  -0.03  -0.01     0.01   0.01  -0.00
  23   1     0.00  -0.00   0.00     0.04  -0.06   0.04    -0.01   0.01  -0.01
  24   1    -0.00   0.01   0.01    -0.02   0.09   0.04     0.02  -0.05  -0.01
  25   1    -0.00  -0.01   0.00    -0.03  -0.02   0.01     0.02   0.03   0.00
  26   1    -0.05  -0.01   0.03    -0.10  -0.03   0.05     0.03   0.01  -0.01
  27   1     0.06  -0.04   0.00     0.15  -0.10  -0.02    -0.05   0.04   0.01
  28   1     0.00   0.00  -0.02    -0.06   0.06  -0.07     0.00   0.01   0.00
  29   1    -0.01   0.01  -0.03    -0.05  -0.01   0.02     0.03   0.00   0.02
  30   1     0.00   0.01  -0.08     0.02  -0.08  -0.06     0.01   0.03   0.01
  31   1     0.01   0.01  -0.01    -0.07  -0.06   0.08     0.04  -0.04  -0.03
  32   1     0.02   0.11   0.12    -0.04  -0.26  -0.21     0.01   0.02   0.05
  33   1     0.09   0.14   0.16    -0.06  -0.25  -0.16     0.03   0.02   0.03
  34   1     0.01   0.16   0.14    -0.06  -0.16  -0.13     0.01   0.02   0.00
  35   1     0.15   0.14   0.19    -0.02  -0.14  -0.09     0.01   0.00   0.00
  36   1    -0.07  -0.05   0.07    -0.09  -0.00  -0.04    -0.08   0.02  -0.28
  37   1     0.01   0.08   0.04     0.01  -0.00  -0.10    -0.17   0.06  -0.40
  38   1    -0.04  -0.05   0.04    -0.10   0.03  -0.05    -0.12   0.02  -0.40
  39   1     0.01   0.13   0.05    -0.03   0.04  -0.09    -0.18   0.08  -0.47
                     31                     32                     33
                        a                      a                      a 
 Frequencies --   804.3047               808.0853               813.0338
 Red. masses --     5.5080                 7.6037                 6.8036
 Frc consts  --     0.0000                 0.0000                 0.0000
 IR Inten    --     9.2487                 0.7322                10.5398
 Raman Activ --     0.0000                 0.0000                 0.0000
 Depolar     --     0.0000                 0.0000                 0.0000
 Atom AN      X      Y      Z        X      Y      Z        X      Y      Z
   1   7    -0.02  -0.02  -0.08    -0.21  -0.11   0.08     0.04   0.04   0.03
   2   6     0.01  -0.10  -0.22     0.15  -0.06   0.16    -0.03   0.07   0.09
   3   6     0.06  -0.17  -0.10     0.32   0.27  -0.04    -0.07   0.02   0.04
   4   6    -0.04   0.18   0.10     0.15   0.07  -0.22    -0.00  -0.09  -0.02
   5   6     0.03   0.18   0.23    -0.24  -0.08   0.06     0.02  -0.04  -0.05
   6   7    -0.04   0.04   0.06    -0.19  -0.03  -0.01    -0.01   0.06   0.02
   7   6     0.01  -0.05  -0.16     0.00   0.03   0.10     0.05   0.07  -0.04
   8   6    -0.16  -0.14  -0.11     0.08   0.02  -0.01    -0.21  -0.27  -0.26
   9   6     0.00   0.04   0.11     0.01  -0.05  -0.04     0.00  -0.01   0.13
  10   6     0.01  -0.05   0.02    -0.01  -0.08  -0.01    -0.01  -0.26  -0.03
  11   6     0.01   0.02   0.04    -0.02   0.06   0.01     0.01   0.20   0.13
  12   6     0.10   0.07   0.05    -0.00  -0.01  -0.04     0.12   0.13   0.05
  13   6     0.01   0.04  -0.04     0.01   0.01  -0.02     0.03   0.09  -0.01
  14   6     0.05   0.02   0.07     0.05   0.05  -0.05     0.06  -0.00   0.11
  15   6     0.02   0.06  -0.01     0.10   0.12  -0.01    -0.03   0.07  -0.00
  16   6    -0.09   0.00   0.04    -0.12   0.02   0.05    -0.16   0.01   0.04
  17   6     0.03  -0.09  -0.04     0.05  -0.14  -0.02     0.04  -0.14  -0.08
  18   6     0.05   0.05  -0.03     0.06  -0.03  -0.02     0.09   0.15  -0.05
  19   1     0.01   0.06   0.07    -0.09  -0.04   0.01     0.02  -0.03  -0.05
  20   1    -0.23  -0.03   0.11    -0.01  -0.02   0.00     0.14   0.01  -0.06
  21   1     0.19   0.11   0.04    -0.08  -0.04   0.00    -0.11  -0.07  -0.02
  22   1     0.18   0.05   0.24    -0.01  -0.07   0.07    -0.11  -0.03  -0.14
  23   1    -0.24   0.23  -0.09     0.02  -0.08   0.09     0.14  -0.11   0.03
  24   1    -0.04   0.03   0.02    -0.12   0.37   0.03     0.03  -0.06  -0.01
  25   1    -0.05  -0.13   0.03    -0.14  -0.20  -0.00     0.03   0.07  -0.03
  26   1    -0.15  -0.02   0.04    -0.12  -0.05   0.05     0.08   0.00  -0.07
  27   1     0.05  -0.05   0.01     0.10  -0.18  -0.15    -0.05   0.07   0.01
  28   1     0.19  -0.17   0.15    -0.07  -0.10   0.04    -0.05   0.04  -0.03
  29   1    -0.05   0.00  -0.22    -0.10  -0.05  -0.06     0.04   0.01   0.05
  30   1     0.05   0.01  -0.05     0.00   0.01   0.03     0.10   0.04  -0.02
  31   1    -0.09  -0.04   0.01     0.04   0.02  -0.03    -0.07  -0.06  -0.07
  32   1     0.00  -0.06   0.01     0.01   0.12   0.06     0.04   0.11   0.14
  33   1     0.01  -0.06  -0.03     0.02   0.08   0.06     0.05   0.05   0.07
  34   1    -0.02  -0.09  -0.05    -0.00   0.02  -0.00    -0.06  -0.18  -0.17
  35   1     0.01  -0.14  -0.07    -0.01  -0.03  -0.03    -0.05  -0.33  -0.23
  36   1     0.03   0.00  -0.01     0.06   0.01  -0.04     0.02  -0.00   0.01
  37   1    -0.02   0.01   0.02    -0.04   0.00  -0.02    -0.02   0.04   0.07
  38   1     0.03  -0.03   0.02     0.04  -0.02  -0.04     0.04  -0.05   0.08
  39   1     0.01   0.02   0.05    -0.01   0.01  -0.02     0.01   0.07   0.09
                     34                     35                     36
                        a                      a                      a 
 Frequencies --   846.7489               850.9545               869.0737
 Red. masses --     5.8475                 3.3484                 7.0332
 Frc consts  --     0.0000                 0.0000                 0.0000
 IR Inten    --    28.2280                 3.4062                 8.4264
 Raman Activ --     0.0000                 0.0000                 0.0000
 Depolar     --     0.0000                 0.0000                 0.0000
 Atom AN      X      Y      Z        X      Y      Z        X      Y      Z
   1   7    -0.01   0.05   0.06     0.00   0.02   0.01    -0.01   0.06   0.03
   2   6    -0.02   0.10   0.08    -0.01   0.03   0.02    -0.02   0.07  -0.00
   3   6     0.03  -0.05  -0.06     0.00  -0.02  -0.01     0.05  -0.12  -0.07
   4   6    -0.01  -0.08   0.00     0.00  -0.03   0.01    -0.04   0.03   0.04
   5   6    -0.04   0.12   0.14    -0.01   0.03   0.03     0.01   0.12   0.16
   6   7    -0.14   0.20   0.06    -0.03   0.04   0.00     0.05  -0.05  -0.01
   7   6     0.00   0.03  -0.22    -0.00   0.01  -0.04     0.01   0.02  -0.21
   8   6    -0.16  -0.08  -0.02    -0.02  -0.00  -0.00    -0.12   0.29   0.19
   9   6    -0.04   0.07   0.15    -0.01   0.01   0.03    -0.03  -0.19  -0.10
  10   6     0.03   0.16   0.06     0.01   0.04   0.02     0.00  -0.08  -0.00
  11   6     0.07  -0.21  -0.04     0.02  -0.05  -0.02     0.03   0.02   0.06
  12   6     0.09  -0.11  -0.01     0.01  -0.03  -0.00     0.09   0.11   0.10
  13   6    -0.04   0.01   0.01    -0.01  -0.00  -0.01     0.01  -0.09   0.00
  14   6     0.07   0.01   0.02     0.01   0.01  -0.00    -0.08   0.11  -0.10
  15   6     0.10   0.12  -0.06     0.07   0.00   0.15     0.01  -0.10  -0.02
  16   6    -0.10   0.01  -0.03     0.07  -0.02   0.24     0.22  -0.04  -0.08
  17   6     0.06  -0.13  -0.04     0.01  -0.02   0.00    -0.04   0.16   0.10
  18   6     0.07  -0.05   0.05    -0.10   0.02  -0.31    -0.12  -0.21   0.03
  19   1     0.06  -0.04  -0.07     0.03  -0.01  -0.02     0.10  -0.02  -0.06
  20   1     0.17  -0.00  -0.08     0.04  -0.01  -0.02     0.11  -0.02  -0.05
  21   1    -0.20  -0.13  -0.01    -0.05  -0.04   0.00    -0.15  -0.11   0.01
  22   1    -0.16  -0.06  -0.12    -0.05  -0.02  -0.04    -0.11  -0.06  -0.05
  23   1     0.17  -0.10   0.01     0.05  -0.03   0.00     0.10  -0.02  -0.03
  24   1    -0.03   0.03  -0.03    -0.01   0.01  -0.01    -0.03   0.03  -0.02
  25   1    -0.03  -0.05  -0.08    -0.01  -0.01  -0.02    -0.03  -0.08  -0.05
  26   1     0.02  -0.02  -0.10     0.01  -0.00  -0.03    -0.06  -0.03  -0.08
  27   1    -0.06   0.04  -0.01    -0.02   0.01   0.00    -0.02   0.02   0.01
  28   1     0.07  -0.14   0.10     0.02  -0.03   0.02     0.14  -0.11   0.10
  29   1     0.05   0.05  -0.17    -0.00   0.01  -0.04    -0.04   0.00  -0.15
  30   1     0.00   0.08  -0.06    -0.00   0.01  -0.01    -0.02  -0.04  -0.05
  31   1    -0.09  -0.05   0.05    -0.01  -0.01   0.01    -0.12   0.16   0.06
  32   1    -0.03  -0.27  -0.11    -0.01  -0.06  -0.03     0.06   0.23   0.20
  33   1    -0.03  -0.14  -0.12    -0.00  -0.04  -0.03     0.01   0.08   0.08
  34   1     0.04   0.09   0.16     0.01   0.03   0.04     0.00  -0.03  -0.02
  35   1     0.11   0.14   0.18     0.02   0.04   0.04    -0.02  -0.25  -0.14
  36   1     0.09   0.00   0.06    -0.12   0.04  -0.39     0.01  -0.02   0.03
  37   1     0.01  -0.01   0.10    -0.14   0.03  -0.39     0.04  -0.05  -0.05
  38   1     0.06  -0.03   0.02    -0.02   0.01  -0.10    -0.05   0.05  -0.10
  39   1    -0.03  -0.00  -0.14     0.22  -0.07   0.59     0.01  -0.10  -0.05
                     37                     38                     39
                        a                      a                      a 
 Frequencies --   888.1636               903.2163               909.4854
 Red. masses --     8.1713                 3.9952                 5.8738
 Frc consts  --     0.0000                 0.0000                 0.0000
 IR Inten    --    11.7849                 0.4770                 7.3796
 Raman Activ --     0.0000                 0.0000                 0.0000
 Depolar     --     0.0000                 0.0000                 0.0000
 Atom AN      X      Y      Z        X      Y      Z        X      Y      Z
   1   7    -0.05  -0.12  -0.01    -0.02   0.01  -0.01     0.09  -0.09   0.09
   2   6     0.09  -0.08   0.04     0.01   0.01  -0.01    -0.00  -0.07   0.09
   3   6    -0.01   0.22   0.05     0.05  -0.01  -0.00    -0.25   0.06  -0.07
   4   6     0.00  -0.10  -0.06    -0.03  -0.00   0.02     0.11   0.08  -0.14
   5   6    -0.05  -0.20  -0.10    -0.00  -0.01   0.00     0.06   0.05   0.08
   6   7     0.00   0.09   0.01     0.04  -0.02  -0.01    -0.18   0.06   0.05
   7   6     0.09   0.35  -0.27     0.01   0.03  -0.02    -0.08  -0.15   0.08
   8   6    -0.35   0.11   0.01    -0.01   0.04   0.01    -0.03   0.03   0.03
   9   6    -0.08  -0.09   0.16    -0.03  -0.06   0.00     0.12   0.02  -0.16
  10   6     0.04  -0.01   0.04     0.01   0.03   0.02     0.00  -0.02   0.14
  11   6     0.12  -0.09   0.06     0.03  -0.00   0.01    -0.16  -0.09  -0.12
  12   6     0.10  -0.07   0.02    -0.02  -0.00   0.01     0.19   0.11  -0.00
  13   6    -0.01  -0.04   0.00     0.01  -0.01  -0.04    -0.07  -0.01   0.03
  14   6    -0.01   0.06  -0.01    -0.03   0.02  -0.05     0.01   0.02  -0.04
  15   6     0.06  -0.02  -0.02     0.10  -0.06   0.35     0.11   0.07   0.02
  16   6     0.13  -0.03  -0.05    -0.02   0.01  -0.13    -0.02   0.00  -0.01
  17   6    -0.01   0.04   0.02    -0.11   0.06  -0.26     0.03  -0.07  -0.04
  18   6    -0.07  -0.16  -0.01     0.03  -0.03   0.12     0.01  -0.06  -0.00
  19   1    -0.18   0.01   0.07     0.04   0.00  -0.01    -0.32  -0.05   0.01
  20   1    -0.13   0.03   0.05    -0.01  -0.02   0.01     0.13   0.13  -0.07
  21   1     0.18   0.14  -0.02    -0.03  -0.02   0.01     0.11   0.13  -0.10
  22   1     0.14   0.07   0.04    -0.01  -0.01   0.01     0.07   0.06  -0.04
  23   1    -0.10  -0.00   0.06     0.00   0.00  -0.00     0.02   0.01   0.00
  24   1     0.02   0.03  -0.01    -0.01   0.03  -0.01     0.08  -0.19   0.01
  25   1     0.02   0.08   0.05    -0.02  -0.04   0.01     0.09   0.21  -0.05
  26   1     0.11   0.03   0.05    -0.00  -0.00  -0.01    -0.04  -0.00   0.07
  27   1    -0.06   0.00  -0.05    -0.02   0.01   0.00     0.11  -0.07  -0.04
  28   1    -0.16   0.07  -0.08     0.02   0.01  -0.00    -0.02  -0.05   0.04
  29   1     0.07  -0.00   0.14    -0.01  -0.01   0.00     0.04   0.02  -0.03
  30   1     0.07   0.15  -0.08     0.00   0.00  -0.01    -0.07  -0.03   0.03
  31   1    -0.15   0.07   0.02     0.02   0.00  -0.01    -0.07   0.02   0.04
  32   1     0.03  -0.09   0.10     0.01   0.05   0.05     0.02   0.14   0.00
  33   1     0.02  -0.03  -0.00    -0.00  -0.05  -0.04    -0.05  -0.13  -0.05
  34   1     0.03  -0.03   0.04     0.01  -0.00  -0.01     0.02   0.25   0.23
  35   1     0.08  -0.04   0.08    -0.01  -0.00  -0.00     0.00  -0.20  -0.16
  36   1     0.03  -0.01  -0.01    -0.21   0.05  -0.59     0.02   0.01  -0.09
  37   1     0.03  -0.04  -0.01     0.08  -0.02   0.21     0.00  -0.02   0.03
  38   1     0.00   0.02  -0.02     0.16  -0.04   0.47     0.04  -0.01   0.02
  39   1     0.02  -0.07   0.01    -0.06   0.01  -0.15     0.02  -0.03  -0.02
                     40                     41                     42
                        a                      a                      a 
 Frequencies --   913.7039               915.0312               919.7593
 Red. masses --     5.0093                 6.9111                 5.6840
 Frc consts  --     0.0000                 0.0000                 0.0000
 IR Inten    --     3.6791                 9.9561                 6.2316
 Raman Activ --     0.0000                 0.0000                 0.0000
 Depolar     --     0.0000                 0.0000                 0.0000
 Atom AN      X      Y      Z        X      Y      Z        X      Y      Z
   1   7    -0.01  -0.04   0.06    -0.02  -0.09   0.12    -0.04  -0.06   0.12
   2   6     0.04  -0.02   0.03     0.08  -0.04   0.06     0.08  -0.03   0.03
   3   6    -0.07   0.02  -0.07    -0.13   0.04  -0.16    -0.09  -0.00  -0.16
   4   6    -0.01   0.03  -0.03    -0.02   0.08  -0.06    -0.04   0.08  -0.02
   5   6     0.03   0.00   0.06     0.08   0.01   0.16     0.07   0.04   0.13
   6   7     0.01  -0.01   0.00     0.03  -0.04  -0.04     0.00  -0.02  -0.06
   7   6     0.01   0.01  -0.15     0.01   0.05  -0.20     0.04  -0.04   0.14
   8   6     0.16  -0.04   0.00     0.24   0.01   0.08    -0.20   0.04  -0.04
   9   6    -0.18  -0.24  -0.03    -0.18   0.02   0.18     0.15   0.07  -0.05
  10   6     0.02   0.30   0.01    -0.05  -0.01  -0.31     0.02  -0.14   0.13
  11   6     0.18   0.05   0.12     0.21  -0.08   0.05    -0.12   0.25   0.09
  12   6    -0.17  -0.07   0.05    -0.21   0.02   0.17     0.08  -0.13  -0.22
  13   6    -0.02   0.02   0.01     0.00   0.01   0.00     0.04  -0.02  -0.02
  14   6     0.02  -0.06   0.01    -0.00  -0.03  -0.02    -0.03   0.07   0.00
  15   6    -0.03   0.02  -0.02    -0.04  -0.02   0.04    -0.00  -0.04   0.01
  16   6    -0.07   0.02   0.03    -0.04   0.01   0.02     0.09  -0.02  -0.03
  17   6     0.02  -0.04   0.02    -0.01   0.01  -0.01    -0.03   0.06   0.00
  18   6     0.04   0.08  -0.02     0.02   0.05   0.01    -0.04  -0.07   0.01
  19   1    -0.13  -0.03  -0.01    -0.27  -0.06  -0.01    -0.21  -0.06  -0.03
  20   1     0.06   0.05  -0.04     0.14   0.10  -0.08     0.15   0.07  -0.08
  21   1     0.01   0.03  -0.04    -0.00   0.05  -0.08    -0.05   0.01  -0.06
  22   1     0.02   0.01  -0.00     0.04   0.01  -0.01     0.01  -0.02   0.01
  23   1     0.03   0.01  -0.01     0.06   0.03  -0.02     0.07   0.04  -0.04
  24   1     0.02  -0.04  -0.03     0.03  -0.08  -0.06     0.02  -0.06  -0.07
  25   1     0.02   0.06  -0.02     0.04   0.10  -0.04     0.03   0.06  -0.03
  26   1    -0.02   0.00   0.03    -0.06  -0.00   0.05    -0.05   0.01   0.07
  27   1     0.02  -0.03  -0.02     0.03  -0.06  -0.05     0.02  -0.06  -0.04
  28   1     0.02  -0.02   0.03     0.08  -0.04   0.06     0.08  -0.03   0.05
  29   1     0.00  -0.00  -0.01    -0.01  -0.02  -0.03    -0.01  -0.01  -0.03
  30   1     0.03  -0.00  -0.04     0.03  -0.01  -0.06     0.01  -0.03   0.04
  31   1     0.09  -0.03  -0.02     0.10  -0.02   0.01    -0.08   0.04  -0.01
  32   1     0.04   0.35   0.29    -0.08  -0.24  -0.10     0.02  -0.06  -0.07
  33   1    -0.07  -0.40  -0.34     0.07   0.37   0.18     0.03   0.04   0.09
  34   1    -0.01  -0.21  -0.16     0.06  -0.04  -0.02    -0.14  -0.32  -0.30
  35   1    -0.03   0.11   0.07    -0.11  -0.06  -0.05     0.15   0.33   0.26
  36   1     0.00   0.01   0.05    -0.04   0.01  -0.03    -0.00  -0.01  -0.03
  37   1    -0.02   0.02   0.01    -0.01   0.02   0.00     0.02  -0.02  -0.01
  38   1    -0.02  -0.01  -0.04     0.00  -0.00   0.03    -0.00   0.01   0.03
  39   1     0.00   0.03   0.02    -0.01   0.02  -0.01    -0.00  -0.03  -0.01
                     43                     44                     45
                        a                      a                      a 
 Frequencies --   921.5936               934.1073               959.8017
 Red. masses --     3.2230                 8.2265                 7.1137
 Frc consts  --     0.0000                 0.0000                 0.0000
 IR Inten    --     0.0287                 8.4019                11.4050
 Raman Activ --     0.0000                 0.0000                 0.0000
 Depolar     --     0.0000                 0.0000                 0.0000
 Atom AN      X      Y      Z        X      Y      Z        X      Y      Z
   1   7    -0.01  -0.01   0.01     0.27   0.13  -0.14    -0.13  -0.15   0.00
   2   6     0.01   0.00   0.00    -0.28  -0.02   0.05     0.12   0.07   0.02
   3   6     0.00   0.01  -0.01    -0.12  -0.07   0.22     0.09   0.15  -0.00
   4   6    -0.01  -0.00   0.00     0.27   0.05  -0.15    -0.08  -0.29   0.12
   5   6     0.00  -0.00   0.01    -0.15   0.02  -0.07     0.00   0.20  -0.11
   6   7     0.01  -0.00  -0.01    -0.22  -0.04   0.12    -0.00   0.16   0.15
   7   6     0.00   0.01   0.00    -0.05  -0.05  -0.18    -0.13  -0.31  -0.13
   8   6    -0.01   0.01   0.00     0.08   0.10   0.12     0.15  -0.02   0.16
   9   6     0.00  -0.01  -0.01    -0.03  -0.03  -0.02     0.05   0.02  -0.14
  10   6     0.00   0.01   0.01    -0.03  -0.03  -0.06    -0.05  -0.01  -0.05
  11   6    -0.01  -0.01  -0.01     0.09   0.06   0.11     0.00   0.05   0.07
  12   6     0.00   0.01   0.01     0.02  -0.04  -0.01     0.08   0.04   0.02
  13   6     0.04  -0.01   0.08    -0.13  -0.02   0.06    -0.05   0.00   0.04
  14   6    -0.03   0.01  -0.06     0.01   0.03  -0.07    -0.00  -0.01  -0.06
  15   6    -0.05   0.00  -0.11     0.14   0.11  -0.01     0.03   0.03   0.01
  16   6     0.12  -0.03   0.28    -0.03  -0.00   0.03    -0.03   0.01   0.02
  17   6    -0.09   0.04  -0.26     0.04  -0.10  -0.05     0.03  -0.05  -0.02
  18   6     0.00  -0.01   0.04     0.03  -0.05  -0.00     0.02  -0.00  -0.00
  19   1    -0.01  -0.00  -0.00     0.19   0.06  -0.00    -0.14   0.01   0.08
  20   1     0.00   0.00  -0.00    -0.04  -0.01   0.03    -0.14   0.00   0.05
  21   1    -0.00   0.00  -0.00     0.11   0.03   0.03     0.15   0.11  -0.01
  22   1     0.00  -0.00   0.00    -0.04   0.03  -0.05     0.08   0.09  -0.10
  23   1     0.00   0.00   0.00    -0.06  -0.06   0.04    -0.02  -0.08   0.09
  24   1    -0.00   0.00  -0.01     0.04  -0.13   0.20    -0.02   0.10  -0.07
  25   1    -0.00  -0.00  -0.00     0.04   0.07  -0.02    -0.03  -0.01  -0.11
  26   1    -0.00   0.00  -0.00    -0.05  -0.04   0.04     0.19   0.01  -0.19
  27   1    -0.01   0.00  -0.00     0.21  -0.07   0.02    -0.22   0.17   0.04
  28   1     0.01  -0.00   0.00    -0.13  -0.07  -0.00    -0.00  -0.03  -0.00
  29   1     0.00   0.00  -0.00    -0.03   0.01  -0.05     0.14   0.12  -0.11
  30   1    -0.00   0.00   0.00    -0.03  -0.01  -0.05    -0.13  -0.07  -0.02
  31   1     0.00  -0.00  -0.00    -0.04   0.05   0.07    -0.05  -0.02   0.12
  32   1     0.01   0.02   0.02    -0.02  -0.01  -0.02    -0.02   0.07  -0.06
  33   1    -0.00  -0.02  -0.01    -0.00   0.14   0.09    -0.05   0.10   0.06
  34   1     0.01   0.02   0.02    -0.05  -0.24  -0.16    -0.07  -0.18  -0.09
  35   1    -0.00  -0.02  -0.01     0.05   0.11   0.10     0.02   0.02   0.01
  36   1     0.09  -0.03   0.28     0.06   0.01  -0.05     0.00   0.01  -0.02
  37   1    -0.19   0.05  -0.57    -0.02  -0.02  -0.03    -0.01   0.01  -0.00
  38   1     0.18  -0.05   0.53     0.05  -0.02   0.03     0.02  -0.01   0.00
  39   1    -0.06   0.02  -0.16     0.02  -0.03  -0.04     0.03  -0.02  -0.02
                     46                     47                     48
                        a                      a                      a 
 Frequencies --   983.3658              1013.8995              1026.2145
 Red. masses --     6.1355                 8.6401                 7.7264
 Frc consts  --     0.0000                 0.0000                 0.0000
 IR Inten    --     1.5152                 1.1102                 7.6565
 Raman Activ --     0.0000                 0.0000                 0.0000
 Depolar     --     0.0000                 0.0000                 0.0000
 Atom AN      X      Y      Z        X      Y      Z        X      Y      Z
   1   7     0.17  -0.07  -0.11     0.01  -0.01   0.00    -0.05  -0.04   0.12
   2   6    -0.19   0.05   0.23    -0.02   0.00   0.01     0.05   0.06  -0.24
   3   6     0.01   0.05   0.04     0.01  -0.00  -0.01     0.05  -0.05   0.05
   4   6     0.05  -0.14  -0.11     0.01  -0.02   0.02     0.16  -0.04   0.22
   5   6    -0.13   0.12   0.17    -0.02   0.03  -0.00    -0.16   0.07  -0.19
   6   7     0.11  -0.07  -0.10    -0.00   0.01   0.01    -0.13  -0.04   0.11
   7   6     0.16  -0.01   0.13    -0.16  -0.06   0.03     0.24  -0.26   0.05
   8   6    -0.06  -0.00  -0.13     0.08   0.13  -0.23     0.02   0.19  -0.17
   9   6    -0.01  -0.01   0.10    -0.24  -0.01   0.17    -0.05  -0.05   0.17
  10   6     0.07   0.03  -0.02    -0.18  -0.22   0.38     0.10   0.01  -0.02
  11   6    -0.08   0.04  -0.06     0.44  -0.05  -0.09    -0.10   0.06  -0.07
  12   6    -0.16  -0.02   0.00     0.14   0.10  -0.14    -0.20  -0.01   0.03
  13   6     0.15   0.00  -0.08     0.03   0.01  -0.02    -0.14  -0.03   0.06
  14   6    -0.01   0.06   0.05     0.01   0.07   0.04     0.00   0.10  -0.01
  15   6    -0.11  -0.10   0.02    -0.04  -0.04  -0.00     0.05   0.04  -0.01
  16   6     0.05  -0.00  -0.02     0.03   0.01  -0.01     0.00  -0.02  -0.00
  17   6    -0.05   0.11   0.03    -0.00   0.03   0.00     0.03  -0.03  -0.02
  18   6    -0.03  -0.01   0.02    -0.03  -0.08   0.00    -0.01  -0.05  -0.00
  19   1    -0.07   0.04   0.07    -0.02  -0.00  -0.00    -0.15  -0.05  -0.02
  20   1    -0.12   0.03   0.05     0.00   0.00   0.00     0.12   0.06  -0.06
  21   1     0.25   0.15  -0.02     0.02   0.01  -0.00    -0.06   0.00  -0.04
  22   1    -0.01   0.11  -0.20    -0.00   0.01  -0.01     0.04   0.03   0.00
  23   1    -0.02  -0.22   0.19    -0.00  -0.01   0.00     0.02   0.14  -0.14
  24   1    -0.00   0.02   0.09    -0.00   0.01   0.01     0.00   0.01   0.09
  25   1    -0.03   0.02  -0.28    -0.01  -0.01  -0.03     0.00  -0.03  -0.02
  26   1    -0.05  -0.08  -0.20     0.02   0.00  -0.00     0.12   0.02   0.00
  27   1    -0.04   0.02  -0.03    -0.01   0.01   0.01     0.04   0.09   0.13
  28   1     0.11  -0.12   0.10     0.00  -0.01   0.00    -0.09   0.00  -0.05
  29   1    -0.12  -0.02  -0.17    -0.00   0.01  -0.02     0.01   0.04  -0.05
  30   1     0.14  -0.03   0.03    -0.06   0.00   0.01     0.30  -0.07  -0.01
  31   1     0.05   0.03  -0.10     0.06   0.10  -0.13    -0.06   0.21  -0.11
  32   1     0.03  -0.06   0.05    -0.23   0.09  -0.15     0.03  -0.08   0.08
  33   1     0.09  -0.05  -0.05    -0.11  -0.09   0.10     0.19  -0.03  -0.05
  34   1     0.02   0.10  -0.02     0.19   0.04  -0.11     0.03   0.10  -0.07
  35   1    -0.04   0.02   0.02    -0.11   0.22  -0.21    -0.08   0.01  -0.01
  36   1    -0.03  -0.03   0.02    -0.00  -0.01   0.03     0.06  -0.02  -0.02
  37   1     0.02   0.02   0.01     0.01   0.02  -0.00    -0.00  -0.01  -0.01
  38   1    -0.02   0.03   0.01     0.02   0.02  -0.01     0.03  -0.00  -0.01
  39   1    -0.04   0.02   0.01    -0.00  -0.03   0.00     0.04  -0.06  -0.03
                     49                     50                     51
                        a                      a                      a 
 Frequencies --  1035.5172              1049.2879              1072.6537
 Red. masses --     6.9225                 8.9521                 9.4449
 Frc consts  --     0.0000                 0.0000                 0.0000
 IR Inten    --    36.6143                19.4572                10.2695
 Raman Activ --     0.0000                 0.0000                 0.0000
 Depolar     --     0.0000                 0.0000                 0.0000
 Atom AN      X      Y      Z        X      Y      Z        X      Y      Z
   1   7     0.16  -0.06   0.14     0.34   0.12   0.05     0.10   0.00  -0.05
   2   6    -0.21   0.02  -0.16    -0.41  -0.35   0.07    -0.12  -0.10   0.20
   3   6     0.19  -0.06  -0.03     0.13   0.22  -0.13     0.07   0.04  -0.24
   4   6     0.12  -0.00   0.29    -0.14  -0.05   0.02    -0.19   0.07   0.07
   5   6    -0.22  -0.01  -0.13     0.00  -0.06   0.02     0.29   0.08  -0.10
   6   7     0.08  -0.16  -0.06     0.04   0.24   0.00    -0.03  -0.25   0.05
   7   6    -0.10   0.30  -0.00     0.01  -0.20  -0.03     0.13   0.07   0.03
   8   6    -0.06  -0.08   0.11     0.06  -0.04  -0.03    -0.10   0.18   0.05
   9   6     0.04   0.02  -0.09     0.00  -0.00   0.01    -0.02   0.00   0.01
  10   6    -0.05  -0.00   0.01     0.02   0.02  -0.04    -0.01  -0.04   0.06
  11   6     0.05  -0.04   0.03    -0.04   0.01   0.01     0.02   0.02  -0.05
  12   6     0.11  -0.00  -0.02    -0.03   0.01   0.02    -0.05   0.00  -0.02
  13   6     0.02  -0.01  -0.02     0.08   0.03  -0.02    -0.31  -0.10   0.12
  14   6    -0.00  -0.09   0.00     0.01   0.07  -0.00    -0.03  -0.19  -0.03
  15   6     0.02   0.04  -0.01    -0.08  -0.08   0.02     0.19   0.25  -0.04
  16   6     0.00   0.00   0.00     0.02   0.01  -0.00    -0.01  -0.04   0.00
  17   6    -0.02  -0.02   0.00     0.01   0.04   0.00     0.02  -0.18  -0.02
  18   6     0.03   0.08  -0.00    -0.04  -0.08   0.00     0.07   0.16  -0.01
  19   1    -0.26  -0.07  -0.03     0.01  -0.02  -0.06     0.04   0.02   0.02
  20   1     0.20   0.13  -0.09     0.20   0.07  -0.07    -0.04  -0.01   0.01
  21   1     0.05   0.08  -0.10     0.01   0.01  -0.03     0.09   0.03   0.01
  22   1    -0.01   0.04  -0.04    -0.09  -0.13   0.25    -0.07  -0.05   0.03
  23   1    -0.01   0.09  -0.12    -0.14   0.08  -0.06    -0.02  -0.10   0.09
  24   1    -0.03   0.09   0.18    -0.03   0.14   0.02    -0.03   0.07  -0.15
  25   1    -0.06  -0.11  -0.25    -0.05  -0.05   0.02    -0.03  -0.04  -0.12
  26   1     0.03  -0.01  -0.07     0.11   0.06   0.10    -0.04   0.02  -0.01
  27   1     0.02   0.09   0.13    -0.17  -0.04  -0.13    -0.05   0.02   0.02
  28   1     0.04   0.05  -0.04    -0.04   0.01  -0.01     0.14   0.12  -0.05
  29   1    -0.20  -0.07  -0.00     0.14   0.06   0.02     0.02  -0.00   0.07
  30   1    -0.16   0.06   0.01     0.02  -0.01  -0.01     0.12  -0.07   0.00
  31   1     0.05  -0.12   0.05    -0.03   0.01   0.01    -0.06   0.12  -0.02
  32   1    -0.00   0.04  -0.03     0.01  -0.01   0.01    -0.01  -0.00  -0.01
  33   1    -0.11   0.02   0.03     0.04   0.00  -0.02    -0.01  -0.00   0.02
  34   1    -0.01  -0.04   0.05    -0.02  -0.01  -0.00     0.06   0.08  -0.06
  35   1     0.05  -0.02   0.02    -0.02  -0.01  -0.01    -0.03   0.03  -0.02
  36   1    -0.03   0.04   0.01    -0.01  -0.03   0.00    -0.03   0.13   0.02
  37   1    -0.00  -0.02  -0.00     0.01   0.06  -0.00    -0.02  -0.13  -0.01
  38   1    -0.04  -0.02   0.01     0.04   0.03  -0.01    -0.12  -0.11   0.03
  39   1    -0.06   0.08   0.03     0.01  -0.03   0.00     0.04   0.03  -0.01
                     52                     53                     54
                        a                      a                      a 
 Frequencies --  1084.4381              1102.9625              1116.2026
 Red. masses --     6.0347                 7.1855                 7.5493
 Frc consts  --     0.0000                 0.0000                 0.0000
 IR Inten    --     0.7462                 1.6571                 2.4628
 Raman Activ --     0.0000                 0.0000                 0.0000
 Depolar     --     0.0000                 0.0000                 0.0000
 Atom AN      X      Y      Z        X      Y      Z        X      Y      Z
   1   7    -0.02   0.00   0.00     0.01  -0.04  -0.05    -0.03  -0.03  -0.10
   2   6     0.03   0.01  -0.02    -0.01   0.04   0.13     0.07  -0.01   0.21
   3   6    -0.02  -0.00   0.04     0.05  -0.10  -0.19    -0.03  -0.14  -0.34
   4   6     0.03  -0.01  -0.02    -0.05   0.17   0.15     0.13   0.23   0.29
   5   6    -0.04  -0.03   0.02     0.10  -0.05  -0.10    -0.18  -0.12  -0.08
   6   7     0.01   0.10  -0.00    -0.11  -0.01   0.07    -0.04   0.17   0.03
   7   6     0.02  -0.08  -0.01    -0.35  -0.02  -0.00     0.19  -0.08  -0.03
   8   6     0.03  -0.01  -0.01     0.16   0.13  -0.27     0.00  -0.18   0.14
   9   6    -0.00  -0.01   0.00     0.01  -0.07   0.15     0.00   0.03  -0.08
  10   6     0.01   0.01  -0.01     0.12   0.03  -0.08    -0.06   0.01   0.00
  11   6    -0.01   0.01  -0.00    -0.11  -0.03   0.09     0.04   0.01  -0.03
  12   6    -0.02   0.00   0.01     0.15  -0.04   0.06    -0.08   0.02  -0.02
  13   6     0.08   0.07  -0.02    -0.03   0.07   0.02     0.05   0.05  -0.01
  14   6    -0.04   0.00   0.02     0.01   0.12   0.03     0.03   0.07  -0.03
  15   6    -0.02   0.21   0.03    -0.01  -0.04  -0.01    -0.05  -0.10   0.01
  16   6     0.38   0.05  -0.13     0.05   0.03  -0.02    -0.00   0.02   0.00
  17   6     0.02  -0.36  -0.04     0.04  -0.03  -0.02     0.03   0.04  -0.01
  18   6    -0.23  -0.11   0.07    -0.08  -0.13   0.01    -0.05  -0.06   0.02
  19   1     0.01   0.00  -0.00     0.01   0.02   0.03     0.07   0.03   0.03
  20   1    -0.00  -0.00   0.00    -0.07  -0.01   0.02    -0.11  -0.04   0.04
  21   1    -0.02  -0.01   0.00     0.07   0.03   0.01     0.05   0.00   0.03
  22   1     0.01   0.00  -0.00    -0.05  -0.01  -0.05    -0.06  -0.05  -0.01
  23   1     0.00   0.01  -0.01     0.04  -0.08   0.06     0.08  -0.10   0.08
  24   1     0.01  -0.02   0.02    -0.02   0.01  -0.09    -0.00  -0.05  -0.14
  25   1     0.01   0.01   0.02    -0.02  -0.05  -0.15     0.00  -0.01  -0.22
  26   1     0.01  -0.00   0.01    -0.06   0.02   0.04     0.07   0.09   0.20
  27   1     0.01  -0.01  -0.01     0.06   0.02   0.08     0.11   0.01   0.11
  28   1    -0.02  -0.04   0.01     0.02   0.10  -0.06    -0.07   0.04  -0.05
  29   1    -0.02  -0.01   0.00    -0.04  -0.04   0.10    -0.08  -0.04   0.06
  30   1     0.04   0.00  -0.01    -0.20   0.06   0.01     0.17   0.08  -0.02
  31   1    -0.01  -0.01   0.02     0.14   0.09  -0.18    -0.17  -0.06   0.18
  32   1    -0.02   0.02  -0.02     0.05  -0.08   0.08    -0.03   0.06  -0.04
  33   1     0.03   0.00  -0.01     0.27  -0.02  -0.07    -0.15   0.02   0.03
  34   1    -0.00   0.00  -0.01    -0.16  -0.17   0.19     0.07   0.07  -0.08
  35   1    -0.01   0.00  -0.00     0.08  -0.07   0.06    -0.05   0.03  -0.05
  36   1    -0.35   0.33   0.14     0.05  -0.05  -0.01     0.04  -0.07  -0.02
  37   1     0.13   0.15  -0.03     0.03   0.10   0.00     0.01   0.11   0.00
  38   1    -0.11  -0.16   0.02     0.11   0.03  -0.03     0.10   0.05  -0.03
  39   1    -0.37   0.21   0.16    -0.04  -0.02   0.02    -0.05   0.01   0.01
                     55                     56                     57
                        a                      a                      a 
 Frequencies --  1127.3621              1152.6359              1172.4073
 Red. masses --     7.5809                 6.9984                 2.6306
 Frc consts  --     0.0000                 0.0000                 0.0000
 IR Inten    --     2.9540                26.3092                 1.0915
 Raman Activ --     0.0000                 0.0000                 0.0000
 Depolar     --     0.0000                 0.0000                 0.0000
 Atom AN      X      Y      Z        X      Y      Z        X      Y      Z
   1   7     0.05  -0.11   0.04     0.01   0.04   0.03    -0.02   0.05   0.02
   2   6    -0.14   0.28  -0.11    -0.01  -0.09  -0.02     0.04  -0.10  -0.02
   3   6     0.21  -0.20   0.20    -0.01   0.12   0.03    -0.04   0.09   0.02
   4   6    -0.26   0.15  -0.14    -0.06  -0.10  -0.05     0.01  -0.08  -0.03
   5   6     0.27  -0.24   0.03     0.22   0.19  -0.10     0.05   0.05  -0.01
   6   7    -0.04   0.21   0.02    -0.26  -0.35   0.12    -0.03  -0.08   0.00
   7   6     0.07  -0.12  -0.01     0.07   0.13   0.02    -0.07   0.12   0.06
   8   6     0.05  -0.08   0.05    -0.01  -0.12   0.05     0.12  -0.06  -0.01
   9   6    -0.01   0.01  -0.02    -0.00   0.01  -0.04    -0.00  -0.01   0.03
  10   6    -0.02   0.00   0.01    -0.04   0.01  -0.00     0.03   0.00  -0.02
  11   6     0.02   0.01  -0.02     0.03   0.01  -0.03     0.00  -0.01   0.01
  12   6    -0.04   0.01  -0.01    -0.04  -0.01  -0.02     0.02  -0.03  -0.00
  13   6    -0.06   0.04   0.05    -0.05   0.08   0.03     0.02   0.03  -0.00
  14   6     0.02   0.02  -0.04     0.01   0.17   0.03     0.03  -0.12  -0.09
  15   6    -0.01  -0.04   0.00     0.02  -0.09  -0.02    -0.01  -0.12  -0.00
  16   6    -0.01   0.02   0.01     0.10   0.09  -0.03    -0.09  -0.01   0.03
  17   6     0.04  -0.02  -0.02     0.06  -0.03  -0.03     0.03   0.06  -0.01
  18   6    -0.05  -0.05   0.01    -0.18  -0.12   0.05     0.03   0.03  -0.00
  19   1    -0.17  -0.02   0.02     0.02  -0.01  -0.02     0.04  -0.00  -0.02
  20   1     0.02   0.07  -0.02     0.04  -0.01  -0.01     0.03  -0.01  -0.00
  21   1     0.10   0.09  -0.06    -0.03  -0.02   0.00    -0.06  -0.03   0.01
  22   1    -0.05   0.10  -0.20     0.03  -0.01   0.06     0.06   0.01   0.04
  23   1     0.05  -0.01  -0.02    -0.05   0.02  -0.01    -0.05   0.01   0.01
  24   1    -0.05   0.08   0.14     0.01   0.02  -0.04     0.01  -0.01   0.02
  25   1    -0.05  -0.17   0.03     0.00   0.03   0.03     0.01   0.05  -0.04
  26   1    -0.27  -0.06  -0.09    -0.02  -0.04  -0.14    -0.01  -0.04  -0.10
  27   1     0.01  -0.06  -0.04    -0.01   0.06   0.05    -0.00   0.03   0.02
  28   1     0.04   0.12  -0.05     0.07   0.00  -0.00     0.10   0.02   0.00
  29   1     0.04  -0.07   0.19     0.01   0.02  -0.02    -0.11  -0.05  -0.00
  30   1     0.10   0.07  -0.01     0.08   0.04  -0.01     0.15   0.08  -0.00
  31   1    -0.18   0.05   0.10     0.10  -0.14   0.02    -0.43   0.20   0.19
  32   1    -0.03   0.04  -0.03     0.01   0.00   0.01    -0.16   0.15  -0.16
  33   1    -0.04   0.00   0.01    -0.13   0.01   0.02     0.26  -0.02  -0.05
  34   1     0.04   0.03  -0.06     0.07   0.07  -0.08    -0.10  -0.10   0.18
  35   1     0.00   0.01   0.02     0.03  -0.03   0.05    -0.06   0.10  -0.07
  36   1     0.02  -0.03  -0.01     0.25  -0.22  -0.11    -0.15   0.08   0.05
  37   1     0.01   0.10   0.00     0.07   0.34   0.01    -0.06  -0.20  -0.00
  38   1     0.09   0.03  -0.03     0.21   0.07  -0.07     0.35   0.18  -0.11
  39   1     0.01  -0.04  -0.00    -0.22   0.10   0.10    -0.17   0.14   0.06
                     58                     59                     60
                        a                      a                      a 
 Frequencies --  1179.1394              1183.2259              1192.2020
 Red. masses --     1.8420                 3.7587                 3.8858
 Frc consts  --     0.0000                 0.0000                 0.0000
 IR Inten    --     4.3768                12.3969                 5.1755
 Raman Activ --     0.0000                 0.0000                 0.0000
 Depolar     --     0.0000                 0.0000                 0.0000
 Atom AN      X      Y      Z        X      Y      Z        X      Y      Z
   1   7    -0.01   0.02   0.01    -0.05   0.08   0.02    -0.02   0.06   0.02
   2   6     0.01  -0.03  -0.01     0.09  -0.14  -0.01     0.04  -0.11  -0.00
   3   6    -0.02   0.03   0.01    -0.07   0.09   0.00    -0.02   0.07  -0.03
   4   6     0.01  -0.03  -0.01     0.05  -0.05   0.01    -0.02   0.01   0.04
   5   6    -0.01   0.02   0.01    -0.06  -0.08   0.05     0.09  -0.01  -0.04
   6   7     0.02  -0.06  -0.03     0.16   0.15  -0.07    -0.17  -0.05   0.05
   7   6    -0.04   0.10   0.04    -0.02  -0.03   0.02    -0.03  -0.01   0.06
   8   6     0.08  -0.11  -0.01     0.09  -0.03  -0.02     0.09  -0.18  -0.03
   9   6     0.01  -0.02   0.00    -0.02   0.06   0.05    -0.08   0.01   0.01
  10   6     0.02   0.00  -0.02     0.01   0.00   0.01     0.03   0.03  -0.04
  11   6     0.00  -0.01   0.01     0.00  -0.00  -0.00     0.05   0.01  -0.02
  12   6     0.01  -0.02  -0.00     0.01   0.02   0.00    -0.03  -0.03   0.05
  13   6    -0.01  -0.06  -0.00    -0.13  -0.05   0.05     0.12   0.06  -0.03
  14   6     0.03   0.11  -0.03     0.08  -0.20  -0.12    -0.03   0.27   0.04
  15   6    -0.03   0.07   0.02     0.02  -0.04  -0.01    -0.07   0.05   0.03
  16   6     0.04   0.03  -0.01    -0.07   0.06   0.03     0.05  -0.08  -0.02
  17   6    -0.05  -0.04   0.01     0.02  -0.03  -0.01    -0.04   0.01   0.01
  18   6    -0.03  -0.02   0.01    -0.04   0.07   0.02     0.04  -0.09  -0.02
  19   1     0.01  -0.00  -0.01     0.09   0.01  -0.02     0.04  -0.01  -0.03
  20   1     0.01  -0.01  -0.00     0.03  -0.02  -0.01     0.03  -0.02  -0.00
  21   1    -0.02  -0.01   0.01    -0.08  -0.05   0.02    -0.05  -0.03   0.01
  22   1     0.03   0.01   0.01     0.12   0.03   0.03     0.08   0.02   0.02
  23   1    -0.02   0.00   0.00    -0.07  -0.00   0.02    -0.06  -0.01   0.02
  24   1     0.00  -0.00   0.01     0.02  -0.03   0.08     0.00   0.01   0.02
  25   1     0.00   0.02  -0.02     0.01   0.07  -0.14     0.00   0.04  -0.12
  26   1    -0.00  -0.01  -0.03    -0.05  -0.05  -0.10    -0.11  -0.06  -0.15
  27   1    -0.00   0.01   0.00    -0.00   0.01   0.01     0.06   0.06   0.11
  28   1     0.05   0.03  -0.00     0.12   0.06  -0.01    -0.01   0.03  -0.02
  29   1    -0.04  -0.02  -0.02    -0.17  -0.10   0.03    -0.01  -0.02   0.04
  30   1     0.15   0.06  -0.01    -0.25  -0.06   0.03    -0.10   0.15   0.01
  31   1    -0.20  -0.03   0.16    -0.24   0.43  -0.13    -0.04  -0.02   0.03
  32   1    -0.15   0.15  -0.15     0.10  -0.12   0.10    -0.15   0.12  -0.14
  33   1     0.23  -0.01  -0.04    -0.16  -0.02   0.01     0.09  -0.01  -0.03
  34   1    -0.12  -0.12   0.21     0.10   0.09  -0.16     0.18   0.17  -0.28
  35   1    -0.10   0.13  -0.12     0.12  -0.13   0.14     0.22  -0.28   0.29
  36   1     0.13  -0.09  -0.05     0.07  -0.07  -0.04    -0.15   0.12   0.07
  37   1     0.07   0.40   0.01     0.03   0.34   0.02    -0.02  -0.25  -0.02
  38   1    -0.47  -0.23   0.14    -0.05  -0.03   0.01    -0.12  -0.05   0.04
  39   1     0.23  -0.19  -0.11    -0.03   0.03   0.00     0.20  -0.17  -0.09
                     61                     62                     63
                        a                      a                      a 
 Frequencies --  1199.1476              1205.6096              1228.5763
 Red. masses --     4.1237                 3.6984                 2.9806
 Frc consts  --     0.0000                 0.0000                 0.0000
 IR Inten    --    17.3519                 1.5644                 6.3999
 Raman Activ --     0.0000                 0.0000                 0.0000
 Depolar     --     0.0000                 0.0000                 0.0000
 Atom AN      X      Y      Z        X      Y      Z        X      Y      Z
   1   7    -0.09   0.15   0.06    -0.01  -0.01  -0.01    -0.06   0.09   0.03
   2   6     0.14  -0.21  -0.04     0.01   0.01   0.01     0.09  -0.03  -0.01
   3   6    -0.05   0.09   0.02    -0.01  -0.02  -0.00     0.05  -0.14  -0.01
   4   6    -0.06   0.01  -0.00     0.02   0.02   0.01    -0.17   0.15   0.03
   5   6     0.06  -0.14   0.01    -0.07  -0.06   0.04     0.06   0.06  -0.04
   6   7     0.03   0.20   0.01     0.15   0.14  -0.04    -0.05  -0.16   0.03
   7   6     0.02  -0.16  -0.06     0.01  -0.04  -0.01     0.03   0.14   0.00
   8   6    -0.10   0.15   0.02    -0.21   0.22   0.01     0.02  -0.09   0.01
   9   6     0.03  -0.05  -0.03    -0.07  -0.02  -0.04     0.01   0.03   0.00
  10   6    -0.03  -0.02   0.02     0.04  -0.00   0.00     0.01   0.00  -0.01
  11   6    -0.01   0.00  -0.00     0.03   0.02  -0.02    -0.00  -0.01   0.00
  12   6     0.01   0.02  -0.02    -0.01  -0.05   0.07    -0.01  -0.02   0.00
  13   6    -0.08   0.03   0.04    -0.11  -0.04   0.03     0.08  -0.02  -0.03
  14   6    -0.03   0.02   0.07     0.01  -0.19   0.02    -0.00  -0.00  -0.02
  15   6     0.02   0.05  -0.01     0.07  -0.02  -0.03    -0.01  -0.02   0.00
  16   6     0.02  -0.02  -0.01    -0.03   0.04   0.01     0.00   0.02   0.00
  17   6     0.03  -0.02  -0.01     0.03  -0.01  -0.01    -0.02   0.02   0.01
  18   6    -0.01  -0.02  -0.00    -0.02   0.06   0.01     0.02   0.00  -0.01
  19   1     0.13  -0.00  -0.05     0.01   0.01   0.01     0.05  -0.01  -0.04
  20   1     0.08  -0.04  -0.02    -0.01   0.00  -0.00     0.04  -0.03  -0.00
  21   1    -0.15  -0.08   0.03     0.01  -0.00   0.00    -0.09  -0.04   0.02
  22   1     0.25   0.12  -0.02    -0.00  -0.00  -0.00     0.19   0.15  -0.13
[...]
  21   1    -0.00   0.00   0.00    -0.00   0.00  -0.00    -0.00   0.00   0.00
  22   1     0.02  -0.03  -0.01    -0.01   0.02   0.01     0.00  -0.00  -0.00
  23   1     0.01   0.01   0.02    -0.04  -0.05  -0.09    -0.00  -0.00  -0.00
  24   1    -0.39  -0.27  -0.01     0.58   0.41   0.01     0.10   0.07   0.00
  25   1    -0.11   0.11   0.01     0.28  -0.25  -0.03     0.02  -0.02  -0.00
  26   1    -0.11   0.20  -0.00    -0.09   0.17  -0.01    -0.07   0.14  -0.01
  27   1     0.45   0.39  -0.51     0.25   0.22  -0.29     0.06   0.05  -0.07
  28   1    -0.01   0.03   0.07    -0.02   0.06   0.17     0.07  -0.28  -0.83
  29   1     0.02  -0.03  -0.00    -0.01   0.03  -0.01     0.14  -0.28   0.04
  30   1     0.00   0.00  -0.00     0.00   0.00  -0.00    -0.00  -0.00   0.00
  31   1    -0.00  -0.00  -0.00    -0.00  -0.00  -0.00    -0.00  -0.00  -0.00
  32   1     0.00   0.00  -0.00     0.00  -0.00   0.00    -0.00   0.00   0.00
  33   1    -0.00  -0.00   0.00     0.00   0.00  -0.00     0.00   0.00   0.00
  34   1     0.00  -0.00   0.00    -0.00   0.00  -0.00    -0.00  -0.00  -0.00
  35   1     0.00  -0.00  -0.00     0.00  -0.00  -0.00    -0.00  -0.00   0.00
  36   1    -0.00  -0.00  -0.00     0.00   0.00  -0.00     0.00   0.00   0.00
  37   1    -0.00   0.00  -0.00     0.00  -0.00  -0.00     0.00   0.00   0.00
  38   1     0.00  -0.00  -0.00    -0.00  -0.00  -0.00     0.00  -0.00  -0.00
  39   1    -0.00  -0.00   0.00     0.00   0.00  -0.00     0.00   0.00   0.00
                     97                     98                     99
                        a                      a                      a 
 Frequencies --  2957.1096              2973.1108              2981.2951
 Red. masses --     1.9404                 1.5673                 1.5543
 Frc consts  --     0.0000                 0.0000                 0.0000
 IR Inten    --     2.4287                10.3089                18.9655
 Raman Activ --     0.0000                 0.0000                 0.0000
 Depolar     --     0.0000                 0.0000                 0.0000
 Atom AN      X      Y      Z        X      Y      Z        X      Y      Z
   1   7     0.01   0.01   0.02    -0.00  -0.00  -0.01     0.00   0.00   0.00
   2   6    -0.03   0.21   0.18    -0.03  -0.04  -0.06     0.04   0.00   0.04
   3   6     0.04  -0.05  -0.00     0.06  -0.18  -0.02    -0.03   0.05   0.01
   4   6     0.00   0.00  -0.00    -0.06   0.04   0.02    -0.10   0.12   0.03
   5   6    -0.00   0.00  -0.00     0.00  -0.01   0.01     0.06  -0.10   0.07
   6   7    -0.00   0.00  -0.00     0.00  -0.00   0.00    -0.00  -0.01   0.00
   7   6    -0.00   0.00   0.00    -0.00  -0.00  -0.00    -0.00   0.00  -0.00
   8   6    -0.00  -0.00  -0.00    -0.00   0.00  -0.00    -0.00  -0.00  -0.00
   9   6    -0.00   0.00  -0.00     0.00  -0.00   0.00    -0.00   0.00  -0.00
  10   6     0.00  -0.00   0.00    -0.00   0.00  -0.00    -0.00  -0.00   0.00
  11   6     0.00  -0.00   0.00    -0.00   0.00  -0.00    -0.00   0.00  -0.00
  12   6     0.00   0.00  -0.00     0.00   0.00  -0.00     0.00   0.00  -0.00
  13   6     0.00  -0.00  -0.00    -0.00   0.00   0.00     0.00  -0.00  -0.00
  14   6     0.00  -0.00   0.00     0.00   0.00  -0.00     0.00   0.00  -0.00
  15   6    -0.00  -0.00  -0.00     0.00  -0.00  -0.00     0.00  -0.00  -0.00
  16   6    -0.00   0.00   0.00    -0.00   0.00   0.00    -0.00   0.00   0.00
  17   6     0.00  -0.00  -0.00    -0.00  -0.00  -0.00     0.00  -0.00   0.00
  18   6     0.00   0.00   0.00     0.00   0.00  -0.00     0.00   0.00  -0.00
  19   1     0.00   0.00  -0.00    -0.00  -0.01   0.00     0.00   0.00   0.00
  20   1    -0.04  -0.02  -0.07     0.01   0.00   0.03    -0.01  -0.00  -0.02
  21   1    -0.01   0.01   0.01    -0.00   0.00   0.00     0.00  -0.00  -0.00
  22   1     0.38  -0.45  -0.10    -0.00  -0.00  -0.01    -0.07   0.09   0.03
  23   1    -0.26  -0.32  -0.55     0.11   0.14   0.24    -0.07  -0.10  -0.17
  24   1     0.06   0.03  -0.00     0.36   0.21   0.00    -0.08  -0.04  -0.00
  25   1    -0.20   0.16   0.02    -0.59   0.45   0.06     0.17  -0.13  -0.02
  26   1     0.00  -0.00  -0.00     0.12  -0.27   0.03     0.24  -0.57   0.07
  27   1    -0.01  -0.01   0.01     0.10   0.10  -0.12     0.12   0.14  -0.16
  28   1    -0.00   0.00   0.01     0.00  -0.01  -0.02     0.03  -0.11  -0.26
  29   1     0.00  -0.01  -0.00    -0.02   0.04  -0.00    -0.25   0.50  -0.00
  30   1     0.00  -0.00  -0.00     0.00   0.00   0.00    -0.00  -0.00   0.00
  31   1     0.00   0.00   0.00     0.00   0.00  -0.00     0.00   0.00   0.00
  32   1     0.00   0.00  -0.00    -0.00  -0.00   0.00     0.00   0.00  -0.00
  33   1     0.00   0.00  -0.00    -0.00   0.00   0.00    -0.00   0.00  -0.00
  34   1    -0.00   0.00  -0.00     0.00  -0.00   0.00     0.00  -0.00   0.00
  35   1    -0.00  -0.00   0.00     0.00   0.00   0.00    -0.00   0.00   0.00
  36   1     0.00   0.00  -0.00     0.00   0.00  -0.00     0.00   0.00   0.00
  37   1     0.00  -0.00  -0.00     0.00  -0.00  -0.00     0.00  -0.00  -0.00
  38   1    -0.00   0.00   0.00    -0.00   0.00   0.00    -0.00   0.00   0.00
  39   1    -0.00  -0.00   0.00    -0.00  -0.00   0.00    -0.00  -0.00  -0.00
                    100                    101                    102
                        a                      a                      a 
 Frequencies --  2984.7972              2991.7052              3096.7546
 Red. masses --     1.5596                 1.6646                 1.7544
 Frc consts  --     0.0000                 0.0000                 0.0000
 IR Inten    --     7.9689                32.1130                 1.4571
 Raman Activ --     0.0000                 0.0000                 0.0000
 Depolar     --     0.0000                 0.0000                 0.0000
 Atom AN      X      Y      Z        X      Y      Z        X      Y      Z
   1   7     0.01   0.01   0.01    -0.00  -0.00  -0.00     0.00  -0.00   0.00
   2   6     0.17  -0.08   0.08    -0.03   0.02  -0.00     0.00  -0.00   0.00
   3   6     0.04  -0.04  -0.00    -0.04   0.05   0.01     0.00  -0.00  -0.00
   4   6    -0.00   0.00  -0.00    -0.09   0.13   0.01     0.00  -0.00   0.00
   5   6    -0.03   0.05  -0.02    -0.08   0.15  -0.05     0.00  -0.00  -0.00
   6   7     0.00   0.00  -0.00     0.00   0.01  -0.00    -0.00   0.00   0.00
   7   6     0.00  -0.00   0.00    -0.00  -0.00   0.00     0.00  -0.00  -0.00
   8   6     0.00   0.00   0.00     0.00  -0.00   0.00     0.00   0.00  -0.00
   9   6    -0.00  -0.00   0.00     0.00   0.00  -0.00     0.15   0.04  -0.10
  10   6     0.00  -0.00   0.00     0.00   0.00  -0.00     0.02  -0.10   0.13
  11   6     0.00  -0.00   0.00    -0.00   0.00  -0.00    -0.07   0.03  -0.02
  12   6     0.00   0.00  -0.00     0.00   0.00  -0.00     0.03   0.01  -0.02
  13   6     0.00  -0.00  -0.00    -0.00   0.00   0.00     0.00   0.00  -0.00
  14   6    -0.00  -0.00   0.00     0.00   0.00  -0.00     0.00  -0.00  -0.00
  15   6     0.00   0.00   0.00    -0.00   0.00   0.00    -0.00  -0.01   0.00
  16   6     0.00   0.00  -0.00    -0.00  -0.00   0.00     0.00  -0.00  -0.00
  17   6    -0.00   0.00   0.00     0.00   0.00  -0.00     0.00  -0.00  -0.00
  18   6    -0.00  -0.00   0.00    -0.00  -0.00   0.00    -0.00  -0.00   0.00
  19   1     0.00  -0.00   0.00    -0.00   0.00  -0.00    -0.00   0.00  -0.00
  20   1    -0.02  -0.01  -0.04    -0.00   0.00   0.00    -0.00  -0.00  -0.00
  21   1     0.01  -0.01  -0.01    -0.00   0.00   0.00     0.00   0.00   0.00
  22   1    -0.44   0.56   0.16     0.09  -0.12  -0.03    -0.00   0.00   0.00
  23   1    -0.18  -0.28  -0.43     0.02   0.03   0.05    -0.00  -0.00  -0.00
  24   1     0.02  -0.00  -0.00    -0.05  -0.02   0.00    -0.00  -0.00  -0.00
  25   1    -0.17   0.14   0.02     0.17  -0.13  -0.02    -0.00   0.00  -0.00
  26   1     0.01  -0.01   0.00     0.23  -0.54   0.06    -0.00   0.00  -0.00
  27   1    -0.00  -0.00   0.00     0.07   0.09  -0.09     0.00   0.00  -0.00
  28   1    -0.01   0.03   0.08    -0.03   0.08   0.15    -0.00   0.00   0.00
  29   1     0.11  -0.22   0.00     0.30  -0.61   0.01    -0.00   0.00  -0.00
  30   1    -0.00  -0.00  -0.00    -0.00  -0.00  -0.01     0.00   0.00  -0.00
  31   1    -0.00  -0.00  -0.00     0.00   0.00  -0.00    -0.00  -0.00  -0.00
  32   1     0.00   0.00  -0.00    -0.00  -0.00   0.00    -0.53  -0.15   0.36
  33   1    -0.00   0.00  -0.00     0.00  -0.00   0.00    -0.06   0.37  -0.50
  34   1    -0.00   0.00  -0.00     0.00  -0.00   0.00     0.25  -0.13   0.07
  35   1    -0.00  -0.00   0.00    -0.01   0.00   0.01    -0.11  -0.03   0.07
  36   1    -0.00  -0.00  -0.00    -0.00   0.00  -0.00     0.02   0.02  -0.00
  37   1    -0.00   0.00   0.00     0.00  -0.00  -0.00    -0.01   0.00   0.00
  38   1     0.00  -0.00  -0.00     0.00  -0.00  -0.00    -0.00   0.00   0.00
  39   1     0.00   0.00   0.00     0.01   0.01   0.00     0.00   0.00  -0.00
                    103                    104                    105
                        a                      a                      a 
 Frequencies --  3101.3544              3108.2376              3111.1415
 Red. masses --     1.7738                 1.7732                 1.8797
 Frc consts  --     0.0000                 0.0000                 0.0000
 IR Inten    --     5.1993                 2.0904                50.7093
 Raman Activ --     0.0000                 0.0000                 0.0000
 Depolar     --     0.0000                 0.0000                 0.0000
 Atom AN      X      Y      Z        X      Y      Z        X      Y      Z
   1   7     0.00   0.00  -0.00    -0.00   0.00  -0.00    -0.00  -0.00  -0.00
   2   6     0.00  -0.00  -0.00     0.00   0.00   0.00    -0.00   0.00   0.00
   3   6     0.00  -0.00  -0.00     0.00  -0.00  -0.00    -0.00   0.00   0.00
   4   6     0.00  -0.00   0.00     0.00  -0.00  -0.00    -0.00   0.00  -0.00
   5   6     0.00  -0.00  -0.00     0.00  -0.00   0.00    -0.00   0.00   0.00
   6   7    -0.00   0.00  -0.00    -0.00   0.00   0.00     0.00  -0.00   0.00
   7   6     0.01   0.00  -0.00    -0.00  -0.00  -0.00    -0.00  -0.00   0.00
   8   6    -0.00  -0.00   0.00     0.00  -0.00  -0.00    -0.00   0.00  -0.00
   9   6    -0.08  -0.02   0.05     0.00   0.00  -0.00    -0.14  -0.03   0.09
  10   6    -0.00   0.01  -0.01    -0.00   0.00  -0.00     0.02  -0.11   0.15
  11   6    -0.14   0.08  -0.05     0.00  -0.00   0.00    -0.04   0.02  -0.01
  12   6     0.14   0.03  -0.09     0.00   0.00  -0.00    -0.10  -0.02   0.07
  13   6     0.00  -0.00  -0.00    -0.00  -0.00   0.00    -0.00  -0.00   0.00
  14   6    -0.00   0.00  -0.00    -0.00  -0.00   0.00    -0.00   0.00   0.00
  15   6     0.00   0.00  -0.00    -0.01  -0.02   0.00     0.01   0.01  -0.00
  16   6    -0.00   0.00   0.00     0.13  -0.02  -0.05    -0.00   0.00   0.00
  17   6    -0.00   0.00   0.00    -0.08   0.20   0.05    -0.00   0.01   0.00
  18   6    -0.00  -0.00   0.00    -0.03  -0.04   0.01    -0.00  -0.00   0.00
  19   1    -0.00  -0.00   0.00    -0.00  -0.00   0.00    -0.00   0.01  -0.00
  20   1    -0.00  -0.00  -0.00     0.00  -0.00   0.00     0.00   0.00   0.00
  21   1     0.00  -0.00  -0.00     0.00  -0.00  -0.00    -0.00   0.00   0.00
  22   1    -0.00   0.00  -0.00     0.00  -0.00  -0.00     0.00  -0.00   0.00
  23   1     0.00   0.00   0.00    -0.00  -0.00  -0.00    -0.00  -0.00  -0.00
  24   1     0.00   0.00   0.00    -0.00  -0.00  -0.00     0.00   0.00  -0.00
  25   1    -0.00   0.00   0.00    -0.00   0.00   0.00     0.00  -0.00  -0.00
  26   1    -0.00   0.01  -0.00    -0.00   0.00  -0.00     0.00  -0.00   0.00
  27   1     0.00   0.00  -0.00    -0.00  -0.00   0.00    -0.00  -0.00   0.00
  28   1    -0.00   0.00   0.00     0.00  -0.00  -0.00     0.00  -0.00  -0.00
  29   1    -0.00   0.00   0.00    -0.00   0.00  -0.00     0.00  -0.00   0.00
  30   1    -0.00   0.00   0.01     0.00   0.00   0.00    -0.00  -0.00  -0.01
  31   1     0.00   0.00   0.00     0.00   0.00   0.00     0.00   0.00   0.00
  32   1     0.29   0.08  -0.20    -0.01  -0.00   0.00     0.45   0.13  -0.31
  33   1     0.01  -0.03   0.03     0.00  -0.01   0.02    -0.06   0.36  -0.50
  34   1     0.53  -0.28   0.16    -0.00   0.00  -0.00     0.14  -0.07   0.04
  35   1    -0.53  -0.11   0.34    -0.01  -0.00   0.01     0.36   0.08  -0.23
  36   1    -0.01  -0.01   0.00     0.06   0.09  -0.01    -0.03  -0.04   0.01
  37   1     0.01  -0.00  -0.00    -0.48   0.06   0.17     0.01  -0.00  -0.00
  38   1     0.00  -0.00  -0.00     0.28  -0.71  -0.16     0.01  -0.03  -0.01
  39   1     0.00   0.00  -0.00     0.12   0.17  -0.03     0.01   0.01  -0.00
                    106                    107                    108
                        a                      a                      a 
 Frequencies --  3117.5311              3117.5827              3129.1743
 Red. masses --     1.9152                 1.8282                 1.8493
 Frc consts  --     0.0000                 0.0000                 0.0000
 IR Inten    --    56.6432                10.5354                67.4016
 Raman Activ --     0.0000                 0.0000                 0.0000
 Depolar     --     0.0000                 0.0000                 0.0000
 Atom AN      X      Y      Z        X      Y      Z        X      Y      Z
   1   7    -0.00  -0.00  -0.00    -0.00   0.00   0.00     0.00   0.00   0.00
   2   6     0.00  -0.00  -0.00     0.00  -0.00   0.00     0.00  -0.00   0.00
   3   6     0.00  -0.00  -0.00     0.00  -0.00  -0.00     0.00  -0.00  -0.00
   4   6     0.00  -0.00   0.00     0.00  -0.00  -0.00     0.00  -0.00  -0.00
   5   6     0.00  -0.00  -0.00     0.00  -0.00   0.00     0.00  -0.00   0.00
   6   7     0.00  -0.00  -0.00     0.00   0.00  -0.00     0.00  -0.00  -0.00
   7   6     0.00   0.00  -0.00     0.00   0.00  -0.00     0.00  -0.00   0.00
   8   6    -0.00   0.00   0.00    -0.00  -0.00   0.00    -0.00  -0.00  -0.00
   9   6    -0.05  -0.01   0.03     0.00   0.00  -0.00    -0.01  -0.00   0.00
  10   6     0.01  -0.07   0.09     0.00  -0.01   0.01     0.00  -0.00   0.00
  11   6     0.16  -0.09   0.05     0.02  -0.01   0.01    -0.00   0.00  -0.00
  12   6     0.13   0.03  -0.09     0.02   0.00  -0.01    -0.00  -0.00   0.00
  13   6    -0.00   0.00   0.00    -0.00  -0.00   0.00    -0.01   0.00   0.00
  14   6    -0.00  -0.00   0.00     0.00   0.00  -0.00     0.00  -0.00  -0.00
  15   6    -0.00  -0.01   0.00     0.06   0.08  -0.01    -0.10  -0.13   0.02
  16   6     0.03  -0.00  -0.01    -0.19   0.02   0.07    -0.04   0.01   0.01
  17   6     0.01  -0.02  -0.00    -0.05   0.11   0.03     0.02  -0.06  -0.01
  18   6     0.00   0.00  -0.00    -0.05  -0.07   0.01    -0.12  -0.17   0.03
  19   1     0.00   0.00  -0.00    -0.00   0.00  -0.00    -0.00   0.00  -0.00
  20   1     0.01   0.00   0.01     0.00  -0.00   0.00    -0.00  -0.00  -0.00
  21   1     0.00  -0.00  -0.00     0.00  -0.00  -0.00     0.00  -0.00   0.00
  22   1    -0.00   0.00  -0.00    -0.00   0.00   0.00    -0.00   0.00   0.00
  23   1     0.00   0.00   0.00    -0.00  -0.00  -0.00     0.00  -0.00  -0.00
  24   1    -0.00  -0.00  -0.00    -0.00  -0.00  -0.00    -0.00  -0.00  -0.00
  25   1    -0.00   0.00   0.00    -0.00   0.00   0.00    -0.00   0.00   0.00
  26   1    -0.00   0.00   0.00    -0.00   0.00  -0.00    -0.00   0.00  -0.00
  27   1     0.00   0.00  -0.00    -0.00  -0.00   0.00    -0.00  -0.00   0.00
  28   1    -0.00   0.00   0.00     0.00  -0.00  -0.00     0.00  -0.00  -0.00
  29   1    -0.00   0.00   0.00    -0.00   0.01  -0.00    -0.00   0.01  -0.00
  30   1     0.00  -0.00   0.00     0.00  -0.00   0.00    -0.00   0.00   0.00
  31   1    -0.00  -0.00  -0.00    -0.00  -0.00  -0.00     0.00   0.00   0.00
  32   1     0.16   0.04  -0.11    -0.01  -0.00   0.01     0.02   0.01  -0.02
  33   1    -0.03   0.22  -0.31    -0.00   0.02  -0.02    -0.00   0.00  -0.00
  34   1    -0.56   0.29  -0.17    -0.08   0.04  -0.02     0.01  -0.00   0.00
  35   1    -0.45  -0.10   0.29    -0.07  -0.01   0.04     0.02   0.00  -0.01
  36   1     0.02   0.02  -0.00    -0.22  -0.30   0.05     0.34   0.47  -0.07
  37   1    -0.09   0.01   0.03     0.66  -0.08  -0.24     0.11  -0.01  -0.04
  38   1    -0.02   0.06   0.01     0.16  -0.39  -0.09    -0.07   0.18   0.04
  39   1    -0.00  -0.01   0.00     0.17   0.24  -0.04     0.42   0.58  -0.09
                    109                    110                    111
                        a                      a                      a 
 Frequencies --  3131.3454              3225.8418              3240.4008
 Red. masses --     1.8924                 1.8901                 1.6517
 Frc consts  --     0.0000                 0.0000                 0.0000
 IR Inten    --     9.1877                51.0071                39.1594
 Raman Activ --     0.0000                 0.0000                 0.0000
 Depolar     --     0.0000                 0.0000                 0.0000
 Atom AN      X      Y      Z        X      Y      Z        X      Y      Z
   1   7     0.00   0.00   0.00    -0.04   0.23  -0.11     0.13  -0.13  -0.13
   2   6     0.00  -0.00   0.00    -0.00   0.00  -0.00     0.01  -0.00  -0.00
   3   6     0.00  -0.00  -0.00    -0.00   0.00   0.00    -0.00   0.00   0.00
   4   6     0.00  -0.00  -0.00     0.00   0.00  -0.00     0.00  -0.00  -0.00
   5   6     0.00  -0.00   0.00    -0.00   0.00  -0.00    -0.00  -0.00  -0.00
   6   7    -0.00  -0.00  -0.00     0.00   0.00   0.00     0.00  -0.00   0.00
   7   6     0.00  -0.00   0.00    -0.00  -0.00  -0.00    -0.00  -0.00  -0.00
   8   6     0.00  -0.00   0.00    -0.00   0.00  -0.00    -0.00  -0.00  -0.00
   9   6     0.01   0.00  -0.01    -0.00  -0.00   0.00    -0.00  -0.00   0.00
  10   6    -0.00   0.00  -0.01     0.00  -0.00   0.00     0.00  -0.00   0.00
  11   6    -0.00   0.00  -0.00     0.00  -0.00   0.00     0.00  -0.00   0.00
  12   6    -0.00  -0.00   0.00    -0.00   0.00   0.00     0.00   0.00  -0.00
  13   6    -0.01  -0.00   0.00     0.00   0.00  -0.00    -0.00   0.00  -0.00
  14   6    -0.00   0.01   0.00     0.00  -0.00  -0.00    -0.00  -0.00   0.00
  15   6     0.11   0.15  -0.02    -0.00  -0.00   0.00    -0.00  -0.00   0.00
  16   6     0.11  -0.01  -0.04    -0.00   0.00   0.00    -0.00   0.00   0.00
  17   6     0.03  -0.08  -0.02    -0.00   0.00   0.00    -0.00   0.00   0.00
  18   6    -0.09  -0.12   0.02     0.00   0.00   0.00     0.00  -0.00  -0.00
  19   1    -0.00  -0.00   0.00     0.05  -0.78   0.54     0.02  -0.18   0.10
  20   1    -0.00  -0.00  -0.01    -0.01   0.02  -0.03    -0.01  -0.02  -0.06
  21   1    -0.00   0.00   0.00     0.10  -0.11  -0.10    -0.51   0.67   0.44
  22   1    -0.00   0.00   0.00     0.01  -0.01  -0.00    -0.01   0.02   0.00
  23   1    -0.00  -0.00  -0.00    -0.00  -0.00  -0.00    -0.00   0.00  -0.00
  24   1    -0.00  -0.00  -0.00    -0.00  -0.00  -0.00    -0.00  -0.00   0.00
  25   1    -0.00   0.00   0.00     0.00  -0.00   0.00     0.00  -0.00  -0.00
  26   1    -0.00   0.00  -0.00     0.00   0.00  -0.00    -0.00   0.00   0.00
  27   1    -0.00  -0.00   0.00    -0.00  -0.00   0.00    -0.00  -0.00   0.00
  28   1     0.00  -0.00  -0.00     0.00   0.00   0.00     0.00   0.00   0.00
  29   1    -0.00   0.01  -0.00     0.00  -0.00   0.00    -0.00  -0.00  -0.00
  30   1    -0.00   0.00   0.00     0.00  -0.00   0.00     0.00  -0.00   0.00
  31   1    -0.00  -0.00  -0.00     0.00   0.00   0.00     0.00   0.00   0.00
  32   1    -0.03  -0.01   0.02     0.00   0.00  -0.00     0.00   0.00  -0.00
  33   1     0.00  -0.01   0.02    -0.00   0.00  -0.01    -0.00   0.00  -0.00
  34   1     0.02  -0.01   0.00    -0.00   0.00  -0.00    -0.00   0.00  -0.00
  35   1     0.01   0.00  -0.01     0.00   0.00  -0.00    -0.00  -0.00   0.00
  36   1    -0.38  -0.53   0.08     0.00   0.00  -0.00     0.00   0.00  -0.00
  37   1    -0.35   0.04   0.13     0.00  -0.00  -0.00     0.00  -0.00  -0.00
  38   1    -0.10   0.26   0.06     0.00  -0.00  -0.00     0.00  -0.00  -0.00
  39   1     0.30   0.41  -0.07    -0.00  -0.00   0.00    -0.00   0.00   0.00
