 Entering Gaussian System
 *********************************************
 Gaussian 98:
 frequency output generated by the xtb code
 *********************************************
                         Standard orientation:
 --------------------------------------------------------------------
  Center     Atomic     Atomic              Coordinates (Angstroms)
  Number     Number      Type              X           Y           Z
 --------------------------------------------------------------------
    1          7             0       -4.964384   -1.124253    0.636719
    2          6             0       -5.159575    0.134659    1.408658
    3          6             0       -4.426431    1.312255    0.771903
    4          6             0       -2.962383    1.046657    0.580979
    5          6             0       -2.490400    0.527292   -0.615642
    6          6             0       -1.152312    0.242295   -0.782386
    7          6             0       -0.238207    0.459092    0.248620
    8          6             0        1.170921    0.146134    0.037176
    9          6             0        2.117144    0.151241    0.986222
   10          6             0        3.525552   -0.161177    0.772498
   11          6             0        4.061027   -0.363852   -0.499234
   12          6             0        5.398645   -0.658050   -0.678118
   13          9             0        5.894219   -0.851524   -1.925859
   14          6             0        6.226628   -0.752792    0.426820
   15          6             0        5.720314   -0.553227    1.694701
   16          6             0        4.384226   -0.259520    1.868355
   17          6             0       -0.720590    0.975486    1.451451
   18          6             0       -2.060408    1.259764    1.613265
   19         17             0       -5.243712   -0.317217   -2.746851
   20          1             0       -3.979545   -1.431158    0.678626
   21          1             0       -5.188567   -0.975124   -0.364600
   22          1             0       -5.550437   -1.899059    0.986713
   23          1             0       -4.804932   -0.013401    2.435387
   24          1             0       -6.231474    0.354335    1.492611
   25          1             0       -4.555594    2.220096    1.373352
   26          1             0       -4.874853    1.540615   -0.201726
   27          1             0       -3.188883    0.334114   -1.413930
   28          1             0       -0.800867   -0.160409   -1.718127
   29          1             0        1.448496   -0.123889   -0.966535
   30          1             0        1.833339    0.386044    1.996983
   31          1             0        3.442874   -0.285440   -1.374382
   32          1             0        7.266816   -0.982508    0.274366
   33          1             0        6.371826   -0.627459    2.551239
   34          1             0        3.990280   -0.104826    2.859347
   35          1             0       -0.039306    1.164484    2.263258
   36          1             0       -2.420513    1.652547    2.550276
 --------------------------------------------------------------------
     1 basis functions        1 primitive gaussians
     1 alpha electrons        1 beta electrons

 Harmonic frequencies (cm**-1), IR intensities (km*mol⁻¹),
 Raman scattering activities (A**4/amu), Raman depolarization ratios,
 reduced masses (AMU), force constants (mDyne/A) and normal coordinates:
                      1                      2                      3
                        a                      a                      a 
 Frequencies --  -140.8291               -81.4257               -41.6721
 Red. masses --    19.1581                 8.2455                10.7840
 Frc consts  --     0.0000                 0.0000                 0.0000
 IR Inten    --   132.1935                 0.4312                 0.3327
 Raman Activ --     0.0000                 0.0000                 0.0000
 Depolar     --     0.0000                 0.0000                 0.0000
 Atom AN      X      Y      Z        X      Y      Z        X      Y      Z
   1   7    -0.10   0.12  -0.59    -0.01   0.04   0.01    -0.03   0.07  -0.01
   2   6    -0.05  -0.06  -0.26    -0.01   0.05  -0.02    -0.04   0.08  -0.03
   3   6     0.02   0.05   0.02     0.00   0.03  -0.05     0.00   0.05  -0.02
   4   6     0.02   0.03   0.01    -0.00   0.01  -0.02    -0.00  -0.01  -0.00
   5   6     0.01   0.02   0.02     0.02   0.01  -0.01     0.03   0.20  -0.08
   6   6     0.01  -0.00   0.02     0.01  -0.09   0.05     0.02   0.14  -0.05
   7   6     0.01  -0.00   0.01    -0.02  -0.17   0.09    -0.02  -0.13   0.04
   8   6     0.00  -0.03   0.01    -0.05  -0.33   0.14    -0.03  -0.15   0.04
   9   6     0.01   0.02   0.00     0.11   0.45  -0.01     0.00  -0.07   0.01
  10   6     0.01   0.00   0.00     0.06   0.24  -0.01     0.01  -0.03  -0.00
  11   6     0.00  -0.01   0.00     0.03   0.24  -0.02    -0.04  -0.24   0.01
  12   6     0.00  -0.00  -0.00    -0.02   0.01  -0.03    -0.00  -0.07  -0.00
  13   9     0.00   0.01  -0.01    -0.04   0.01  -0.04    -0.04  -0.24   0.00
  14   6     0.01  -0.00  -0.01    -0.05  -0.21  -0.03     0.07   0.24  -0.03
  15   6     0.01   0.00  -0.00    -0.01  -0.16  -0.02     0.10   0.38  -0.04
  16   6     0.01   0.01  -0.00     0.04   0.08  -0.01     0.07   0.26  -0.03
  17   6     0.02   0.01   0.01    -0.04  -0.15   0.07    -0.06  -0.36   0.13
  18   6     0.02   0.03   0.01    -0.03  -0.07   0.02    -0.05  -0.30   0.10
  19  17     0.00  -0.14   0.58     0.01   0.02  -0.07     0.01   0.11  -0.02
  20   1    -0.05  -0.03  -0.10    -0.00   0.01   0.01    -0.01   0.01   0.02
  21   1     0.06   0.12  -0.19     0.00   0.01   0.00     0.01   0.02  -0.01
  22   1    -0.10   0.04  -0.26    -0.00   0.01   0.00    -0.02   0.02  -0.01
  23   1    -0.03  -0.09  -0.08    -0.01   0.02  -0.00    -0.03   0.02  -0.00
  24   1    -0.01  -0.00  -0.07    -0.00   0.02  -0.01    -0.01   0.03  -0.02
  25   1     0.01  -0.02   0.05     0.00   0.01  -0.02     0.01   0.02  -0.01
  26   1     0.02   0.07   0.01     0.00   0.00  -0.02     0.01   0.02  -0.01
  27   1     0.00   0.01   0.01     0.01   0.02  -0.01     0.02   0.11  -0.04
  28   1    -0.00  -0.01   0.01     0.00  -0.03   0.02     0.01   0.09  -0.03
  29   1    -0.00  -0.03   0.01    -0.06  -0.35   0.10    -0.01  -0.06   0.01
  30   1     0.01   0.02  -0.00     0.09   0.39  -0.05     0.01   0.01  -0.00
  31   1    -0.00  -0.00   0.00     0.02   0.14  -0.00    -0.03  -0.15   0.01
  32   1     0.00  -0.00  -0.00    -0.03  -0.11  -0.01     0.03   0.11  -0.01
  33   1     0.00   0.00  -0.00    -0.01  -0.09  -0.01     0.04   0.18  -0.02
  34   1     0.00   0.01  -0.00     0.02   0.03  -0.00     0.03   0.12  -0.01
  35   1     0.01   0.00   0.00    -0.03  -0.08   0.04    -0.03  -0.18   0.07
  36   1     0.01   0.01   0.00    -0.01  -0.03   0.01    -0.02  -0.14   0.05
                      4                      5                      6
                        a                      a                      a 
 Frequencies --    32.4503                42.1962                55.4955
 Red. masses --    12.1458                20.1105                20.6385
 Frc consts  --     0.0000                 0.0000                 0.0000
 IR Inten    --     1.3103                 1.9947                 9.8381
 Raman Activ --     0.0000                 0.0000                 0.0000
 Depolar     --     0.0000                 0.0000                 0.0000
 Atom AN      X      Y      Z        X      Y      Z        X      Y      Z
   1   7    -0.12   0.19  -0.00     0.07  -0.02  -0.15    -0.06  -0.10  -0.19
   2   6    -0.06   0.20  -0.04    -0.05  -0.09  -0.04     0.06  -0.21   0.04
   3   6     0.06   0.14  -0.03    -0.03   0.01   0.15     0.03  -0.13   0.15
   4   6     0.03  -0.01  -0.00    -0.03   0.04   0.15     0.03  -0.08   0.08
   5   6    -0.02  -0.26   0.09    -0.05  -0.08   0.19    -0.01  -0.17   0.10
   6   6    -0.05  -0.39   0.11    -0.05  -0.08   0.19    -0.00  -0.12   0.06
   7   6    -0.01  -0.26   0.06    -0.03   0.04   0.15     0.05   0.03  -0.02
   8   6    -0.02  -0.31   0.07    -0.04   0.02   0.13     0.05   0.05  -0.04
   9   6    -0.01  -0.22   0.05    -0.01   0.02   0.10     0.07   0.14  -0.06
  10   6     0.01  -0.14   0.03    -0.03   0.00   0.03     0.06   0.11  -0.02
  11   6     0.01  -0.03   0.02    -0.13  -0.08   0.00     0.07  -0.05   0.00
  12   6     0.05   0.14  -0.02    -0.13  -0.07  -0.09     0.07  -0.10   0.05
  13   9     0.06   0.27  -0.03    -0.29  -0.17  -0.15     0.10  -0.30   0.10
  14   6     0.09   0.25  -0.04    -0.05   0.01  -0.15     0.05  -0.01   0.07
  15   6     0.08   0.11  -0.02     0.05   0.09  -0.12     0.05   0.15   0.04
  16   6     0.04  -0.09   0.02     0.06   0.09  -0.03     0.05   0.22  -0.00
  17   6     0.04  -0.00  -0.03    -0.00   0.18   0.10     0.09   0.13  -0.05
  18   6     0.07   0.12  -0.06    -0.01   0.18   0.10     0.08   0.07   0.00
  19  17    -0.14   0.10  -0.10     0.49  -0.04  -0.32    -0.51   0.28  -0.20
  20   1    -0.03   0.04  -0.00     0.02  -0.00  -0.01    -0.01  -0.02  -0.12
  21   1    -0.03   0.04  -0.00     0.06   0.02  -0.05    -0.07   0.02  -0.03
  22   1    -0.04   0.06   0.01     0.01  -0.02  -0.08     0.01  -0.05  -0.05
  23   1    -0.03   0.06  -0.01    -0.04  -0.05  -0.01     0.05  -0.11  -0.01
  24   1    -0.01   0.08  -0.02    -0.02  -0.04  -0.03     0.02  -0.05   0.05
  25   1     0.03   0.04  -0.01    -0.02  -0.02   0.08     0.01  -0.06   0.07
  26   1     0.03   0.05  -0.01    -0.00   0.04   0.05    -0.00  -0.01   0.05
  27   1    -0.01  -0.09   0.03    -0.02  -0.04   0.06    -0.01  -0.07   0.04
  28   1    -0.03  -0.17   0.05    -0.02  -0.05   0.07    -0.01  -0.05   0.02
  29   1    -0.01  -0.12   0.03    -0.02  -0.00   0.04     0.01  -0.01  -0.01
  30   1     0.00  -0.05   0.01     0.01   0.01   0.03     0.02   0.06  -0.02
  31   1    -0.00  -0.02   0.01    -0.06  -0.05   0.01     0.02  -0.04  -0.00
  32   1     0.03   0.12  -0.02    -0.02   0.01  -0.06     0.01  -0.02   0.03
  33   1     0.03   0.05  -0.01     0.03   0.04  -0.05     0.01   0.06   0.02
  34   1     0.01  -0.06   0.01     0.04   0.04  -0.00     0.01   0.10  -0.01
  35   1     0.02   0.03  -0.03     0.01   0.09   0.01     0.04   0.08  -0.03
  36   1     0.03   0.09  -0.04     0.00   0.08   0.02     0.03   0.04  -0.00
                      7                      8                      9
                        a                      a                      a 
 Frequencies --    68.9950                84.1256                92.8748
 Red. masses --    16.2520                21.5941                11.0282
 Frc consts  --     0.0000                 0.0000                 0.0000
 IR Inten    --     7.9586                24.2832                17.4737
 Raman Activ --     0.0000                 0.0000                 0.0000
 Depolar     --     0.0000                 0.0000                 0.0000
 Atom AN      X      Y      Z        X      Y      Z        X      Y      Z
   1   7    -0.06  -0.02  -0.04     0.03   0.16  -0.13     0.48  -0.09  -0.08
   2   6    -0.01   0.05  -0.14     0.02   0.05   0.03     0.33  -0.18   0.04
   3   6     0.02  -0.03  -0.24     0.05   0.17   0.27     0.00  -0.00  -0.03
   4   6     0.05  -0.01  -0.08     0.03   0.15   0.18     0.02   0.19  -0.12
   5   6     0.17   0.03  -0.05    -0.04   0.25   0.11     0.01   0.17  -0.11
   6   6     0.20   0.09   0.07    -0.06   0.19   0.03    -0.01   0.05  -0.06
   7   6     0.09   0.10   0.17    -0.00   0.02   0.02    -0.04  -0.06  -0.01
   8   6     0.11   0.16   0.24    -0.03  -0.05  -0.04    -0.08  -0.27   0.08
   9   6     0.09  -0.02   0.26     0.00  -0.04  -0.07    -0.07  -0.06   0.07
  10   6     0.08  -0.02   0.16    -0.00  -0.07  -0.05    -0.08  -0.11   0.08
  11   6    -0.04   0.02   0.10     0.04  -0.02  -0.04    -0.11  -0.10   0.07
  12   6    -0.06   0.01  -0.05     0.06   0.02   0.00    -0.09   0.00   0.03
  13   9    -0.26   0.05  -0.14     0.16   0.12   0.02    -0.16   0.05   0.01
  14   6     0.05  -0.04  -0.14     0.02  -0.01   0.03    -0.05   0.10  -0.00
  15   6     0.17  -0.08  -0.08    -0.03  -0.08   0.02    -0.03   0.05   0.02
  16   6     0.19  -0.07   0.07    -0.04  -0.10  -0.02    -0.05  -0.06   0.06
  17   6    -0.03   0.04   0.14     0.07  -0.06   0.08    -0.01   0.07  -0.06
  18   6    -0.06  -0.01   0.01     0.09   0.01   0.16     0.01   0.19  -0.11
  19  17    -0.41  -0.15  -0.12    -0.25  -0.48  -0.38    -0.13   0.06   0.09
  20   1    -0.01   0.00  -0.03     0.02   0.07  -0.08     0.16   0.06  -0.12
  21   1    -0.05  -0.04  -0.01    -0.03   0.04  -0.03     0.01  -0.03   0.00
  22   1    -0.00  -0.00   0.03     0.04   0.02  -0.03     0.22  -0.08   0.03
  23   1    -0.00   0.04  -0.04    -0.00  -0.03   0.01     0.16  -0.05  -0.01
  24   1    -0.00   0.02  -0.05     0.01   0.02   0.01     0.09  -0.11   0.07
  25   1    -0.01   0.01  -0.11     0.03   0.01   0.14    -0.03  -0.01   0.00
  26   1     0.03  -0.05  -0.09     0.01   0.12   0.10    -0.04  -0.02   0.00
  27   1     0.07   0.00  -0.03    -0.02   0.10   0.03     0.00   0.06  -0.03
  28   1     0.09   0.04   0.03    -0.04   0.07  -0.01    -0.00   0.00  -0.01
  29   1     0.05   0.10   0.06    -0.02  -0.04  -0.01    -0.03  -0.17   0.05
  30   1     0.02  -0.06   0.09     0.01   0.01  -0.02    -0.01   0.07   0.00
  31   1    -0.03   0.01   0.05     0.02  -0.00  -0.02    -0.04  -0.04   0.02
  32   1     0.01  -0.02  -0.07     0.01   0.01   0.02    -0.01   0.06  -0.01
  33   1     0.08  -0.03  -0.04    -0.02  -0.03   0.01     0.00   0.03  -0.00
  34   1     0.09  -0.03   0.03    -0.02  -0.04  -0.01    -0.01  -0.02   0.02
  35   1    -0.03   0.01   0.06     0.03  -0.05   0.02    -0.01   0.01  -0.01
  36   1    -0.05  -0.01  -0.00     0.04  -0.02   0.06     0.00   0.07  -0.04
                     10                     11                     12
                        a                      a                      a 
 Frequencies --   146.7213               159.8756               196.3998
 Red. masses --     9.5135                11.7410                 8.7877
 Frc consts  --     0.0000                 0.0000                 0.0000
 IR Inten    --    23.4049                 2.0440                 5.5866
 Raman Activ --     0.0000                 0.0000                 0.0000
 Depolar     --     0.0000                 0.0000                 0.0000
 Atom AN      X      Y      Z        X      Y      Z        X      Y      Z
   1   7    -0.50  -0.13   0.05    -0.16   0.15  -0.07     0.16  -0.13   0.13
   2   6     0.04  -0.12   0.20     0.24   0.04   0.20    -0.29   0.02  -0.22
   3   6    -0.03  -0.15   0.04     0.20   0.03   0.15     0.11  -0.04   0.11
   4   6    -0.00   0.05  -0.05     0.15  -0.08  -0.03     0.11  -0.12   0.11
   5   6     0.05   0.18  -0.09     0.06  -0.07  -0.07     0.05   0.01   0.03
   6   6     0.05   0.20  -0.07     0.05  -0.08  -0.14     0.05   0.09  -0.12
   7   6     0.03   0.09  -0.03     0.07  -0.09  -0.17     0.11   0.07  -0.17
   8   6    -0.01  -0.20   0.07     0.09   0.04  -0.11     0.07  -0.09  -0.10
   9   6     0.04   0.04   0.02    -0.08  -0.03   0.05     0.00   0.12  -0.03
  10   6     0.01  -0.14   0.04    -0.06   0.12   0.14    -0.04  -0.06   0.09
  11   6    -0.00  -0.16   0.03    -0.12   0.17   0.12    -0.08  -0.09   0.09
  12   6     0.02  -0.02  -0.00    -0.17   0.06   0.05    -0.08  -0.00   0.04
  13   9     0.03   0.08  -0.02    -0.41   0.04  -0.01    -0.23   0.05   0.00
  14   6     0.07   0.11  -0.02    -0.14  -0.06   0.01    -0.03   0.11   0.02
  15   6     0.06   0.00  -0.01    -0.06   0.03   0.04    -0.03   0.01   0.04
  16   6     0.04  -0.12   0.02    -0.03   0.11   0.11    -0.04  -0.09   0.09
  17   6     0.02   0.19  -0.07     0.15  -0.16  -0.12     0.20   0.09  -0.15
  18   6     0.02   0.16  -0.09     0.17  -0.15  -0.04     0.20  -0.04   0.02
  19  17     0.10  -0.02  -0.04     0.07  -0.06  -0.07    -0.12   0.04   0.01
  20   1    -0.19  -0.19   0.06    -0.06  -0.02  -0.08     0.03  -0.06   0.23
  21   1    -0.05   0.04   0.00    -0.07   0.09  -0.01     0.21  -0.07  -0.01
  22   1    -0.27   0.04  -0.05    -0.07   0.06  -0.03    -0.04  -0.01  -0.04
  23   1     0.10  -0.07   0.02     0.15  -0.05   0.02    -0.28   0.04   0.01
  24   1     0.03   0.02   0.17     0.08   0.05   0.16    -0.09   0.02  -0.27
  25   1    -0.02  -0.03  -0.00     0.10   0.00   0.06     0.05  -0.04   0.08
  26   1    -0.04  -0.07   0.02     0.02   0.03   0.07     0.08   0.07   0.03
  27   1     0.02   0.05  -0.03     0.00  -0.01  -0.01    -0.00   0.01   0.02
  28   1     0.02   0.07  -0.02     0.00  -0.02  -0.05    -0.00   0.05  -0.05
  29   1    -0.03  -0.20   0.05     0.07   0.08  -0.04     0.02  -0.14   0.00
  30   1     0.04   0.15  -0.02    -0.07  -0.08   0.02    -0.00   0.14  -0.04
  31   1    -0.01  -0.06   0.01    -0.04   0.06   0.04    -0.03  -0.03   0.03
  32   1     0.03   0.08  -0.02    -0.05  -0.06  -0.01    -0.00   0.07  -0.00
  33   1     0.03   0.02  -0.01    -0.00  -0.00   0.00     0.00   0.01   0.00
  34   1     0.01  -0.05   0.01     0.00   0.04   0.04    -0.01  -0.04   0.03
  35   1     0.00   0.06  -0.02     0.05  -0.05  -0.04     0.07   0.04  -0.06
  36   1     0.00   0.05  -0.03     0.06  -0.05  -0.01     0.08  -0.02   0.02
                     13                     14                     15
                        a                      a                      a 
 Frequencies --   223.7923               227.6847               247.6424
 Red. masses --     9.0154                12.4870                 8.2115
 Frc consts  --     0.0000                 0.0000                 0.0000
 IR Inten    --     3.4323                 0.7244                 0.8909
 Raman Activ --     0.0000                 0.0000                 0.0000
 Depolar     --     0.0000                 0.0000                 0.0000
 Atom AN      X      Y      Z        X      Y      Z        X      Y      Z
   1   7     0.02  -0.15   0.08     0.01   0.08  -0.01    -0.06   0.09  -0.03
   2   6    -0.06  -0.06  -0.05     0.02   0.04   0.02    -0.25  -0.02   0.04
   3   6    -0.04   0.00   0.04     0.03  -0.00  -0.03    -0.16   0.01   0.18
   4   6    -0.02   0.14  -0.01     0.01  -0.09  -0.01    -0.17  -0.06  -0.00
   5   6    -0.03   0.19  -0.03     0.02  -0.13   0.01    -0.15   0.02  -0.05
   6   6    -0.06   0.02  -0.03     0.03  -0.03   0.01    -0.12   0.09  -0.14
   7   6    -0.04  -0.16  -0.00     0.02   0.09  -0.01    -0.03   0.00  -0.18
   8   6    -0.02  -0.19   0.03     0.01   0.09  -0.01     0.04  -0.06  -0.01
   9   6    -0.05  -0.34   0.06     0.02   0.15  -0.03     0.04  -0.03   0.04
  10   6     0.05   0.07   0.03    -0.04  -0.10  -0.00     0.12  -0.00   0.16
  11   6     0.06   0.13   0.02    -0.12  -0.51   0.03     0.12   0.03   0.16
  12   6     0.03  -0.03   0.01    -0.06  -0.21   0.02     0.10  -0.01   0.04
  13   9     0.04   0.16  -0.01     0.08   0.53  -0.04    -0.12   0.00  -0.05
  14   6    -0.02  -0.38   0.02    -0.08  -0.25   0.03     0.19  -0.07  -0.03
  15   6     0.08   0.04  -0.01    -0.04  -0.05   0.01     0.23  -0.03  -0.01
  16   6     0.14   0.36  -0.01     0.02   0.27  -0.02     0.23  -0.01   0.09
  17   6     0.01   0.01  -0.05     0.00   0.03   0.01    -0.06   0.03  -0.20
  18   6     0.04   0.17  -0.06    -0.01  -0.07   0.01    -0.06  -0.02  -0.11
  19  17    -0.07   0.02  -0.02     0.02   0.00   0.02     0.09  -0.00   0.07
  20   1    -0.04  -0.15   0.20     0.02   0.07  -0.07     0.07   0.25  -0.25
  21   1     0.19  -0.01  -0.02    -0.07   0.01   0.01    -0.28  -0.05   0.05
  22   1    -0.13   0.02  -0.08     0.06  -0.01   0.04     0.23  -0.09   0.16
  23   1    -0.07  -0.00   0.00     0.02   0.01   0.00    -0.10  -0.02   0.02
  24   1    -0.02  -0.02  -0.07     0.01   0.01   0.02    -0.08  -0.02  -0.02
  25   1    -0.03  -0.02   0.04     0.02   0.01  -0.02    -0.00  -0.02   0.09
  26   1    -0.02   0.02   0.02     0.01  -0.01  -0.01    -0.06   0.06   0.07
  27   1    -0.01   0.08  -0.01     0.01  -0.05   0.01    -0.05   0.01  -0.01
  28   1    -0.03   0.00  -0.01     0.02  -0.01   0.01    -0.06   0.04  -0.06
  29   1     0.01   0.05  -0.02    -0.01  -0.02   0.01     0.03  -0.04   0.01
  30   1    -0.04  -0.22   0.04     0.02   0.11  -0.02    -0.00   0.01   0.00
  31   1     0.02   0.05   0.01    -0.05  -0.21   0.01     0.03   0.02   0.05
  32   1    -0.03  -0.23   0.01    -0.02  -0.07   0.01     0.05  -0.03  -0.02
  33   1     0.03   0.01  -0.01    -0.01   0.01   0.00     0.08  -0.01  -0.01
  34   1     0.07   0.19  -0.01     0.03   0.21  -0.02     0.10  -0.00   0.04
  35   1     0.01   0.01  -0.02    -0.00   0.01   0.00    -0.01   0.02  -0.06
  36   1     0.03   0.08  -0.02    -0.01  -0.03   0.00     0.01  -0.01  -0.02
                     16                     17                     18
                        a                      a                      a 
 Frequencies --   264.0946               321.8887               350.7360
 Red. masses --     7.7333                10.8986                 9.1913
 Frc consts  --     0.0000                 0.0000                 0.0000
 IR Inten    --     2.4732                 7.2012                 8.6068
 Raman Activ --     0.0000                 0.0000                 0.0000
 Depolar     --     0.0000                 0.0000                 0.0000
 Atom AN      X      Y      Z        X      Y      Z        X      Y      Z
   1   7     0.23   0.14  -0.00    -0.11  -0.23   0.02    -0.11  -0.20   0.07
   2   6     0.09   0.01   0.17     0.11  -0.04  -0.16    -0.04  -0.05  -0.11
   3   6    -0.10   0.10   0.14    -0.06   0.08  -0.18     0.10   0.12   0.26
   4   6    -0.16   0.00  -0.13     0.02   0.35   0.10     0.05   0.15  -0.19
   5   6    -0.14  -0.10  -0.09    -0.09   0.14   0.16     0.03  -0.01  -0.15
   6   6    -0.11  -0.10  -0.04    -0.17  -0.16   0.07     0.05  -0.06  -0.06
   7   6    -0.07   0.02  -0.07    -0.03  -0.12  -0.06    -0.02  -0.17   0.03
   8   6     0.02   0.18   0.02     0.04   0.14  -0.22     0.05   0.16   0.16
   9   6     0.05   0.16   0.03     0.03   0.15  -0.20     0.03   0.15   0.18
  10   6     0.07  -0.00   0.09     0.06   0.06   0.05    -0.01   0.11  -0.01
  11   6     0.06  -0.11   0.11     0.09  -0.14   0.12    -0.13  -0.11  -0.05
  12   6     0.07  -0.03   0.03     0.10  -0.03   0.08    -0.10   0.02  -0.06
  13   9    -0.03   0.02  -0.02    -0.27   0.07  -0.06     0.22  -0.04   0.06
  14   6     0.16   0.04  -0.03     0.15   0.06   0.05    -0.08   0.11  -0.07
  15   6     0.14  -0.09  -0.01     0.05  -0.10   0.05    -0.05  -0.11  -0.04
  16   6     0.13  -0.11   0.05     0.06  -0.04   0.06    -0.02  -0.00  -0.03
  17   6    -0.16  -0.07  -0.07     0.02  -0.21   0.01    -0.04  -0.23   0.03
  18   6    -0.17  -0.10  -0.11     0.08   0.11   0.10     0.04   0.20  -0.20
  19  17    -0.09  -0.01  -0.08     0.02   0.01   0.02     0.02   0.02   0.03
  20   1    -0.01  -0.14   0.27    -0.04  -0.10  -0.02    -0.02  -0.03  -0.03
  21   1     0.36   0.16  -0.06    -0.07  -0.11   0.01    -0.10  -0.13   0.03
  22   1    -0.17   0.10  -0.25    -0.05  -0.02   0.08     0.01  -0.04   0.12
  23   1     0.05  -0.01   0.04     0.07   0.01  -0.06    -0.09  -0.03  -0.01
  24   1     0.02  -0.04   0.08     0.03  -0.02  -0.01    -0.01   0.01  -0.10
  25   1     0.03   0.01   0.08    -0.13   0.02  -0.08     0.11  -0.07   0.25
  26   1    -0.09   0.07   0.08     0.02  -0.04  -0.08    -0.03   0.23   0.15
  27   1    -0.03  -0.04  -0.03    -0.05   0.04   0.07     0.01  -0.02  -0.04
  28   1    -0.04  -0.05  -0.01    -0.10  -0.09   0.02     0.03  -0.01  -0.01
  29   1     0.02   0.06   0.01     0.01   0.10  -0.08     0.06   0.13   0.04
  30   1     0.01   0.06   0.01    -0.02   0.02  -0.06     0.02  -0.03   0.07
  31   1     0.01  -0.05   0.03     0.03  -0.08   0.03    -0.06  -0.08  -0.00
  32   1     0.05   0.05  -0.02     0.05   0.05   0.02    -0.02   0.06  -0.04
  33   1     0.05  -0.03  -0.01     0.01  -0.05   0.02    -0.01  -0.08  -0.02
  34   1     0.06  -0.04   0.02     0.02  -0.02   0.02    -0.00  -0.01  -0.01
  35   1    -0.06  -0.03  -0.01     0.02  -0.12   0.01    -0.03  -0.12   0.03
  36   1    -0.05  -0.04  -0.03     0.07   0.03   0.05     0.01   0.11  -0.08
                     19                     20                     21
                        a                      a                      a 
 Frequencies --   364.4744               390.1662               401.2565
 Red. masses --     9.1153                11.4320                 8.9020
 Frc consts  --     0.0000                 0.0000                 0.0000
 IR Inten    --     0.6769                 5.1834                 5.5362
 Raman Activ --     0.0000                 0.0000                 0.0000
 Depolar     --     0.0000                 0.0000                 0.0000
 Atom AN      X      Y      Z        X      Y      Z        X      Y      Z
   1   7    -0.04  -0.06   0.02     0.01   0.02  -0.03     0.06   0.17  -0.03
   2   6     0.01  -0.01  -0.04     0.05   0.02  -0.01    -0.13  -0.02   0.15
   3   6     0.02   0.04   0.03    -0.06  -0.02  -0.17    -0.08  -0.18  -0.05
   4   6     0.01   0.06  -0.03    -0.00   0.06   0.20    -0.02  -0.11   0.08
   5   6     0.05   0.41  -0.17    -0.12  -0.04   0.20     0.06   0.12   0.00
   6   6    -0.08  -0.40   0.11    -0.15   0.05  -0.15     0.03   0.03  -0.02
   7   6    -0.01  -0.02  -0.02    -0.02   0.01  -0.24     0.01  -0.21   0.04
   8   6     0.02   0.05   0.05     0.04   0.03   0.07     0.03  -0.07   0.02
   9   6    -0.01   0.03   0.08    -0.05   0.07   0.20     0.02  -0.03   0.02
  10   6    -0.01   0.03   0.02    -0.03   0.00   0.17     0.06   0.28  -0.04
  11   6    -0.05  -0.02  -0.01    -0.22   0.04   0.04    -0.04  -0.19  -0.01
  12   6    -0.05   0.01  -0.03    -0.23   0.01  -0.10     0.05   0.25  -0.02
  13   9     0.11  -0.02   0.03     0.42  -0.06   0.17    -0.03  -0.10  -0.00
  14   6    -0.03   0.02  -0.04    -0.14   0.01  -0.19     0.03   0.24  -0.01
  15   6     0.01  -0.03  -0.03     0.12  -0.01  -0.12    -0.11  -0.41   0.04
  16   6     0.02  -0.00  -0.00     0.12  -0.04   0.06     0.02   0.21  -0.02
  17   6     0.06   0.33  -0.15     0.05  -0.11  -0.16     0.05   0.02  -0.04
  18   6    -0.05  -0.37   0.12     0.11   0.01   0.12     0.05   0.08  -0.01
  19  17     0.01  -0.00   0.01    -0.00  -0.00  -0.01    -0.01  -0.01  -0.02
  20   1    -0.01  -0.01  -0.02    -0.00  -0.02   0.01     0.03   0.09   0.01
  21   1    -0.04  -0.04   0.01     0.02   0.02  -0.01     0.05   0.10  -0.01
  22   1     0.00  -0.01   0.04    -0.02   0.01  -0.02     0.04  -0.01  -0.09
  23   1    -0.00  -0.00  -0.01     0.06   0.02  -0.02    -0.04  -0.01   0.04
  24   1     0.00   0.00  -0.02     0.01  -0.01   0.04    -0.04  -0.01   0.03
  25   1     0.01  -0.01   0.04    -0.11   0.05  -0.15    -0.05   0.01  -0.12
  26   1    -0.00   0.04   0.02     0.04  -0.13  -0.10    -0.00  -0.16  -0.05
  27   1     0.03   0.22  -0.08    -0.07  -0.02   0.09     0.03   0.08  -0.02
  28   1    -0.05  -0.26   0.08    -0.10   0.03  -0.07     0.00   0.05  -0.02
  29   1     0.02   0.02   0.02     0.06  -0.01   0.04     0.03   0.08  -0.02
  30   1    -0.00  -0.01   0.03    -0.02   0.03   0.05    -0.02  -0.10   0.02
  31   1    -0.02  -0.02   0.00    -0.10   0.04   0.04    -0.05  -0.25   0.01
  32   1    -0.01   0.01  -0.03    -0.05   0.01  -0.13     0.01   0.07   0.00
  33   1     0.01  -0.02  -0.01     0.08   0.00  -0.07    -0.07  -0.31   0.03
  34   1     0.01  -0.00   0.00     0.08  -0.02   0.04    -0.00   0.06  -0.01
  35   1     0.04   0.22  -0.10     0.05  -0.07  -0.07     0.03   0.06  -0.04
  36   1    -0.03  -0.24   0.08     0.09   0.00   0.06     0.04   0.07  -0.02
                     22                     23                     24
                        a                      a                      a 
 Frequencies --   432.0816               462.0208               479.2755
 Red. masses --     9.7467                10.4512                12.4761
 Frc consts  --     0.0000                 0.0000                 0.0000
 IR Inten    --     6.3809                 0.4946                 5.2807
 Raman Activ --     0.0000                 0.0000                 0.0000
 Depolar     --     0.0000                 0.0000                 0.0000
 Atom AN      X      Y      Z        X      Y      Z        X      Y      Z
   1   7     0.03   0.16  -0.02     0.00   0.02  -0.01    -0.00  -0.03   0.00
   2   6    -0.24  -0.08   0.21     0.05   0.03  -0.03    -0.01  -0.02  -0.00
   3   6    -0.18  -0.19   0.02     0.14  -0.06  -0.04    -0.14   0.08  -0.00
   4   6    -0.06   0.07  -0.01     0.10  -0.14   0.14    -0.08   0.18   0.00
   5   6     0.13   0.22  -0.02    -0.07   0.05  -0.01    -0.01  -0.06   0.12
   6   6     0.09  -0.14   0.08    -0.11  -0.01  -0.23     0.01  -0.01  -0.02
   7   6     0.12  -0.26   0.06    -0.20  -0.16  -0.10     0.14   0.14  -0.15
   8   6     0.18   0.12  -0.06    -0.10   0.11   0.36     0.16  -0.03   0.18
   9   6     0.13   0.14  -0.02    -0.06   0.14   0.32     0.11  -0.07   0.22
  10   6     0.04  -0.06  -0.02    -0.11   0.05  -0.18     0.07  -0.06   0.03
  11   6    -0.03   0.04  -0.05     0.14  -0.03  -0.07     0.16  -0.03   0.02
  12   6    -0.10  -0.26  -0.01     0.17  -0.17   0.10     0.18   0.04  -0.21
  13   9     0.01   0.10  -0.03    -0.14   0.07  -0.06     0.07  -0.08  -0.48
  14   6    -0.13  -0.07   0.03     0.21  -0.06   0.10    -0.17   0.04   0.10
  15   6    -0.02   0.24   0.03    -0.05   0.08  -0.02    -0.28   0.03   0.11
  16   6    -0.09  -0.19   0.05    -0.10  -0.09  -0.22    -0.21   0.12   0.21
  17   6     0.05  -0.15  -0.02    -0.01   0.00  -0.11     0.01  -0.05  -0.14
  18   6     0.08   0.15  -0.12     0.07   0.05   0.11     0.00  -0.08  -0.01
  19  17    -0.00  -0.01  -0.01    -0.00  -0.00  -0.00    -0.00   0.00  -0.00
  20   1     0.03   0.12   0.00    -0.00  -0.00  -0.00    -0.00  -0.01   0.01
  21   1     0.04   0.11  -0.01    -0.00   0.00  -0.00     0.00  -0.01  -0.00
  22   1     0.05  -0.03  -0.10    -0.00   0.01   0.00    -0.01  -0.00   0.00
  23   1    -0.10  -0.03   0.07     0.00   0.01  -0.00     0.02   0.00  -0.01
  24   1    -0.07  -0.03   0.02     0.02   0.03  -0.02    -0.01  -0.03   0.03
  25   1    -0.09   0.00  -0.08     0.02   0.01  -0.05    -0.06   0.02   0.01
  26   1    -0.06  -0.16  -0.02     0.07  -0.05  -0.04    -0.04   0.02  -0.00
  27   1     0.07   0.10  -0.04    -0.06   0.08   0.02    -0.01  -0.08   0.05
  28   1     0.01  -0.04   0.02    -0.04   0.05  -0.09    -0.04  -0.06  -0.00
  29   1     0.07   0.11  -0.03     0.07   0.08   0.12     0.09  -0.06   0.08
  30   1     0.02  -0.01  -0.00     0.07  -0.03   0.13     0.07   0.01   0.07
  31   1     0.01   0.13  -0.02     0.12   0.01  -0.08     0.01  -0.02   0.03
  32   1    -0.02   0.03   0.01     0.07   0.02   0.07    -0.03  -0.01   0.14
  33   1     0.03   0.19  -0.01    -0.06   0.08   0.04    -0.06  -0.02   0.02
  34   1    -0.05  -0.06   0.01    -0.04  -0.03  -0.07    -0.09   0.05   0.04
  35   1     0.00  -0.02   0.00     0.07   0.04  -0.10    -0.01  -0.08  -0.01
  36   1     0.06   0.09  -0.04     0.04   0.07   0.02     0.03  -0.09   0.04
                     25                     26                     27
                        a                      a                      a 
 Frequencies --   489.1882               534.0615               567.4857
 Red. masses --    11.8871                 9.6222                10.5527
 Frc consts  --     0.0000                 0.0000                 0.0000
 IR Inten    --     4.6606                 2.6007                 4.9179
 Raman Activ --     0.0000                 0.0000                 0.0000
 Depolar     --     0.0000                 0.0000                 0.0000
 Atom AN      X      Y      Z        X      Y      Z        X      Y      Z
   1   7     0.00   0.01  -0.00    -0.01   0.10  -0.00     0.00  -0.02   0.00
   2   6     0.07   0.04  -0.04    -0.14  -0.07   0.14     0.05   0.03  -0.04
   3   6     0.17  -0.05  -0.01     0.14  -0.25   0.05     0.02   0.04  -0.02
   4   6     0.08  -0.24   0.05     0.21   0.23  -0.12    -0.04  -0.20   0.10
   5   6    -0.04   0.05  -0.11     0.06   0.04  -0.12    -0.02   0.09  -0.01
   6   6    -0.06   0.04  -0.03    -0.00  -0.19  -0.05    -0.05  -0.05  -0.03
   7   6    -0.20  -0.19   0.14    -0.09   0.26  -0.07    -0.06  -0.20   0.04
   8   6    -0.17   0.03  -0.11    -0.17   0.11  -0.00     0.06   0.21   0.02
   9   6    -0.12   0.09  -0.14    -0.21   0.02   0.03     0.15   0.10  -0.06
  10   6     0.01   0.10   0.26    -0.19  -0.18   0.09     0.03  -0.46  -0.00
  11   6     0.12  -0.01   0.26     0.06   0.01   0.14    -0.05  -0.05  -0.08
  12   6     0.07  -0.16  -0.19     0.14   0.25  -0.01     0.07   0.56  -0.06
  13   9     0.24  -0.03  -0.36     0.05  -0.08  -0.04    -0.06  -0.11   0.01
  14   6    -0.05   0.01  -0.07     0.13  -0.09  -0.05    -0.14  -0.15   0.06
  15   6    -0.08   0.05  -0.04    -0.02   0.00  -0.13     0.06   0.11   0.10
  16   6    -0.06  -0.03   0.33    -0.02   0.06  -0.02     0.04   0.00   0.04
  17   6    -0.03   0.07   0.10     0.01  -0.12   0.13    -0.06  -0.04  -0.03
  18   6    -0.02   0.08   0.05     0.08   0.12   0.03    -0.03   0.07   0.01
  19  17    -0.00  -0.00   0.00    -0.00  -0.00  -0.01     0.00  -0.00   0.00
  20   1    -0.00  -0.01  -0.01     0.02   0.09  -0.01    -0.00  -0.02  -0.00
  21   1    -0.01  -0.01   0.00     0.01   0.08   0.00    -0.00  -0.02  -0.00
  22   1    -0.01   0.01   0.02     0.04  -0.03  -0.06    -0.01   0.01   0.02
  23   1     0.00   0.01  -0.01    -0.16  -0.05   0.08     0.05   0.02  -0.02
  24   1     0.02   0.03  -0.02    -0.04   0.05  -0.08     0.02  -0.00   0.02
  25   1     0.08  -0.01  -0.00    -0.01  -0.03  -0.06     0.03   0.00   0.01
  26   1     0.06   0.00  -0.01     0.03  -0.16  -0.00     0.02   0.04  -0.01
  27   1    -0.02   0.10  -0.04    -0.02  -0.06   0.01    -0.00   0.12  -0.03
  28   1     0.03   0.10  -0.03     0.01  -0.19   0.05    -0.01   0.09  -0.05
  29   1    -0.08   0.07  -0.06    -0.05  -0.06   0.02    -0.01  -0.00   0.01
  30   1    -0.09  -0.02  -0.04    -0.03   0.10  -0.01     0.09   0.13  -0.03
  31   1    -0.03   0.03   0.12     0.02  -0.03   0.03    -0.04  -0.05  -0.01
  32   1     0.00   0.04   0.04     0.02  -0.10   0.01    -0.07  -0.20   0.01
  33   1     0.03   0.03  -0.05    -0.02  -0.02  -0.02     0.03   0.02   0.02
  34   1     0.03  -0.03   0.11     0.05   0.04   0.01    -0.01   0.06  -0.01
  35   1     0.02   0.11  -0.02    -0.00  -0.19   0.07     0.01   0.09  -0.06
  36   1    -0.03   0.11  -0.03    -0.03  -0.07   0.03     0.02   0.13  -0.03
                     28                     29                     30
                        a                      a                      a 
 Frequencies --   595.7325               610.1905               640.8105
 Red. masses --    10.7082                11.1951                 9.3430
 Frc consts  --     0.0000                 0.0000                 0.0000
 IR Inten    --     1.0639                 2.8965                 2.1810
 Raman Activ --     0.0000                 0.0000                 0.0000
 Depolar     --     0.0000                 0.0000                 0.0000
 Atom AN      X      Y      Z        X      Y      Z        X      Y      Z
   1   7     0.00  -0.05   0.00    -0.00  -0.00   0.01     0.00  -0.01  -0.00
   2   6    -0.00   0.01  -0.03     0.00  -0.00   0.01     0.01   0.01  -0.02
   3   6    -0.21   0.16  -0.02    -0.00   0.03   0.05    -0.02   0.02  -0.01
   4   6    -0.16  -0.06   0.03     0.01   0.04   0.11    -0.04  -0.13   0.05
   5   6     0.11  -0.00   0.11     0.44   0.01   0.22    -0.01   0.08  -0.02
   6   6     0.13   0.06   0.15     0.33  -0.16  -0.29    -0.03  -0.07   0.05
   7   6     0.19  -0.14   0.06    -0.01  -0.04  -0.10     0.02   0.01  -0.00
   8   6     0.09  -0.02  -0.13    -0.01  -0.02  -0.07     0.04   0.14  -0.02
   9   6    -0.25   0.12   0.14    -0.03  -0.03  -0.07    -0.01  -0.03   0.03
  10   6    -0.32  -0.01   0.09    -0.02   0.02   0.02    -0.11  -0.46   0.03
  11   6     0.06  -0.04   0.23     0.01   0.01   0.03     0.06   0.25  -0.01
  12   6     0.13   0.13   0.04    -0.01  -0.04   0.01    -0.05  -0.28   0.03
  13   9     0.06  -0.04   0.05     0.01   0.01   0.02    -0.00  -0.01   0.01
  14   6     0.24  -0.13  -0.12     0.02   0.01  -0.02     0.08   0.26  -0.03
  15   6    -0.15   0.06  -0.34    -0.01  -0.02  -0.03    -0.09  -0.35   0.00
  16   6    -0.16  -0.01  -0.13    -0.00   0.02   0.00     0.05   0.32  -0.04
  17   6     0.11  -0.02  -0.04    -0.40  -0.00  -0.21     0.00  -0.08   0.02
  18   6     0.06  -0.09  -0.13    -0.32   0.15   0.30     0.02   0.05  -0.04
  19  17    -0.00   0.00   0.00    -0.00   0.00  -0.00     0.00   0.00   0.00
  20   1    -0.00  -0.02   0.01    -0.00  -0.00   0.00    -0.00  -0.01   0.00
  21   1     0.01  -0.03  -0.00    -0.00  -0.00   0.00     0.00  -0.01  -0.00
  22   1    -0.01   0.00   0.02    -0.00  -0.00   0.01    -0.00   0.00   0.01
  23   1     0.09   0.02  -0.04     0.00  -0.00   0.00     0.03   0.01  -0.01
  24   1    -0.01  -0.06   0.08     0.00  -0.00   0.01     0.00  -0.01   0.02
  25   1    -0.04   0.02   0.04     0.03  -0.02   0.07     0.01   0.00   0.00
  26   1    -0.06   0.08   0.00    -0.02   0.07   0.04     0.00   0.02  -0.00
  27   1     0.08   0.03  -0.02     0.10   0.02   0.08     0.01   0.07  -0.02
  28   1     0.03   0.09   0.01     0.05  -0.04  -0.10    -0.00   0.02  -0.00
  29   1     0.08  -0.01  -0.02    -0.02  -0.01  -0.02     0.00  -0.07   0.02
  30   1    -0.12   0.05   0.02    -0.04   0.01  -0.03     0.02   0.09  -0.01
  31   1     0.06  -0.04   0.03     0.00   0.01   0.01     0.06   0.27  -0.02
  32   1     0.06  -0.07   0.01     0.01   0.01  -0.01     0.05   0.22  -0.01
  33   1    -0.09   0.03  -0.06    -0.00  -0.01  -0.01    -0.01  -0.01  -0.00
  34   1     0.04  -0.01  -0.00     0.01   0.00   0.00     0.06   0.28  -0.02
  35   1    -0.01   0.10  -0.00    -0.08  -0.01  -0.08     0.00   0.02  -0.01
  36   1     0.07   0.04  -0.04    -0.05   0.05   0.10     0.02   0.07  -0.03
                     31                     32                     33
                        a                      a                      a 
 Frequencies --   685.3391               742.0667               757.2102
 Red. masses --    10.6634                11.6931                 6.0699
 Frc consts  --     0.0000                 0.0000                 0.0000
 IR Inten    --     1.3657                14.6504                 5.7013
 Raman Activ --     0.0000                 0.0000                 0.0000
 Depolar     --     0.0000                 0.0000                 0.0000
 Atom AN      X      Y      Z        X      Y      Z        X      Y      Z
   1   7     0.02  -0.01  -0.00     0.01   0.03   0.00     0.00   0.01  -0.00
   2   6     0.04   0.05  -0.06     0.09   0.02  -0.01     0.00   0.02  -0.03
   3   6    -0.00   0.02  -0.03     0.19  -0.11   0.03    -0.01  -0.01  -0.01
   4   6    -0.11  -0.46   0.18     0.01  -0.01  -0.00    -0.04  -0.15   0.05
   5   6     0.01   0.28  -0.06    -0.15   0.03  -0.02     0.03   0.08  -0.00
   6   6    -0.07  -0.24   0.14    -0.12   0.07   0.06     0.01   0.04   0.02
   7   6     0.11   0.41  -0.16     0.05  -0.02  -0.01     0.03   0.13  -0.05
   8   6     0.06  -0.01  -0.02     0.20  -0.07   0.06    -0.07  -0.38   0.04
   9   6    -0.03  -0.16   0.06     0.33  -0.04  -0.08     0.02   0.38  -0.05
  10   6     0.04   0.20  -0.02     0.15  -0.05   0.01    -0.05  -0.07   0.01
  11   6    -0.01  -0.03  -0.01     0.13  -0.02   0.09    -0.04  -0.09  -0.00
  12   6    -0.00  -0.03   0.00     0.02   0.01  -0.00     0.03   0.17  -0.01
  13   9     0.00   0.02  -0.00    -0.10   0.04   0.35     0.01  -0.05  -0.05
  14   6    -0.00  -0.02   0.00     0.03  -0.03  -0.20    -0.03  -0.09   0.03
  15   6     0.00   0.07  -0.01    -0.33   0.03  -0.41     0.03  -0.10   0.07
  16   6    -0.02  -0.04  -0.01    -0.19   0.04   0.14     0.01  -0.11  -0.01
  17   6    -0.08  -0.25   0.06    -0.15   0.04  -0.08    -0.01   0.03  -0.01
  18   6     0.01   0.27  -0.10    -0.13   0.05   0.03     0.00   0.10  -0.03
  19  17    -0.00   0.00   0.00     0.00  -0.00  -0.00    -0.00   0.00  -0.00
  20   1    -0.00  -0.02   0.01    -0.01  -0.03  -0.03     0.00   0.00   0.02
  21   1     0.00  -0.03  -0.01    -0.03   0.02   0.01     0.01  -0.02  -0.01
  22   1    -0.01   0.02   0.03    -0.02   0.03   0.02     0.00   0.01   0.01
  23   1     0.09   0.03  -0.04    -0.08  -0.01   0.03     0.05   0.01  -0.02
  24   1     0.01  -0.02   0.05     0.03   0.06  -0.11     0.00  -0.01   0.04
  25   1     0.06  -0.01   0.02     0.04  -0.01  -0.03     0.03  -0.01   0.02
  26   1     0.03   0.06  -0.01     0.05  -0.07  -0.00     0.01   0.04   0.00
  27   1     0.01   0.11  -0.03    -0.06  -0.02   0.01    -0.00  -0.08   0.03
  28   1    -0.04  -0.10   0.05    -0.07  -0.03   0.02    -0.03  -0.16   0.07
  29   1     0.01  -0.11   0.02     0.05   0.04  -0.00     0.07   0.31  -0.08
  30   1     0.01   0.06  -0.00     0.11  -0.07  -0.00    -0.10  -0.34   0.06
  31   1    -0.01  -0.08  -0.00     0.02   0.01   0.04     0.04   0.16  -0.02
  32   1    -0.01  -0.05   0.01     0.02   0.01   0.00     0.04   0.20  -0.02
  33   1    -0.02  -0.04   0.00    -0.06   0.02  -0.14     0.06   0.22   0.00
  34   1    -0.03  -0.12   0.00    -0.00   0.03   0.05     0.07   0.30  -0.03
  35   1    -0.04  -0.11   0.04    -0.06  -0.05   0.01    -0.03  -0.15   0.06
  36   1     0.02   0.10  -0.04    -0.06  -0.04   0.02    -0.02  -0.12   0.04
                     34                     35                     36
                        a                      a                      a 
 Frequencies --   767.3054               791.9159               810.4113
 Red. masses --     9.3453                 5.6302                 5.7036
 Frc consts  --     0.0000                 0.0000                 0.0000
 IR Inten    --    14.3826                47.0649                10.5150
 Raman Activ --     0.0000                 0.0000                 0.0000
 Depolar     --     0.0000                 0.0000                 0.0000
 Atom AN      X      Y      Z        X      Y      Z        X      Y      Z
   1   7     0.02   0.05   0.01    -0.01  -0.02   0.00    -0.01   0.04   0.01
   2   6     0.19   0.02   0.00    -0.02  -0.02   0.02    -0.03   0.03  -0.07
   3   6     0.29  -0.16   0.07    -0.02   0.03   0.00    -0.00  -0.07  -0.05
   4   6    -0.03   0.05  -0.03     0.03   0.07  -0.03    -0.02  -0.15   0.06
   5   6    -0.11   0.04   0.09    -0.01  -0.05  -0.02    -0.00   0.06   0.01
   6   6    -0.10   0.12   0.26    -0.00  -0.08  -0.02     0.00   0.15  -0.02
   7   6     0.18  -0.08   0.01    -0.02   0.04  -0.01    -0.04  -0.32   0.11
   8   6     0.24  -0.04  -0.21     0.02   0.17  -0.02     0.06   0.24  -0.07
   9   6    -0.16   0.02   0.18    -0.02  -0.26   0.03    -0.06  -0.18   0.04
  10   6    -0.13   0.04   0.01     0.09   0.30  -0.03    -0.01   0.07  -0.00
  11   6    -0.09  -0.01  -0.04    -0.03  -0.20   0.01    -0.02  -0.03   0.01
  12   6    -0.01   0.02   0.02     0.05   0.21  -0.02     0.00   0.02   0.00
  13   9     0.06  -0.03  -0.18    -0.02  -0.04   0.03     0.01  -0.01  -0.02
  14   6     0.01  -0.01   0.10    -0.04  -0.21   0.00     0.00  -0.03   0.01
  15   6     0.12  -0.02   0.17    -0.05  -0.11  -0.02     0.01  -0.01   0.02
  16   6     0.05  -0.03  -0.14    -0.05  -0.17   0.03     0.00  -0.02  -0.02
  17   6    -0.23  -0.01  -0.15     0.01  -0.06   0.05     0.04   0.27  -0.12
  18   6    -0.20  -0.00  -0.05     0.01  -0.06   0.04     0.04   0.18  -0.06
  19  17     0.00  -0.00  -0.00     0.00  -0.00   0.00    -0.00   0.00  -0.00
  20   1    -0.02  -0.09  -0.09     0.00   0.00  -0.01     0.01   0.06   0.07
  21   1    -0.07   0.06   0.02    -0.00   0.02   0.00     0.04  -0.06  -0.02
  22   1    -0.04   0.06   0.03     0.00  -0.02  -0.01     0.02   0.00   0.02
  23   1    -0.19  -0.02   0.08    -0.02  -0.00   0.01     0.12   0.01  -0.06
  24   1     0.05   0.11  -0.25    -0.01  -0.01  -0.01     0.00  -0.00   0.11
  25   1     0.05  -0.00  -0.06    -0.02   0.01  -0.01     0.06  -0.06   0.06
  26   1     0.07  -0.14  -0.00    -0.01  -0.01  -0.00     0.02   0.08   0.00
  27   1    -0.00   0.01   0.01     0.00   0.07  -0.03    -0.03  -0.14   0.06
  28   1    -0.08   0.05   0.04     0.03   0.12  -0.05    -0.05  -0.19   0.08
  29   1     0.11  -0.06  -0.03    -0.04  -0.20   0.05    -0.02  -0.12   0.02
  30   1    -0.13   0.06   0.01     0.04   0.12  -0.03     0.03   0.18  -0.03
  31   1     0.03   0.03  -0.04     0.05   0.26  -0.01     0.01   0.06  -0.00
  32   1     0.01   0.02   0.00     0.09   0.41  -0.03     0.02   0.06  -0.00
  33   1     0.00   0.02   0.07     0.06   0.31  -0.03     0.00   0.03   0.01
  34   1    -0.00   0.02  -0.05     0.07   0.33  -0.02     0.01   0.02  -0.01
  35   1    -0.14   0.05   0.01     0.04   0.12  -0.05    -0.08  -0.43   0.16
  36   1    -0.06   0.01  -0.02     0.02   0.12  -0.04    -0.05  -0.38   0.14
                     37                     38                     39
                        a                      a                      a 
 Frequencies --   840.5858               854.2143               871.1546
 Red. masses --     5.4531                 3.7626                 3.7171
 Frc consts  --     0.0000                 0.0000                 0.0000
 IR Inten    --    30.3228                 0.7081                 1.9944
 Raman Activ --     0.0000                 0.0000                 0.0000
 Depolar     --     0.0000                 0.0000                 0.0000
 Atom AN      X      Y      Z        X      Y      Z        X      Y      Z
   1   7     0.10  -0.10  -0.05     0.02  -0.02  -0.02     0.02   0.04   0.05
   2   6     0.16   0.03   0.11     0.02   0.01   0.03     0.04  -0.01  -0.04
   3   6    -0.10   0.25   0.16    -0.03   0.06   0.04    -0.02  -0.07  -0.05
   4   6    -0.14  -0.14   0.08    -0.02  -0.03   0.01    -0.04  -0.04   0.02
   5   6     0.13   0.03   0.08     0.02   0.02  -0.02     0.05   0.13   0.02
   6   6     0.10  -0.03  -0.04     0.02   0.03  -0.04     0.06   0.35  -0.09
   7   6    -0.06  -0.02   0.03    -0.02   0.00   0.01    -0.02  -0.06   0.02
   8   6    -0.21   0.09   0.12    -0.02   0.00   0.01    -0.06   0.07   0.03
   9   6    -0.01  -0.03  -0.09     0.01  -0.01  -0.01    -0.01  -0.05  -0.02
  10   6     0.02   0.01  -0.01     0.01   0.03  -0.00     0.01  -0.00  -0.00
  11   6     0.03   0.06   0.00    -0.09  -0.42   0.03     0.01   0.04  -0.00
  12   6     0.00  -0.01  -0.01     0.01   0.05  -0.00     0.01   0.01  -0.00
  13   9    -0.01   0.01   0.02    -0.01  -0.02   0.00    -0.00   0.00   0.01
  14   6    -0.01  -0.02  -0.01     0.03   0.11  -0.01    -0.01  -0.06  -0.00
  15   6     0.00  -0.02  -0.00     0.02   0.11  -0.01    -0.00  -0.02  -0.00
  16   6     0.00  -0.02   0.04     0.03   0.13  -0.00     0.01   0.03   0.01
  17   6     0.07   0.05  -0.08     0.01  -0.01   0.02    -0.02  -0.19   0.02
  18   6     0.09  -0.01  -0.21     0.01  -0.01  -0.01     0.01  -0.12  -0.02
  19  17     0.01  -0.00  -0.00     0.00  -0.00  -0.00     0.00   0.00  -0.00
  20   1    -0.05  -0.30  -0.25    -0.01  -0.05  -0.04    -0.01  -0.04  -0.04
  21   1    -0.16   0.12   0.05    -0.02  -0.00   0.00    -0.04   0.08   0.03
  22   1    -0.12   0.10   0.03    -0.02   0.02   0.01    -0.02   0.02  -0.01
  23   1    -0.26   0.03   0.14    -0.04  -0.00   0.02    -0.00   0.05   0.00
  24   1     0.00  -0.06  -0.30    -0.00  -0.02  -0.04     0.01  -0.02  -0.04
  25   1    -0.10   0.20  -0.17    -0.02   0.05  -0.04     0.02  -0.06   0.06
  26   1    -0.01  -0.19  -0.03    -0.00  -0.04  -0.01    -0.00   0.06   0.01
  27   1     0.07  -0.01  -0.00    -0.00  -0.04   0.01    -0.02  -0.28   0.11
  28   1     0.03  -0.03   0.00    -0.00  -0.08   0.02    -0.12  -0.62   0.23
  29   1    -0.11   0.02   0.02     0.00   0.02  -0.00    -0.04  -0.00   0.01
  30   1     0.05   0.01  -0.01     0.00  -0.03   0.00     0.03   0.08  -0.02
  31   1    -0.04  -0.10   0.03     0.15   0.74  -0.04    -0.02  -0.07   0.01
  32   1     0.01   0.03  -0.01    -0.03  -0.17   0.01     0.02   0.10  -0.01
  33   1     0.02   0.05  -0.01    -0.06  -0.29   0.02     0.01   0.04  -0.01
  34   1     0.01   0.04   0.01    -0.04  -0.19   0.02    -0.01  -0.04   0.01
  35   1    -0.01  -0.16   0.04     0.01   0.02  -0.00     0.05   0.28  -0.12
  36   1     0.04  -0.13  -0.00     0.00   0.01  -0.01     0.07   0.22  -0.09
                     40                     41                     42
                        a                      a                      a 
 Frequencies --   881.4369               882.2980               892.9919
 Red. masses --     4.3971                 9.3813                 4.2835
 Frc consts  --     0.0000                 0.0000                 0.0000
 IR Inten    --     1.1144                 2.3668                10.2103
 Raman Activ --     0.0000                 0.0000                 0.0000
 Depolar     --     0.0000                 0.0000                 0.0000
 Atom AN      X      Y      Z        X      Y      Z        X      Y      Z
   1   7     0.01  -0.05   0.01    -0.02   0.24   0.10    -0.06  -0.10  -0.23
   2   6    -0.02  -0.00   0.04     0.12  -0.05  -0.18    -0.07   0.12   0.05
   3   6    -0.03   0.07  -0.02     0.04  -0.33  -0.07     0.16   0.13   0.27
   4   6     0.03  -0.03   0.00    -0.11   0.10  -0.01    -0.02   0.01   0.01
   5   6    -0.04  -0.00  -0.08     0.14   0.05   0.30     0.05   0.02   0.04
   6   6     0.00   0.04  -0.07    -0.00  -0.01   0.20     0.04   0.07   0.05
   7   6     0.00  -0.02   0.00    -0.03   0.05  -0.01     0.01   0.00   0.02
   8   6     0.08   0.01  -0.06    -0.30   0.08   0.18    -0.09   0.03   0.05
   9   6    -0.00  -0.04   0.04    -0.02  -0.02  -0.12    -0.01  -0.02  -0.04
  10   6     0.02   0.10  -0.00     0.04   0.03  -0.02     0.01   0.02  -0.01
  11   6    -0.01  -0.01  -0.00     0.02  -0.04   0.00     0.01   0.01  -0.00
  12   6    -0.02  -0.07   0.01     0.01  -0.02  -0.01     0.00  -0.01  -0.00
  13   9     0.01   0.01  -0.01    -0.02   0.01   0.03    -0.00   0.00   0.01
  14   6     0.07   0.33  -0.02     0.01   0.09  -0.02     0.01   0.03  -0.01
  15   6    -0.01  -0.00  -0.00     0.01   0.01  -0.00     0.00  -0.00   0.00
  16   6    -0.07  -0.34   0.01    -0.01  -0.08   0.06    -0.01  -0.05   0.02
  17   6     0.01   0.00   0.07    -0.01  -0.08  -0.22    -0.09  -0.07  -0.11
  18   6    -0.02   0.03   0.09     0.08  -0.13  -0.29    -0.02  -0.07  -0.15
  19  17     0.00  -0.00   0.00     0.00   0.00  -0.00    -0.00   0.01   0.00
  20   1    -0.00  -0.03  -0.05    -0.01   0.06   0.06     0.03   0.16   0.26
  21   1    -0.02   0.07   0.02     0.01  -0.00   0.01     0.15  -0.44  -0.16
  22   1    -0.01  -0.03  -0.04    -0.01   0.09   0.08     0.09  -0.01   0.15
  23   1    -0.02   0.03   0.02     0.05   0.02  -0.05     0.06  -0.25  -0.05
  24   1    -0.01  -0.03  -0.01     0.05   0.06  -0.03     0.02   0.14   0.16
  25   1     0.00   0.02  -0.01     0.03  -0.21   0.16    -0.05   0.21  -0.22
  26   1    -0.01   0.02  -0.01    -0.01   0.08   0.03     0.09  -0.29  -0.03
  27   1    -0.03  -0.04   0.00     0.09   0.07   0.03     0.03  -0.04   0.01
  28   1    -0.00  -0.10   0.03    -0.04   0.15  -0.02    -0.02  -0.09   0.06
  29   1     0.03  -0.06   0.00    -0.16   0.03   0.03    -0.06   0.01   0.01
  30   1    -0.01   0.02  -0.00     0.05  -0.03  -0.01     0.01   0.02  -0.01
  31   1     0.01  -0.00  -0.01    -0.01   0.08   0.02    -0.01  -0.02   0.01
  32   1    -0.12  -0.55   0.04    -0.03  -0.15   0.00    -0.01  -0.05   0.00
  33   1    -0.00   0.02   0.00     0.02  -0.03  -0.01     0.01   0.01  -0.00
  34   1     0.12   0.56  -0.04     0.04   0.14   0.01     0.02   0.08  -0.00
  35   1     0.02   0.03   0.00    -0.02  -0.01  -0.06    -0.04   0.07  -0.04
  36   1    -0.02   0.03   0.01     0.11  -0.03  -0.05     0.01   0.02  -0.06
                     43                     44                     45
                        a                      a                      a 
 Frequencies --   902.1678               919.8058               920.2540
 Red. masses --     3.3974                 6.7912                 3.6060
 Frc consts  --     0.0000                 0.0000                 0.0000
 IR Inten    --     1.4396                40.4198                 1.7100
 Raman Activ --     0.0000                 0.0000                 0.0000
 Depolar     --     0.0000                 0.0000                 0.0000
 Atom AN      X      Y      Z        X      Y      Z        X      Y      Z
   1   7     0.01   0.04  -0.00     0.06   0.36  -0.00    -0.01  -0.09   0.00
   2   6     0.02   0.01  -0.02     0.16  -0.06  -0.22    -0.04   0.02   0.06
   3   6    -0.04  -0.02   0.02    -0.25  -0.18   0.18     0.06   0.05  -0.05
   4   6    -0.01  -0.00   0.00    -0.04  -0.00   0.01     0.01  -0.00  -0.00
   5   6    -0.00  -0.01  -0.00    -0.03  -0.02  -0.14     0.01   0.01   0.03
   6   6     0.01   0.00  -0.03     0.04  -0.08  -0.18    -0.01   0.02   0.04
   7   6    -0.01  -0.02   0.01    -0.01  -0.00   0.00     0.00  -0.00   0.00
   8   6     0.01   0.01  -0.01     0.11  -0.03  -0.07    -0.02   0.01   0.01
   9   6     0.00   0.01   0.01     0.01   0.00   0.04    -0.00   0.01  -0.01
  10   6     0.01  -0.00  -0.00    -0.02  -0.01   0.01    -0.01  -0.05   0.00
  11   6     0.00   0.00  -0.01    -0.00   0.04   0.00     0.02   0.08  -0.01
  12   6     0.00  -0.00  -0.00    -0.01  -0.01   0.01    -0.01  -0.05   0.00
  13   9    -0.00   0.00   0.01     0.01  -0.00  -0.01    -0.00  -0.00   0.00
  14   6    -0.00  -0.00  -0.00    -0.01  -0.04   0.01    -0.03  -0.16   0.01
  15   6    -0.00   0.00  -0.00     0.01   0.09  -0.01     0.08   0.36  -0.03
  16   6    -0.00   0.00   0.01    -0.01  -0.05  -0.02    -0.03  -0.17   0.02
  17   6    -0.03  -0.27   0.12     0.09   0.07   0.17    -0.02  -0.02  -0.04
  18   6     0.05   0.33  -0.11    -0.01  -0.00   0.13     0.00   0.00  -0.03
  19  17     0.00   0.00  -0.00     0.00   0.01   0.00    -0.00  -0.00  -0.00
  20   1    -0.01  -0.03  -0.00    -0.05  -0.11   0.08     0.01   0.02  -0.02
  21   1    -0.01  -0.02  -0.00    -0.04  -0.24  -0.04     0.01   0.06   0.01
  22   1    -0.02   0.04   0.04    -0.11   0.34   0.35     0.03  -0.09  -0.09
  23   1    -0.00  -0.01  -0.00    -0.01  -0.10  -0.05     0.00   0.03   0.01
  24   1     0.00  -0.01  -0.01     0.03  -0.04  -0.09    -0.01   0.01   0.02
  25   1    -0.01  -0.00   0.00    -0.19  -0.06   0.03     0.05   0.01  -0.01
  26   1    -0.01  -0.01   0.01    -0.09  -0.13   0.04     0.02   0.03  -0.01
  27   1    -0.02  -0.10   0.04    -0.04  -0.05  -0.00     0.01   0.01   0.00
  28   1     0.02   0.09  -0.04     0.05  -0.02  -0.04    -0.01   0.00   0.01
  29   1    -0.00  -0.04   0.01     0.06  -0.03  -0.00    -0.02  -0.01   0.01
  30   1    -0.01  -0.01   0.00    -0.01   0.00   0.00    -0.00  -0.02   0.00
  31   1     0.00  -0.00  -0.00     0.00  -0.04  -0.01    -0.01  -0.04   0.00
  32   1    -0.00   0.00   0.00     0.02   0.08  -0.00     0.07   0.33  -0.02
  33   1     0.00   0.00  -0.00    -0.04  -0.16   0.02    -0.14  -0.69   0.05
  34   1    -0.00   0.00   0.00     0.02   0.10  -0.01     0.07   0.34  -0.02
  35   1     0.10   0.51  -0.19     0.03  -0.03   0.06    -0.01   0.01  -0.01
  36   1    -0.12  -0.62   0.22    -0.03   0.10  -0.01     0.01  -0.02   0.00
                     46                     47                     48
                        a                      a                      a 
 Frequencies --   951.6300               967.0947               980.6878
 Red. masses --     3.3299                 2.2555                10.1883
 Frc consts  --     0.0000                 0.0000                 0.0000
 IR Inten    --     3.3345                20.1697                53.1944
 Raman Activ --     0.0000                 0.0000                 0.0000
 Depolar     --     0.0000                 0.0000                 0.0000
 Atom AN      X      Y      Z        X      Y      Z        X      Y      Z
   1   7     0.02  -0.03  -0.02     0.00   0.00   0.00     0.00   0.00   0.00
   2   6    -0.02   0.03   0.02    -0.00  -0.00  -0.00    -0.00  -0.00  -0.00
   3   6     0.01   0.01  -0.00    -0.00   0.00  -0.00    -0.00   0.00   0.00
   4   6     0.00  -0.01   0.01     0.01   0.01   0.00     0.01   0.00   0.00
   5   6     0.06   0.36  -0.13     0.01   0.01  -0.00    -0.04  -0.02  -0.05
   6   6    -0.03  -0.18   0.10    -0.00  -0.04   0.01    -0.01  -0.00   0.00
   7   6     0.00  -0.03   0.01    -0.01   0.02  -0.01     0.04   0.02   0.01
   8   6    -0.01   0.02   0.01    -0.03  -0.22   0.03     0.04  -0.02   0.13
   9   6     0.00   0.01  -0.01    -0.09  -0.19   0.06     0.31  -0.12  -0.18
  10   6    -0.00  -0.00  -0.00     0.02   0.01  -0.01    -0.06   0.03   0.09
  11   6    -0.00   0.00   0.00     0.06  -0.01   0.00    -0.37   0.09   0.17
  12   6    -0.00   0.00   0.00     0.02  -0.01  -0.03    -0.20   0.06   0.23
  13   9     0.00  -0.00  -0.00    -0.02   0.00   0.04     0.15  -0.05  -0.29
  14   6     0.00  -0.00   0.00    -0.07   0.02  -0.02     0.38  -0.07   0.11
  15   6     0.00  -0.00   0.00     0.01   0.00   0.00    -0.08   0.02  -0.00
  16   6    -0.00   0.00   0.00     0.01  -0.02   0.00    -0.08  -0.00  -0.16
  17   6    -0.01   0.03  -0.05     0.01   0.01   0.00    -0.02  -0.02  -0.05
  18   6    -0.02  -0.10   0.03     0.01  -0.00  -0.00    -0.00   0.01   0.03
  19  17    -0.00   0.00  -0.00     0.00  -0.00  -0.00    -0.00  -0.00  -0.00
  20   1     0.00  -0.02  -0.01    -0.00  -0.00  -0.00    -0.00  -0.00  -0.00
  21   1    -0.02   0.01   0.00    -0.00   0.01   0.00    -0.00   0.00   0.00
  22   1     0.00  -0.01  -0.02    -0.00   0.00  -0.00    -0.00   0.00  -0.00
  23   1     0.01   0.02   0.00     0.00   0.00  -0.00     0.00   0.00  -0.00
  24   1    -0.01  -0.01   0.02    -0.00  -0.00   0.00    -0.00  -0.01   0.00
  25   1     0.01   0.01  -0.01    -0.00  -0.00   0.00    -0.01  -0.00   0.00
  26   1     0.03   0.01  -0.01     0.00   0.00  -0.00     0.00   0.00  -0.00
  27   1    -0.10  -0.75   0.26    -0.01  -0.03   0.01    -0.01   0.00  -0.01
  28   1     0.06   0.34  -0.12     0.02   0.06  -0.02    -0.00   0.01  -0.00
  29   1    -0.02  -0.04   0.01     0.13   0.64  -0.14    -0.10   0.11  -0.03
  30   1    -0.00  -0.04   0.01     0.11   0.64  -0.11     0.15   0.05  -0.05
  31   1    -0.01  -0.00   0.00     0.05   0.02  -0.02    -0.24   0.06   0.15
  32   1     0.00  -0.00  -0.00    -0.02   0.01  -0.00     0.10  -0.02  -0.01
  33   1     0.00   0.01   0.00     0.03  -0.02  -0.02    -0.23   0.06   0.16
  34   1     0.00   0.00   0.00     0.00   0.04  -0.01    -0.02   0.01  -0.04
  35   1     0.00   0.00  -0.02    -0.01   0.03   0.00     0.04  -0.00  -0.05
  36   1     0.03   0.09  -0.03     0.00  -0.02   0.01     0.02  -0.00   0.02
                     49                     50                     51
                        a                      a                      a 
 Frequencies --   992.9904              1018.9759              1032.7726
 Red. masses --    10.7817                 8.3948                 7.7053
 Frc consts  --     0.0000                 0.0000                 0.0000
 IR Inten    --     2.0145                 2.9376                21.4092
 Raman Activ --     0.0000                 0.0000                 0.0000
 Depolar     --     0.0000                 0.0000                 0.0000
 Atom AN      X      Y      Z        X      Y      Z        X      Y      Z
   1   7    -0.00  -0.00   0.00     0.06   0.09   0.03     0.19  -0.17  -0.31
   2   6     0.00   0.00  -0.00    -0.12  -0.10  -0.04    -0.13   0.42   0.31
   3   6     0.00  -0.00   0.00    -0.05   0.07   0.04    -0.09  -0.26  -0.16
   4   6    -0.00   0.00   0.00     0.18  -0.01  -0.01     0.03   0.05  -0.09
   5   6     0.02   0.01   0.02    -0.09  -0.12  -0.32     0.00   0.00   0.07
   6   6     0.00  -0.01  -0.02     0.03   0.13   0.36    -0.03   0.02   0.06
   7   6    -0.01  -0.00  -0.00     0.09  -0.00   0.01    -0.00  -0.00  -0.03
   8   6    -0.02  -0.02  -0.05    -0.11   0.03   0.05    -0.01   0.00   0.00
   9   6    -0.11   0.03   0.09    -0.07   0.01  -0.02    -0.00  -0.00  -0.00
  10   6     0.09  -0.03  -0.00    -0.01   0.00  -0.02    -0.00   0.00  -0.00
  11   6    -0.27   0.02  -0.53     0.02  -0.01  -0.04    -0.00   0.00  -0.00
  12   6    -0.00   0.01   0.11     0.03  -0.01  -0.02    -0.00   0.00   0.00
  13   9     0.00  -0.00  -0.05    -0.02   0.01   0.03     0.00  -0.00  -0.00
  14   6     0.41  -0.09  -0.01    -0.01   0.00  -0.02     0.00   0.00  -0.00
  15   6    -0.03   0.00  -0.07     0.02  -0.00   0.01     0.00  -0.00   0.00
  16   6    -0.10   0.06   0.53     0.00   0.01   0.06    -0.00  -0.00   0.01
  17   6     0.01   0.01   0.03    -0.13  -0.12  -0.39     0.03  -0.01  -0.00
  18   6     0.01  -0.01  -0.02     0.04   0.10   0.29     0.02   0.01   0.09
  19  17     0.00   0.00  -0.00     0.00  -0.00   0.00     0.00   0.00   0.00
  20   1     0.00   0.00   0.00    -0.02  -0.10  -0.04    -0.02  -0.26  -0.08
  21   1     0.00   0.00  -0.00    -0.05   0.01   0.02    -0.05  -0.24  -0.09
  22   1     0.00  -0.00  -0.00    -0.06   0.11   0.08    -0.06   0.15   0.16
  23   1    -0.00  -0.00   0.00     0.05   0.00  -0.03    -0.03   0.07   0.07
  24   1     0.00   0.00  -0.00    -0.06  -0.18   0.07    -0.06   0.03   0.04
  25   1     0.00  -0.00  -0.00    -0.05   0.03  -0.02     0.32  -0.08   0.06
  26   1     0.00  -0.00  -0.00     0.04  -0.01  -0.02    -0.24   0.09   0.10
  27   1     0.00  -0.00   0.01     0.09  -0.04  -0.19    -0.02   0.05   0.03
  28   1    -0.00   0.00  -0.01     0.21   0.02   0.18    -0.04   0.01   0.00
  29   1     0.02   0.02  -0.01    -0.07   0.01   0.00     0.00   0.00   0.00
  30   1    -0.10   0.04  -0.00     0.00  -0.00   0.00     0.02   0.01   0.00
  31   1     0.02  -0.03  -0.22     0.02   0.00  -0.02    -0.00  -0.00   0.00
  32   1     0.12  -0.02   0.01    -0.00   0.00  -0.01     0.00  -0.00  -0.00
  33   1     0.05  -0.01  -0.05     0.04  -0.01  -0.02     0.00   0.01  -0.00
  34   1     0.00   0.01   0.16     0.01  -0.00   0.02     0.00   0.01   0.00
  35   1    -0.03   0.01   0.03     0.10  -0.09  -0.21     0.05  -0.01  -0.04
  36   1    -0.01   0.00  -0.01     0.19   0.01   0.15     0.05   0.03   0.03
                     52                     53                     54
                        a                      a                      a 
 Frequencies --  1056.0906              1076.5032              1120.7994
 Red. masses --     5.0482                 7.1492                 3.9339
 Frc consts  --     0.0000                 0.0000                 0.0000
 IR Inten    --     8.9186                 8.7775                 1.0645
 Raman Activ --     0.0000                 0.0000                 0.0000
 Depolar     --     0.0000                 0.0000                 0.0000
 Atom AN      X      Y      Z        X      Y      Z        X      Y      Z
   1   7    -0.19  -0.08  -0.04     0.06  -0.22  -0.02    -0.00   0.00  -0.00
   2   6     0.39   0.09   0.07     0.02   0.49  -0.15     0.01  -0.00   0.01
   3   6    -0.21   0.00  -0.10    -0.10  -0.28   0.33    -0.01   0.00  -0.01
   4   6    -0.11  -0.09   0.01    -0.03   0.06   0.08     0.01  -0.00   0.01
   5   6    -0.04  -0.02  -0.13    -0.04  -0.05  -0.11    -0.00  -0.00  -0.01
   6   6     0.05   0.02   0.07     0.05  -0.03  -0.05     0.00  -0.00  -0.01
   7   6     0.02  -0.01  -0.02     0.02   0.02   0.04    -0.00   0.01   0.02
   8   6    -0.04   0.01   0.01     0.00  -0.00   0.00    -0.00  -0.01  -0.02
   9   6    -0.02   0.00  -0.01    -0.00   0.00  -0.00    -0.02   0.02   0.05
  10   6    -0.01   0.00  -0.01    -0.00  -0.00   0.00     0.09  -0.02   0.08
  11   6     0.00  -0.00  -0.01     0.00  -0.00  -0.00    -0.13   0.02  -0.14
  12   6     0.00  -0.00  -0.00     0.00  -0.00  -0.00     0.06  -0.02  -0.06
  13   9    -0.00   0.00   0.00    -0.00   0.00   0.00    -0.03   0.01   0.04
  14   6     0.00  -0.00  -0.00    -0.00   0.00  -0.00    -0.11   0.04   0.20
  15   6     0.01  -0.00   0.01     0.00  -0.00   0.00    -0.13   0.01  -0.20
  16   6    -0.00   0.00   0.02    -0.00   0.00  -0.00     0.25  -0.06  -0.15
  17   6     0.06  -0.02  -0.05    -0.02  -0.01  -0.03    -0.01  -0.00  -0.02
  18   6     0.03   0.07   0.19    -0.01  -0.01  -0.03     0.02  -0.00  -0.00
  19  17    -0.00   0.00  -0.00    -0.00  -0.00   0.00    -0.00   0.00   0.00
  20   1     0.04   0.26   0.13     0.02  -0.04  -0.11     0.00   0.00   0.01
  21   1     0.13  -0.05  -0.06    -0.01   0.13   0.03     0.00  -0.00  -0.00
  22   1     0.13  -0.19  -0.10     0.01  -0.11  -0.15     0.00   0.00   0.00
  23   1    -0.20  -0.08   0.10     0.18   0.28  -0.08    -0.01  -0.00   0.00
  24   1     0.15   0.35  -0.26     0.02   0.16   0.08     0.00   0.00  -0.01
  25   1    -0.05  -0.07   0.08    -0.37  -0.12   0.09    -0.00  -0.00   0.00
  26   1    -0.31   0.00   0.09     0.20  -0.10  -0.02    -0.01   0.00   0.00
  27   1     0.04  -0.06  -0.07     0.02   0.00  -0.06    -0.01   0.00   0.01
  28   1     0.10  -0.00   0.05     0.12  -0.01   0.02     0.01  -0.00  -0.00
  29   1     0.00   0.00   0.00    -0.01  -0.00  -0.00    -0.11   0.02  -0.04
  30   1     0.03   0.00   0.01    -0.03  -0.00  -0.01    -0.09   0.02  -0.01
  31   1     0.01  -0.00  -0.01     0.00   0.00  -0.00    -0.16   0.03   0.05
  32   1    -0.00  -0.00  -0.01    -0.00   0.00   0.00     0.07   0.04   0.72
  33   1     0.01  -0.00  -0.01     0.00  -0.00  -0.00    -0.04   0.00  -0.06
  34   1     0.01  -0.00   0.01    -0.00  -0.00  -0.00     0.37  -0.07   0.08
  35   1     0.12  -0.07  -0.09    -0.04   0.02   0.02    -0.03   0.01   0.01
  36   1     0.12   0.00   0.10     0.04  -0.00   0.01     0.04  -0.00   0.01
                     55                     56                     57
                        a                      a                      a 
 Frequencies --  1138.4674              1150.0228              1184.3867
 Red. masses --     3.8141                 4.6369                 2.3969
 Frc consts  --     0.0000                 0.0000                 0.0000
 IR Inten    --     9.3761                34.9750                 5.8219
 Raman Activ --     0.0000                 0.0000                 0.0000
 Depolar     --     0.0000                 0.0000                 0.0000
 Atom AN      X      Y      Z        X      Y      Z        X      Y      Z
   1   7     0.01  -0.02   0.03    -0.00   0.02  -0.02     0.00   0.00   0.00
   2   6    -0.02   0.04  -0.07     0.00  -0.04   0.06    -0.00  -0.00  -0.00
   3   6     0.01  -0.02   0.08     0.03   0.01  -0.07     0.01  -0.00   0.00
   4   6    -0.04  -0.02  -0.11    -0.01   0.04   0.10    -0.02   0.01   0.01
   5   6     0.10   0.01   0.08    -0.10   0.00  -0.04     0.01   0.01   0.04
   6   6    -0.05   0.05   0.12     0.06  -0.05  -0.11     0.01   0.01   0.02
   7   6    -0.07  -0.03  -0.11     0.03   0.04   0.11    -0.12   0.01  -0.01
   8   6    -0.03   0.00  -0.03    -0.00   0.01   0.06     0.01  -0.02  -0.08
   9   6     0.05  -0.03  -0.10     0.13  -0.05  -0.13    -0.06   0.02   0.05
  10   6    -0.17   0.04   0.00    -0.18   0.04   0.02     0.12  -0.02   0.05
  11   6    -0.05   0.01   0.04    -0.02   0.01   0.06     0.11  -0.03  -0.13
  12   6    -0.06   0.03   0.20    -0.08   0.04   0.27     0.02  -0.01  -0.13
  13   9     0.05  -0.02  -0.12     0.06  -0.02  -0.15    -0.04   0.01   0.06
  14   6    -0.11   0.03   0.05    -0.14   0.03   0.05    -0.03   0.01   0.01
  15   6    -0.03   0.00  -0.06    -0.04   0.00  -0.07    -0.11   0.03   0.03
  16   6     0.07  -0.01   0.04     0.05  -0.01   0.02     0.06  -0.01   0.00
  17   6     0.08   0.01   0.07    -0.09  -0.01  -0.05    -0.01   0.00  -0.00
  18   6    -0.08   0.03   0.06     0.04  -0.04  -0.10     0.01  -0.01  -0.03
  19  17    -0.00   0.00   0.00     0.00  -0.00  -0.00     0.00  -0.00  -0.00
  20   1     0.00  -0.01  -0.02    -0.00  -0.00   0.02     0.00  -0.00  -0.00
  21   1    -0.01   0.04   0.02     0.00  -0.03  -0.01    -0.00   0.00   0.00
  22   1    -0.00  -0.01  -0.02     0.00   0.01   0.01    -0.00   0.00  -0.00
  23   1     0.04   0.00  -0.03    -0.03   0.00   0.03     0.00  -0.00  -0.00
  24   1    -0.00   0.01   0.03    -0.00  -0.01  -0.02     0.00   0.00   0.00
  25   1    -0.01   0.02  -0.02     0.02  -0.02   0.01     0.02   0.00  -0.01
  26   1     0.02  -0.04   0.00     0.02   0.04  -0.01     0.01  -0.00  -0.00
  27   1     0.24  -0.08  -0.14    -0.26   0.10   0.16    -0.01   0.01   0.02
  28   1    -0.20   0.02  -0.04     0.29  -0.02   0.08     0.16  -0.00   0.07
  29   1     0.18  -0.02   0.05     0.07  -0.02   0.04     0.08  -0.01   0.00
  30   1     0.30  -0.03   0.06     0.05  -0.03  -0.03     0.01   0.00   0.02
  31   1     0.28  -0.07  -0.21     0.39  -0.09  -0.27    -0.04   0.01   0.01
  32   1    -0.03   0.01   0.03    -0.05   0.01  -0.05    -0.06  -0.01  -0.34
  33   1     0.07  -0.02  -0.08     0.08  -0.02  -0.09    -0.54   0.14   0.41
  34   1     0.28  -0.05   0.12     0.23  -0.04   0.10     0.45  -0.08   0.18
  35   1     0.31  -0.12  -0.19    -0.21   0.09   0.12     0.04  -0.02  -0.03
  36   1    -0.32   0.02  -0.10     0.28  -0.02   0.08     0.01  -0.00  -0.01
                     58                     59                     60
                        a                      a                      a 
 Frequencies --  1190.7039              1193.1441              1210.2264
 Red. masses --     3.3309                 3.9948                 4.0367
 Frc consts  --     0.0000                 0.0000                 0.0000
 IR Inten    --     0.9891                 5.1043                 4.4103
 Raman Activ --     0.0000                 0.0000                 0.0000
 Depolar     --     0.0000                 0.0000                 0.0000
 Atom AN      X      Y      Z        X      Y      Z        X      Y      Z
   1   7    -0.01  -0.00  -0.03    -0.03   0.04  -0.19     0.01   0.01  -0.04
   2   6     0.02   0.01   0.04     0.04  -0.08   0.37    -0.02  -0.06   0.08
   3   6    -0.04   0.02  -0.01     0.04   0.09  -0.19     0.12  -0.01  -0.05
   4   6     0.08  -0.03  -0.02     0.09  -0.02   0.10    -0.26   0.07   0.03
   5   6     0.02  -0.06  -0.14     0.02  -0.01  -0.02     0.05  -0.01  -0.00
   6   6    -0.05  -0.01  -0.06    -0.02   0.02   0.02    -0.08  -0.01  -0.06
   7   6     0.31  -0.03   0.03    -0.01   0.00   0.01    -0.29   0.03  -0.03
   8   6    -0.07   0.04   0.14     0.00  -0.00  -0.01     0.05  -0.02  -0.08
   9   6     0.05  -0.01  -0.01    -0.01   0.00   0.00     0.02   0.00   0.02
  10   6    -0.08   0.02   0.01    -0.00   0.00  -0.00     0.14  -0.03   0.04
  11   6     0.07  -0.02  -0.05    -0.00   0.00  -0.00    -0.03   0.01   0.04
  12   6     0.02  -0.00   0.04     0.00  -0.00  -0.01    -0.06   0.02   0.06
  13   9    -0.00  -0.00  -0.02    -0.00   0.00   0.00     0.02  -0.01  -0.04
  14   6    -0.07   0.02   0.02     0.00  -0.00  -0.00    -0.00   0.00   0.00
  15   6    -0.02   0.01   0.00     0.00  -0.00   0.00    -0.04   0.00  -0.05
  16   6     0.01  -0.00   0.01    -0.00   0.00   0.00     0.03  -0.01  -0.04
  17   6     0.01   0.00   0.01     0.01  -0.02  -0.05    -0.02   0.05   0.12
  18   6     0.02   0.04   0.12    -0.03  -0.01  -0.07     0.03  -0.00   0.00
  19  17    -0.00   0.00   0.00    -0.00   0.00   0.00    -0.00   0.00   0.00
  20   1    -0.00   0.01   0.01    -0.02  -0.01   0.09    -0.00  -0.02   0.01
  21   1     0.01  -0.02  -0.01     0.03  -0.19  -0.09     0.00  -0.03  -0.01
  22   1     0.01   0.00   0.02     0.03   0.05   0.11    -0.00   0.03   0.05
  23   1    -0.02   0.02   0.02    -0.13   0.13   0.17    -0.01   0.02   0.03
  24   1    -0.00  -0.02  -0.02    -0.01  -0.05  -0.09     0.00   0.03  -0.00
  25   1    -0.08  -0.03   0.03    -0.46  -0.22   0.23     0.06  -0.03   0.03
  26   1     0.00   0.01  -0.01     0.35   0.25  -0.15     0.20   0.05  -0.07
  27   1     0.15  -0.07  -0.15     0.01  -0.00  -0.01     0.45  -0.19  -0.34
  28   1    -0.57   0.01  -0.23     0.05  -0.00   0.03    -0.00  -0.00  -0.00
  29   1    -0.32   0.05  -0.06     0.01  -0.00   0.00     0.22  -0.04   0.04
  30   1    -0.16   0.02  -0.06     0.02  -0.00   0.01    -0.02  -0.00  -0.00
  31   1     0.10  -0.02  -0.07    -0.01   0.00   0.01     0.04  -0.01  -0.02
  32   1    -0.04  -0.00  -0.17     0.00  -0.00   0.01     0.00   0.00   0.04
  33   1    -0.07   0.02   0.05     0.00   0.00   0.00    -0.04   0.01   0.01
  34   1     0.20  -0.04   0.08    -0.00   0.00   0.00    -0.11   0.02  -0.07
  35   1    -0.22   0.10   0.17     0.03  -0.02  -0.04    -0.07   0.04   0.08
  36   1     0.12   0.00   0.08    -0.25  -0.01  -0.11     0.44  -0.02   0.17
                     61                     62                     63
                        a                      a                      a 
 Frequencies --  1227.8633              1231.9743              1251.9636
 Red. masses --     6.0214                 2.8866                 5.0448
 Frc consts  --     0.0000                 0.0000                 0.0000
 IR Inten    --    21.1473                32.9659                15.7210
 Raman Activ --     0.0000                 0.0000                 0.0000
 Depolar     --     0.0000                 0.0000                 0.0000
 Atom AN      X      Y      Z        X      Y      Z        X      Y      Z
   1   7     0.01   0.00  -0.01     0.25  -0.03   0.10     0.01  -0.01   0.02
   2   6    -0.02  -0.03   0.03    -0.20  -0.02  -0.00     0.00   0.05  -0.02
   3   6     0.08  -0.01  -0.02     0.06   0.08  -0.16    -0.10   0.05  -0.00
   4   6    -0.15   0.04   0.02    -0.06  -0.01   0.05     0.30  -0.09  -0.04
   5   6    -0.08  -0.01  -0.06    -0.02  -0.00  -0.02     0.08  -0.01   0.01
   6   6     0.06  -0.03  -0.07     0.01  -0.01  -0.03    -0.05   0.05   0.11
   7   6     0.21  -0.04  -0.01     0.04  -0.00   0.01    -0.03  -0.03  -0.09
   8   6    -0.08   0.00  -0.04    -0.00   0.00   0.02    -0.13   0.03   0.04
   9   6    -0.06  -0.01  -0.11     0.01  -0.00   0.00     0.01  -0.03  -0.16
  10   6    -0.32   0.06  -0.18    -0.01   0.00   0.01    -0.01   0.01   0.10
  11   6    -0.04   0.01  -0.01     0.01  -0.00  -0.01    -0.10   0.03   0.09
  12   6     0.12  -0.04  -0.24     0.00  -0.00   0.00    -0.09   0.00  -0.23
  13   9    -0.05   0.02   0.12    -0.00   0.00  -0.00    -0.01   0.01   0.08
  14   6     0.10  -0.03  -0.05    -0.01   0.00   0.00     0.06  -0.02  -0.17
  15   6     0.11  -0.01   0.18     0.00  -0.00  -0.00     0.08  -0.01   0.05
  16   6    -0.09   0.03   0.12    -0.00   0.00  -0.00     0.09  -0.01   0.05
  17   6     0.00   0.03   0.08     0.04  -0.01  -0.01    -0.09   0.00  -0.04
  18   6    -0.06   0.02   0.03    -0.01   0.01   0.01     0.11  -0.01   0.01
  19  17     0.00  -0.00   0.00     0.00  -0.00   0.00    -0.00  -0.00   0.00
  20   1    -0.00  -0.01   0.00     0.01  -0.17  -0.12     0.00  -0.00  -0.01
  21   1    -0.01  -0.01  -0.00    -0.12   0.11   0.10    -0.01   0.02   0.01
  22   1    -0.01   0.01   0.01    -0.09   0.09  -0.02    -0.00  -0.01  -0.01
  23   1     0.00   0.00   0.01    -0.04  -0.56  -0.08    -0.02  -0.07  -0.01
  24   1     0.00   0.03   0.01     0.08   0.56   0.20    -0.00  -0.01   0.01
  25   1     0.02  -0.01   0.00    -0.18  -0.09   0.09    -0.14  -0.03   0.03
  26   1     0.10   0.02  -0.03     0.01   0.08  -0.03    -0.16  -0.03   0.05
  27   1    -0.03  -0.00  -0.02     0.01  -0.01  -0.02     0.01   0.00   0.02
  28   1    -0.03  -0.01  -0.04     0.03  -0.01   0.00    -0.12   0.02  -0.01
  29   1     0.20  -0.01   0.06    -0.06   0.01  -0.01     0.36  -0.04   0.13
  30   1     0.48  -0.07   0.12    -0.05   0.01  -0.01     0.08  -0.03  -0.01
  31   1    -0.25   0.06   0.17     0.01   0.00  -0.01     0.21  -0.06  -0.16
  32   1     0.05  -0.00   0.06    -0.00   0.00  -0.01     0.07   0.01   0.27
  33   1     0.13  -0.03  -0.02     0.00  -0.00  -0.00    -0.23   0.07   0.22
  34   1     0.21  -0.03   0.14     0.00  -0.00   0.00    -0.19   0.03  -0.07
  35   1    -0.09   0.06   0.09     0.01  -0.01  -0.00    -0.26   0.11   0.16
  36   1     0.16  -0.00   0.08    -0.04  -0.00  -0.01    -0.04  -0.01  -0.03
                     64                     65                     66
                        a                      a                      a 
 Frequencies --  1257.1480              1276.6346              1298.1779
 Red. masses --     6.3984                 4.8526                 9.3373
 Frc consts  --     0.0000                 0.0000                 0.0000
 IR Inten    --    19.9670                 1.1986                19.4072
 Raman Activ --     0.0000                 0.0000                 0.0000
 Depolar     --     0.0000                 0.0000                 0.0000
 Atom AN      X      Y      Z        X      Y      Z        X      Y      Z
   1   7    -0.00   0.00  -0.02    -0.02  -0.01  -0.00    -0.02  -0.00   0.03
   2   6    -0.00  -0.06   0.03     0.02  -0.00  -0.01     0.02   0.08  -0.02
   3   6     0.09  -0.05   0.01    -0.01  -0.06  -0.01    -0.05   0.02  -0.03
   4   6    -0.30   0.09   0.04    -0.12   0.10   0.15     0.20  -0.02   0.07
   5   6    -0.09   0.00  -0.04    -0.17   0.04   0.04     0.10   0.02   0.09
   6   6     0.06  -0.05  -0.11    -0.03  -0.02  -0.06    -0.19   0.02  -0.02
   7   6     0.15   0.02   0.10     0.20  -0.13  -0.26    -0.35   0.08   0.04
   8   6     0.04   0.01   0.09    -0.14   0.07   0.19     0.30  -0.05   0.02
   9   6     0.11  -0.03  -0.04     0.03  -0.03  -0.12     0.29  -0.05   0.02
  10   6    -0.20   0.05   0.16    -0.01   0.00  -0.01    -0.37   0.08   0.03
  11   6    -0.04   0.01   0.01     0.01  -0.00  -0.01     0.01  -0.00  -0.05
  12   6    -0.03  -0.02  -0.32     0.01  -0.00   0.02     0.05  -0.03  -0.24
  13   9    -0.03   0.01   0.12    -0.00  -0.00  -0.01    -0.03   0.01   0.09
  14   6     0.05  -0.02  -0.16    -0.01   0.00   0.02     0.08  -0.01   0.02
  15   6     0.13  -0.02   0.09    -0.01   0.00  -0.01     0.12  -0.01   0.14
  16   6     0.01   0.00   0.05     0.00  -0.00  -0.01    -0.20   0.04  -0.03
  17   6     0.11  -0.01   0.03     0.17  -0.05  -0.05    -0.08  -0.01  -0.05
  18   6    -0.13   0.02   0.01     0.03   0.04   0.14     0.10  -0.05  -0.09
  19  17     0.00   0.00  -0.00    -0.00   0.00   0.00    -0.00   0.00   0.00
  20   1    -0.00   0.00   0.02     0.00   0.02   0.00    -0.00   0.00  -0.02
  21   1     0.00  -0.01  -0.01     0.02   0.01  -0.00     0.02   0.00   0.00
  22   1     0.00   0.01   0.02     0.00   0.00   0.02     0.01  -0.02  -0.01
  23   1     0.02   0.07   0.01     0.00   0.01  -0.00    -0.03  -0.09  -0.01
  24   1     0.01   0.01  -0.01     0.00  -0.02  -0.01    -0.02  -0.09   0.00
  25   1     0.14   0.03  -0.03     0.21   0.05  -0.05    -0.03  -0.02   0.03
  26   1     0.16   0.03  -0.05     0.03   0.03  -0.01    -0.13  -0.03   0.04
  27   1    -0.04   0.01  -0.01     0.23  -0.10  -0.20     0.20  -0.07  -0.10
  28   1     0.04  -0.01  -0.03     0.35  -0.02   0.11     0.12   0.00   0.06
  29   1    -0.22   0.03  -0.04     0.06   0.01   0.08    -0.16   0.01  -0.07
  30   1    -0.12   0.02  -0.06    -0.20   0.02  -0.10    -0.14   0.02  -0.06
  31   1     0.28  -0.07  -0.22    -0.04   0.01   0.02    -0.01   0.00  -0.01
  32   1     0.06   0.00   0.22    -0.01   0.00  -0.02     0.02  -0.01  -0.01
  33   1    -0.17   0.05   0.19     0.02  -0.00  -0.02     0.16  -0.04  -0.05
  34   1    -0.14   0.03  -0.04     0.05  -0.01   0.02     0.18  -0.03   0.10
  35   1     0.26  -0.11  -0.16    -0.25   0.12   0.21    -0.06   0.02   0.01
  36   1     0.01   0.01   0.03    -0.41   0.03  -0.12    -0.01  -0.01  -0.05
                     67                     68                     69
                        a                      a                      a 
 Frequencies --  1319.2560              1326.5539              1340.3894
 Red. masses --     4.7532                 4.0736                 6.5577
[...]
   3   6    -0.02   0.01   0.00     0.00   0.01   0.01     0.02   0.08   0.15
   4   6     0.10  -0.03  -0.05    -0.00   0.00  -0.00     0.00   0.00   0.01
   5   6    -0.17   0.06   0.09     0.01   0.00   0.01    -0.00  -0.00  -0.00
   6   6     0.16  -0.03  -0.01    -0.00  -0.00  -0.00     0.00   0.00   0.00
   7   6     0.01   0.03   0.09     0.00  -0.00  -0.00     0.00  -0.00  -0.00
   8   6    -0.47   0.01  -0.37    -0.00   0.00  -0.00    -0.00   0.00  -0.00
   9   6     0.47  -0.02   0.37     0.00  -0.00  -0.00    -0.00   0.00   0.00
  10   6    -0.01  -0.01  -0.11    -0.00   0.00   0.00     0.00  -0.00   0.00
  11   6    -0.11   0.03   0.09     0.00  -0.00  -0.00     0.00  -0.00   0.00
  12   6     0.10  -0.02  -0.02    -0.00   0.00   0.00     0.00   0.00  -0.00
  13   9    -0.00   0.00   0.00     0.00   0.00  -0.00    -0.00   0.00   0.00
  14   6    -0.05   0.02   0.06     0.00  -0.00  -0.00    -0.00   0.00   0.00
  15   6     0.14  -0.04  -0.09     0.00  -0.00   0.00     0.00  -0.00   0.00
  16   6    -0.13   0.03   0.02     0.00  -0.00  -0.00    -0.00   0.00   0.00
  17   6     0.13  -0.05  -0.09     0.00  -0.00   0.00    -0.00   0.00   0.00
  18   6    -0.14   0.02  -0.01     0.00  -0.00  -0.00     0.00  -0.00  -0.00
  19  17    -0.00   0.00   0.00    -0.00  -0.00   0.01     0.00  -0.00   0.00
  20   1     0.00   0.00  -0.00     0.04  -0.01  -0.02    -0.01   0.00  -0.00
  21   1     0.00  -0.00  -0.00     0.24  -0.14   0.91     0.01  -0.01   0.06
  22   1    -0.00   0.00  -0.00    -0.02  -0.01  -0.01    -0.00  -0.00   0.00
  23   1     0.00   0.00  -0.00    -0.04   0.02  -0.11     0.17  -0.07   0.52
  24   1    -0.00   0.00  -0.00    -0.01   0.00   0.01     0.52  -0.11  -0.05
  25   1    -0.01  -0.00   0.00     0.00  -0.02  -0.01     0.05  -0.36  -0.24
  26   1     0.00  -0.00  -0.00    -0.01   0.00  -0.01    -0.15   0.08  -0.31
  27   1     0.03  -0.02  -0.03    -0.02  -0.00  -0.02     0.00   0.00   0.00
  28   1    -0.02  -0.01  -0.03    -0.00   0.00   0.00    -0.00  -0.00  -0.00
  29   1     0.13  -0.02  -0.03    -0.00   0.00   0.00     0.00   0.00  -0.00
  30   1    -0.13   0.04   0.03    -0.00   0.00   0.00     0.00  -0.00  -0.00
  31   1     0.01  -0.00  -0.00    -0.00   0.00   0.00    -0.00   0.00  -0.00
  32   1    -0.02   0.00  -0.01    -0.00   0.00   0.00     0.00   0.00   0.00
  33   1    -0.02   0.01   0.03    -0.00  -0.00  -0.00    -0.00  -0.00   0.00
  34   1     0.02  -0.00   0.03    -0.00  -0.00   0.00     0.00  -0.00  -0.00
  35   1    -0.01  -0.00   0.01    -0.00  -0.00  -0.00     0.00  -0.00   0.00
  36   1     0.02   0.00   0.02    -0.00   0.00   0.00    -0.00   0.00   0.00
                     88                     89                     90
                        a                      a                      a 
 Frequencies --  2946.3572              2970.5124              2977.2417
 Red. masses --     1.9001                 1.5076                 1.6137
 Frc consts  --     0.0000                 0.0000                 0.0000
 IR Inten    --     5.2336                16.9509                 2.3896
 Raman Activ --     0.0000                 0.0000                 0.0000
 Depolar     --     0.0000                 0.0000                 0.0000
 Atom AN      X      Y      Z        X      Y      Z        X      Y      Z
   1   7    -0.01   0.01  -0.02     0.01  -0.00   0.02     0.01  -0.00   0.02
   2   6    -0.16   0.03  -0.06    -0.10   0.01   0.16     0.00  -0.01   0.10
   3   6    -0.01  -0.15  -0.17    -0.04   0.07  -0.02     0.10  -0.12   0.15
   4   6     0.00  -0.00  -0.01    -0.00   0.00   0.00     0.01  -0.00   0.00
   5   6     0.00   0.00   0.00    -0.00  -0.00  -0.00    -0.00  -0.00  -0.00
   6   6    -0.00   0.00  -0.00     0.00  -0.00  -0.00     0.00   0.00   0.00
   7   6    -0.00   0.00   0.00     0.00  -0.00  -0.00    -0.00   0.00  -0.00
   8   6     0.00  -0.00   0.00    -0.00  -0.00  -0.00     0.00  -0.00  -0.00
   9   6    -0.00   0.00  -0.00     0.00   0.00   0.00    -0.00   0.00   0.00
  10   6     0.00   0.00   0.00    -0.00  -0.00   0.00     0.00  -0.00  -0.00
  11   6     0.00  -0.00   0.00    -0.00   0.00   0.00    -0.00  -0.00  -0.00
  12   6     0.00  -0.00   0.00     0.00  -0.00  -0.00    -0.00   0.00  -0.00
  13   9     0.00  -0.00   0.00    -0.00   0.00   0.00    -0.00   0.00  -0.00
  14   6    -0.00   0.00  -0.00    -0.00   0.00   0.00    -0.00  -0.00   0.00
  15   6     0.00   0.00   0.00    -0.00   0.00  -0.00    -0.00  -0.00  -0.00
  16   6    -0.00   0.00   0.00    -0.00   0.00   0.00     0.00  -0.00  -0.00
  17   6     0.00  -0.00  -0.00     0.00  -0.00   0.00    -0.00  -0.00  -0.00
  18   6    -0.00   0.00   0.00     0.00  -0.00  -0.00    -0.00  -0.00  -0.00
  19  17    -0.00  -0.00   0.00     0.00   0.00  -0.00     0.00   0.00  -0.00
  20   1    -0.00   0.00  -0.00    -0.02   0.01   0.00    -0.01   0.00   0.00
  21   1     0.02  -0.01   0.06    -0.02   0.01  -0.07    -0.01   0.01  -0.05
  22   1    -0.00  -0.00   0.00     0.00   0.00   0.00    -0.00  -0.00   0.00
  23   1     0.06  -0.03   0.23    -0.24   0.09  -0.59    -0.13   0.05  -0.35
  24   1     0.49  -0.10  -0.03     0.60  -0.13  -0.01     0.12  -0.03   0.01
  25   1    -0.08   0.61   0.41     0.03  -0.24  -0.17    -0.02   0.26   0.21
  26   1     0.11  -0.07   0.21     0.11  -0.04   0.24    -0.33   0.15  -0.74
  27   1    -0.01  -0.00  -0.00     0.00   0.00   0.00     0.01   0.00   0.01
  28   1    -0.00   0.00   0.00    -0.00   0.00   0.00     0.00  -0.00  -0.00
  29   1     0.00  -0.00  -0.00    -0.00   0.00   0.00    -0.00   0.00   0.00
  30   1     0.00   0.00   0.00     0.00  -0.00  -0.00    -0.00  -0.00  -0.00
  31   1    -0.00  -0.00  -0.00     0.00   0.00  -0.00     0.00  -0.00   0.00
  32   1    -0.00  -0.00   0.00     0.00  -0.00  -0.00     0.00  -0.00  -0.00
  33   1    -0.00   0.00  -0.00     0.00  -0.00   0.00     0.00  -0.00   0.00
  34   1     0.00   0.00  -0.00     0.00  -0.00  -0.00    -0.00  -0.00   0.00
  35   1     0.00   0.00   0.00    -0.00  -0.00  -0.00     0.00   0.00   0.00
  36   1     0.01  -0.00  -0.01    -0.00   0.00   0.01    -0.00   0.00   0.00
                     91                     92                     93
                        a                      a                      a 
 Frequencies --  3096.2955              3096.8444              3098.5836
 Red. masses --     1.8513                 1.7910                 1.7942
 Frc consts  --     0.0000                 0.0000                 0.0000
 IR Inten    --   181.6049                12.2849                42.3138
 Raman Activ --     0.0000                 0.0000                 0.0000
 Depolar     --     0.0000                 0.0000                 0.0000
 Atom AN      X      Y      Z        X      Y      Z        X      Y      Z
   1   7    -0.00   0.00  -0.01     0.00  -0.00   0.00    -0.00  -0.00   0.00
   2   6     0.00   0.00  -0.00    -0.00  -0.00  -0.00     0.00  -0.00   0.00
   3   6    -0.00   0.00  -0.00     0.00  -0.00   0.00     0.00   0.00   0.00
   4   6    -0.01   0.00   0.00     0.00  -0.00  -0.00    -0.01   0.00   0.00
   5   6    -0.17  -0.05  -0.20     0.01   0.00   0.02     0.04   0.01   0.04
   6   6    -0.01   0.02   0.05     0.00  -0.00  -0.00     0.01  -0.01  -0.02
   7   6    -0.00   0.00   0.00     0.00   0.00   0.00    -0.00  -0.00  -0.00
   8   6     0.00  -0.00  -0.01    -0.00   0.00   0.00    -0.00   0.00   0.00
   9   6    -0.00   0.00   0.00    -0.00   0.00   0.01    -0.00   0.00   0.02
  10   6     0.00  -0.00  -0.00     0.00  -0.00  -0.00     0.00  -0.00   0.00
  11   6     0.00   0.00   0.00    -0.00   0.00  -0.00    -0.00   0.00  -0.00
  12   6    -0.00   0.00   0.00    -0.00   0.00  -0.00    -0.00  -0.00  -0.00
  13   9     0.00  -0.00  -0.00     0.00  -0.00   0.00    -0.00   0.00   0.00
  14   6    -0.00   0.00   0.00    -0.02   0.01   0.00    -0.00   0.00   0.00
  15   6     0.01  -0.00   0.02     0.15  -0.02   0.20     0.01  -0.00   0.01
  16   6     0.00  -0.00  -0.01     0.04  -0.01  -0.09     0.00  -0.00  -0.01
  17   6    -0.00  -0.00  -0.00     0.00   0.00   0.00    -0.05  -0.01  -0.06
  18   6    -0.02   0.02   0.05     0.01  -0.01  -0.02    -0.08   0.09   0.22
  19  17     0.00   0.00  -0.00    -0.00  -0.00   0.00     0.00   0.00   0.00
  20   1     0.01  -0.00  -0.00    -0.00  -0.00   0.00     0.00  -0.00   0.00
  21   1     0.01  -0.00   0.03    -0.00   0.00  -0.00    -0.00   0.00  -0.00
  22   1     0.00   0.00  -0.00     0.00   0.00  -0.00     0.00   0.00  -0.00
  23   1     0.00  -0.00   0.00    -0.00  -0.00   0.00    -0.00   0.00  -0.01
  24   1    -0.00   0.00   0.00     0.00   0.00  -0.00     0.00  -0.00  -0.00
  25   1     0.00  -0.00   0.00    -0.00   0.00   0.00     0.00  -0.01  -0.01
  26   1     0.01  -0.00   0.01    -0.00   0.00  -0.00    -0.00   0.00  -0.01
  27   1     0.58   0.16   0.68    -0.05  -0.01  -0.06    -0.12  -0.03  -0.14
  28   1     0.07  -0.08  -0.19    -0.01   0.01   0.02    -0.02   0.03   0.06
  29   1    -0.01   0.01   0.03     0.00  -0.00  -0.01     0.00  -0.00  -0.01
  30   1     0.00  -0.00  -0.01     0.01  -0.00  -0.02     0.02  -0.01  -0.06
  31   1     0.00   0.00  -0.00     0.00  -0.00   0.00     0.00  -0.00   0.00
  32   1     0.01  -0.00  -0.00     0.11  -0.02  -0.02     0.01  -0.00  -0.00
  33   1    -0.05   0.01  -0.07    -0.53   0.06  -0.70    -0.02   0.00  -0.03
  34   1    -0.01   0.00   0.03    -0.13   0.05   0.33    -0.01   0.01   0.04
  35   1     0.01   0.00   0.02    -0.01  -0.00  -0.01     0.19   0.05   0.22
  36   1     0.06  -0.07  -0.17    -0.02   0.03   0.06     0.29  -0.33  -0.78
                     94                     95                     96
                        a                      a                      a 
 Frequencies --  3112.6553              3113.1359              3117.5817
 Red. masses --     1.8613                 1.8563                 1.8357
 Frc consts  --     0.0000                 0.0000                 0.0000
 IR Inten    --    28.6815                 9.1051                 4.9425
 Raman Activ --     0.0000                 0.0000                 0.0000
 Depolar     --     0.0000                 0.0000                 0.0000
 Atom AN      X      Y      Z        X      Y      Z        X      Y      Z
   1   7     0.00   0.00  -0.00     0.00   0.00   0.00     0.00   0.00  -0.00
   2   6    -0.00   0.00  -0.00    -0.00   0.00   0.00     0.00  -0.00  -0.00
   3   6    -0.00  -0.00  -0.00    -0.00   0.00   0.00    -0.00  -0.00  -0.00
   4   6     0.00   0.00   0.00     0.00  -0.00  -0.00     0.00  -0.00   0.00
   5   6    -0.01  -0.00  -0.01     0.05   0.01   0.05    -0.00  -0.00  -0.00
   6   6     0.01  -0.02  -0.04    -0.09   0.10   0.23     0.00  -0.00   0.00
   7   6     0.00  -0.00  -0.00    -0.01   0.00   0.00    -0.01   0.00  -0.00
   8   6    -0.00  -0.00  -0.00     0.01  -0.01  -0.03     0.01  -0.02  -0.07
   9   6    -0.01   0.01   0.05     0.00   0.00   0.01    -0.03   0.03   0.14
  10   6     0.01  -0.00  -0.00     0.00  -0.00  -0.00    -0.00   0.00   0.01
  11   6    -0.00   0.00   0.00     0.00  -0.00   0.00     0.00  -0.00   0.00
  12   6     0.00  -0.00  -0.00     0.00   0.00   0.00    -0.00   0.00   0.00
  13   9    -0.00   0.00   0.00    -0.00   0.00  -0.00    -0.00   0.00  -0.00
  14   6     0.02  -0.00  -0.00     0.00  -0.00  -0.00    -0.00   0.00  -0.00
  15   6    -0.06   0.01  -0.08    -0.01   0.00  -0.01     0.01  -0.00   0.01
  16   6     0.09  -0.04  -0.22     0.02  -0.01  -0.04    -0.02   0.01   0.05
  17   6    -0.01  -0.00  -0.02     0.00  -0.00   0.00    -0.13  -0.03  -0.15
  18   6     0.01  -0.01  -0.01    -0.00   0.00   0.01     0.02  -0.03  -0.07
  19  17    -0.00   0.00  -0.00    -0.00  -0.00  -0.00    -0.00  -0.00  -0.00
  20   1    -0.00   0.00  -0.00    -0.00   0.00   0.00    -0.00   0.00  -0.00
  21   1     0.00  -0.00   0.00    -0.00   0.00  -0.00     0.00   0.00   0.00
  22   1    -0.00  -0.00   0.00    -0.00  -0.00   0.00    -0.00  -0.00   0.00
  23   1     0.00  -0.00   0.00    -0.00   0.00  -0.00     0.00  -0.00   0.00
  24   1     0.00  -0.00   0.00     0.00  -0.00  -0.00    -0.00   0.00   0.00
  25   1    -0.00   0.00   0.00     0.00  -0.00  -0.00    -0.00   0.00   0.00
  26   1     0.00  -0.00   0.00    -0.00   0.00  -0.00     0.00  -0.00   0.00
  27   1     0.03   0.01   0.04    -0.14  -0.04  -0.16     0.01   0.00   0.02
  28   1    -0.05   0.06   0.13     0.30  -0.34  -0.79    -0.00   0.00   0.00
  29   1    -0.00   0.00   0.01    -0.03   0.03   0.12    -0.07   0.07   0.26
  30   1     0.05  -0.04  -0.19     0.01  -0.00  -0.02     0.14  -0.11  -0.49
  31   1     0.00  -0.00  -0.00    -0.01   0.00  -0.01    -0.01   0.00  -0.02
  32   1    -0.09   0.02   0.01    -0.02   0.00   0.00     0.01  -0.00  -0.00
  33   1     0.21  -0.02   0.27     0.03  -0.00   0.04    -0.03   0.00  -0.04
  34   1    -0.31   0.12   0.78    -0.05   0.02   0.13     0.06  -0.03  -0.16
  35   1     0.04   0.01   0.05    -0.01  -0.00  -0.01     0.44   0.12   0.52
  36   1    -0.02   0.02   0.05     0.01  -0.01  -0.02    -0.08   0.09   0.21
                     97                     98                     99
                        a                      a                      a 
 Frequencies --  3123.2137              3133.9539              3136.8811
 Red. masses --     1.7995                 1.8273                 1.8504
 Frc consts  --     0.0000                 0.0000                 0.0000
 IR Inten    --     7.2418                58.0335                15.6326
 Raman Activ --     0.0000                 0.0000                 0.0000
 Depolar     --     0.0000                 0.0000                 0.0000
 Atom AN      X      Y      Z        X      Y      Z        X      Y      Z
   1   7     0.00   0.00  -0.00    -0.00  -0.00   0.00     0.00   0.00  -0.00
   2   6    -0.00   0.00  -0.00    -0.00  -0.00  -0.00     0.00  -0.00  -0.00
   3   6    -0.00  -0.00  -0.00    -0.00  -0.00  -0.00    -0.00  -0.00  -0.00
   4   6     0.00  -0.00   0.00     0.00   0.00   0.00     0.00   0.00   0.00
   5   6    -0.00  -0.00  -0.00    -0.00  -0.00  -0.00    -0.00  -0.00  -0.00
   6   6    -0.01   0.01   0.02     0.01  -0.01  -0.02     0.00  -0.00  -0.00
   7   6    -0.01   0.00   0.01    -0.00  -0.00  -0.01     0.00  -0.00  -0.00
   8   6    -0.04   0.04   0.16     0.05  -0.05  -0.17     0.00  -0.00  -0.02
   9   6     0.02  -0.02  -0.11     0.05  -0.04  -0.17     0.00  -0.00  -0.01
  10   6    -0.00  -0.00  -0.00     0.00  -0.00  -0.01     0.00  -0.00  -0.00
  11   6    -0.01   0.00  -0.02     0.03  -0.00   0.04     0.00  -0.00  -0.00
  12   6     0.00  -0.00  -0.00    -0.00   0.00   0.00    -0.01   0.00   0.01
  13   9     0.00  -0.00   0.00     0.00  -0.00  -0.00     0.00  -0.00  -0.00
  14   6     0.00  -0.00   0.00     0.02  -0.01  -0.00    -0.26   0.06   0.04
  15   6    -0.00   0.00  -0.00    -0.00   0.00  -0.00    -0.03   0.00  -0.04
  16   6     0.01  -0.00  -0.02     0.01  -0.00  -0.02     0.01  -0.00  -0.01
  17   6    -0.10  -0.03  -0.12    -0.04  -0.01  -0.05    -0.00  -0.00  -0.00
  18   6     0.01  -0.02  -0.04     0.00  -0.00  -0.01     0.00  -0.00  -0.00
  19  17    -0.00  -0.00  -0.00    -0.00  -0.00   0.00    -0.00  -0.00  -0.00
  20   1    -0.00   0.00  -0.00     0.00  -0.00  -0.00    -0.00   0.00  -0.00
  21   1     0.00   0.00   0.00    -0.00   0.00  -0.00     0.00  -0.00   0.00
  22   1    -0.00  -0.00   0.00     0.00   0.00  -0.00    -0.00  -0.00   0.00
  23   1     0.00  -0.00   0.00     0.00  -0.00   0.00     0.00  -0.00   0.00
  24   1     0.00  -0.00  -0.00     0.00   0.00   0.00    -0.00   0.00   0.00
  25   1    -0.00   0.00   0.00    -0.00   0.00   0.00    -0.00   0.00   0.00
  26   1     0.00  -0.00   0.00     0.00  -0.00   0.00     0.00  -0.00   0.00
  27   1     0.01   0.00   0.01     0.00   0.00   0.00     0.00   0.00   0.00
  28   1     0.03  -0.04  -0.09    -0.03   0.03   0.07    -0.00   0.00   0.01
  29   1     0.16  -0.16  -0.59    -0.17   0.16   0.59    -0.02   0.01   0.05
  30   1    -0.11   0.10   0.40    -0.17   0.14   0.61    -0.01   0.01   0.05
  31   1     0.04  -0.01   0.06    -0.09   0.01  -0.12     0.00   0.00   0.00
  32   1    -0.00   0.00   0.00    -0.08   0.02   0.01     0.92  -0.20  -0.13
  33   1     0.01  -0.00   0.02     0.00  -0.00   0.00     0.09  -0.01   0.11
  34   1    -0.02   0.01   0.06    -0.03   0.01   0.09    -0.02   0.01   0.05
  35   1     0.35   0.09   0.41     0.15   0.04   0.18     0.01   0.00   0.01
  36   1    -0.05   0.05   0.13    -0.01   0.01   0.03    -0.00   0.00   0.01
                    100                    101                    102
                        a                      a                      a 
 Frequencies --  3154.3378              3193.2935              3202.2290
 Red. masses --     1.8162                 2.0462                 1.4806
 Frc consts  --     0.0000                 0.0000                 0.0000
 IR Inten    --    13.9602                63.6015                19.7627
 Raman Activ --     0.0000                 0.0000                 0.0000
 Depolar     --     0.0000                 0.0000                 0.0000
 Atom AN      X      Y      Z        X      Y      Z        X      Y      Z
   1   7     0.00   0.00  -0.00    -0.27  -0.07   0.05     0.05  -0.17   0.06
   2   6     0.00  -0.00   0.00    -0.01   0.00   0.00     0.00  -0.01  -0.00
   3   6    -0.00   0.00   0.00     0.00  -0.00   0.00     0.00  -0.00  -0.00
   4   6     0.00  -0.00  -0.00     0.00   0.00  -0.00    -0.00  -0.00   0.00
   5   6    -0.00  -0.00  -0.00     0.00   0.00   0.00    -0.00  -0.00  -0.00
   6   6    -0.00   0.00   0.00    -0.00   0.00   0.00     0.00   0.00   0.00
   7   6    -0.00   0.00   0.00    -0.00   0.00   0.00     0.00  -0.00  -0.00
   8   6    -0.01   0.01   0.04    -0.00   0.00   0.00    -0.00   0.00   0.00
   9   6    -0.00   0.00   0.02     0.00   0.00   0.00     0.00  -0.00  -0.00
  10   6     0.01  -0.00   0.00    -0.00   0.00   0.00     0.00   0.00  -0.00
  11   6     0.16  -0.02   0.22     0.00  -0.00   0.00     0.00  -0.00   0.00
  12   6    -0.00   0.00   0.01    -0.00  -0.00   0.00    -0.00   0.00  -0.00
  13   9     0.00  -0.00  -0.00     0.00  -0.00  -0.00    -0.00   0.00   0.00
  14   6    -0.00   0.00  -0.00    -0.00   0.00   0.00     0.00  -0.00  -0.00
  15   6     0.00  -0.00   0.00    -0.00   0.00  -0.00     0.00   0.00   0.00
  16   6    -0.00   0.00   0.00     0.00  -0.00  -0.00    -0.00   0.00  -0.00
  17   6     0.00   0.00   0.00    -0.00  -0.00  -0.00    -0.00  -0.00  -0.00
  18   6     0.00   0.00   0.00     0.00  -0.00  -0.00     0.00   0.00   0.00
  19  17     0.00  -0.00  -0.00    -0.00   0.00  -0.00     0.00   0.00  -0.00
  20   1     0.00   0.00   0.00     0.66  -0.21   0.04    -0.65   0.18  -0.03
  21   1    -0.00   0.00   0.00    -0.03  -0.00  -0.02     0.02  -0.02   0.07
  22   1    -0.00  -0.00   0.00     0.37   0.49  -0.23     0.43   0.52  -0.24
  23   1    -0.00   0.00  -0.00    -0.00   0.00  -0.00     0.00   0.00   0.01
  24   1    -0.00   0.00  -0.00     0.02  -0.00  -0.00    -0.01   0.00  -0.00
  25   1     0.00  -0.00  -0.00    -0.00  -0.00   0.00    -0.00   0.00   0.00
  26   1    -0.00   0.00  -0.00    -0.00   0.00  -0.00    -0.00   0.00  -0.00
  27   1     0.00   0.00   0.00    -0.00  -0.00  -0.01     0.00   0.00   0.00
  28   1     0.00  -0.00  -0.01    -0.00  -0.00  -0.00     0.00  -0.00  -0.00
  29   1     0.04  -0.04  -0.15     0.00  -0.00  -0.00     0.00  -0.00  -0.00
  30   1     0.01  -0.01  -0.05     0.00  -0.00  -0.00    -0.00   0.00   0.00
  31   1    -0.56   0.07  -0.76    -0.00  -0.00  -0.00    -0.00   0.00  -0.00
  32   1     0.02  -0.00  -0.00     0.00  -0.00  -0.00    -0.00   0.00   0.00
  33   1    -0.00   0.00  -0.00     0.00  -0.00   0.00    -0.00   0.00  -0.00
  34   1     0.00  -0.00  -0.00    -0.00   0.00   0.00    -0.00   0.00   0.00
  35   1    -0.00  -0.00  -0.01     0.00   0.00   0.00     0.00   0.00   0.00
  36   1    -0.00  -0.00  -0.00    -0.00   0.00   0.00     0.00  -0.00  -0.00
