      -----------------------------------------------------------      
     |                   =====================                   |     
     |                           x T B                           |     
     |                   =====================                   |     
     |                         S. Grimme                         |     
     |          Mulliken Center for Theoretical Chemistry        |     
     |                    University of Bonn                     |     
      -----------------------------------------------------------      

   * xtb version 6.5.1 (fef0646) compiled by 'conda@b96dff2e9fd6' on 2023-01-04

   xtb is free software: you can redistribute it and/or modify it under
   the terms of the GNU Lesser General Public License as published by
   the Free Software Foundation, either version 3 of the License, or
   (at your option) any later version.
   
   xtb is distributed in the hope that it will be useful,
   but WITHOUT ANY WARRANTY; without even the implied warranty of
   MERCHANTABILITY or FITNESS FOR A PARTICULAR PURPOSE.  See the
   GNU Lesser General Public License for more details.
   
   Cite this work as:
   * C. Bannwarth, E. Caldeweyher, S. Ehlert, A. Hansen, P. Pracht,
     J. Seibert, S. Spicher, S. Grimme, WIREs Comput. Mol. Sci., 2020, 11,
     e01493. DOI: 10.1002/wcms.1493
   
   for GFN2-xTB:
   * C. Bannwarth, S. Ehlert and S. Grimme., J. Chem. Theory Comput., 2019,
     15, 1652-1671. DOI: 10.1021/acs.jctc.8b01176
   for GFN1-xTB:
   * S. Grimme, C. Bannwarth, P. Shushkov, J. Chem. Theory Comput., 2017,
     13, 1989-2009. DOI: 10.1021/acs.jctc.7b00118
   for GFN0-xTB:
   * P. Pracht, E. Caldeweyher, S. Ehlert, S. Grimme, ChemRxiv, 2019, preprint.
     DOI: 10.26434/chemrxiv.8326202.v1
   for GFN-FF:
   * S. Spicher and S. Grimme, Angew. Chem. Int. Ed., 2020, 59, 15665-15673.
     DOI: 10.1002/anie.202004239
   
   for ALPB and GBSA implicit solvation:
   * S. Ehlert, M. Stahn, S. Spicher, S. Grimme, J. Chem. Theory Comput.,
     2021, 17, 4250-4261. DOI: 10.1021/acs.jctc.1c00471
   
   for DFT-D4:
   * E. Caldeweyher, C. Bannwarth and S. Grimme, J. Chem. Phys., 2017,
     147, 034112. DOI: 10.1063/1.4993215
   * E. Caldeweyher, S. Ehlert, A. Hansen, H. Neugebauer, S. Spicher,
     C. Bannwarth and S. Grimme, J. Chem. Phys., 2019, 150, 154122.
     DOI: 10.1063/1.5090222
   * E. Caldeweyher, J.-M. Mewes, S. Ehlert and S. Grimme, Phys. Chem. Chem. Phys.
     2020, 22, 8499-8512. DOI: 10.1039/D0CP00502A
   
   for sTDA-xTB:
   * S. Grimme and C. Bannwarth, J. Chem. Phys., 2016, 145, 054103.
     DOI: 10.1063/1.4959605
   
   in the mass-spec context:
   * V. Asgeirsson, C. Bauer and S. Grimme, Chem. Sci., 2017, 8, 4879.
     DOI: 10.1039/c7sc00601b
   * J. Koopman and S. Grimme, ACS Omega 2019, 4, 12, 15120-15133.
     DOI: 10.1021/acsomega.9b02011
   
   for metadynamics refer to:
   * S. Grimme, J. Chem. Theory Comput., 2019, 155, 2847-2862
     DOI: 10.1021/acs.jctc.9b00143
   
   for SPH calculations refer to:
   * S. Spicher and S. Grimme, J. Chem. Theory Comput., 2021, 17, 1701-1714
     DOI: 10.1021/acs.jctc.0c01306
   
   with help from (in alphabetical order)
   P. Atkinson, C. Bannwarth, F. Bohle, G. Brandenburg, E. Caldeweyher
   M. Checinski, S. Dohm, S. Ehlert, S. Ehrlich, I. Gerasimov, C. Hölzer
   A. Katbashev, J. Koopman, C. Lavigne, S. Lehtola, F. März, M. Müller,
   F. Musil, H. Neugebauer, J. Pisarek, C. Plett, P. Pracht, F. Pultar,
   J. Seibert, P. Shushkov, S. Spicher, M. Stahn, M. Steiner, T. Strunk,
   J. Stückrath, T. Rose, and J. Unsleber
   
 * started run on 2023/01/23 at 13:43:44.105     

           -------------------------------------------------
          |                Calculation Setup                |
           -------------------------------------------------

          program call               : xtb init.xyz --opt -c 0 -u 0 -P 16
          hostname                   : gpg-woodward
          coordinate file            : init.xyz
          omp threads                :                    16

   ID    Z sym.   atoms
    1    7 N      1
    2    6 C      2-12
    3   17 Cl     13
    4    1 H      14-25

molecular fragmentation (1/2 indicates fragments):
1111111111112111111111111
# atoms in fragment 1/2:    24     1
 fragment masses (1/2) :      158.22       35.45
CMA distance (Bohr)    :   8.485
constraining FC (au)   :  0.0500

           -------------------------------------------------
          |                 G F N 2 - x T B                 |
           -------------------------------------------------

        Reference                      10.1021/acs.jctc.8b01176
      * Hamiltonian:
        H0-scaling (s, p, d)           1.850000    2.230000    2.230000
        zeta-weighting                 0.500000
      * Dispersion:
        s8                             2.700000
        a1                             0.520000
        a2                             5.000000
        s9                             5.000000
      * Repulsion:
        kExp                           1.500000    1.000000
        rExp                           1.000000
      * Coulomb:
        alpha                          2.000000
        third order                    shell-resolved
        anisotropic                    true
        a3                             3.000000
        a5                             4.000000
        cn-shift                       1.200000
        cn-exp                         4.000000
        max-rad                        5.000000


          ...................................................
          :                      SETUP                      :
          :.................................................:
          :  # basis functions                  70          :
          :  # atomic orbitals                  69          :
          :  # shells                           39          :
          :  # electrons                        68          :
          :  max. iterations                   250          :
          :  Hamiltonian                  GFN2-xTB          :
          :  restarted?                      false          :
          :  GBSA solvation                  false          :
          :  PC potential                    false          :
          :  electronic temp.          300.0000000     K    :
          :  accuracy                    1.0000000          :
          :  -> integral cutoff          0.2500000E+02      :
          :  -> integral neglect         0.1000000E-07      :
          :  -> SCF convergence          0.1000000E-05 Eh   :
          :  -> wf. convergence          0.1000000E-03 e    :
          :  Broyden damping             0.4000000          :
          ...................................................

 iter      E             dE          RMSdq      gap      omega  full diag
   1    -37.5496685 -0.375497E+02  0.475E+00    2.93       0.0  T
   2    -37.6670862 -0.117418E+00  0.277E+00    2.64       1.0  T
   3    -37.6679050 -0.818799E-03  0.134E+00    1.74       1.0  T
   4    -37.6633346  0.457041E-02  0.759E-01    1.58       1.0  T
   5    -37.6747433 -0.114086E-01  0.274E-01    1.49       1.0  T
   6    -37.6748358 -0.924987E-04  0.227E-01    1.50       1.0  T
   7    -37.6753726 -0.536847E-03  0.128E-01    1.52       1.0  T
   8    -37.6755255 -0.152882E-03  0.516E-02    1.52       1.0  T
   9    -37.6755500 -0.245128E-04  0.246E-02    1.52       1.0  T
  10    -37.6755540 -0.398040E-05  0.858E-03    1.51       2.3  T
  11    -37.6755546 -0.643920E-06  0.300E-03    1.51       6.7  T
  12    -37.6755547 -0.629361E-07  0.160E-03    1.51      12.5  T
  13    -37.6755547 -0.209095E-07  0.575E-04    1.51      34.8  T
  14    -37.6755547 -0.174661E-08  0.374E-04    1.51      53.5  T

   *** convergence criteria satisfied after 14 iterations ***

         #    Occupation            Energy/Eh            Energy/eV
      -------------------------------------------------------------
         1        2.0000           -0.9453312             -25.7238
       ...           ...                  ...                  ...
        28        2.0000           -0.4316337             -11.7453
        29        2.0000           -0.4276529             -11.6370
        30        2.0000           -0.4156416             -11.3102
        31        2.0000           -0.3867635             -10.5244
        32        2.0000           -0.3450166              -9.3884
        33        2.0000           -0.3366194              -9.1599
        34        2.0000           -0.3358547              -9.1391 (HOMO)
        35                         -0.2802314              -7.6255 (LUMO)
        36                         -0.2437458              -6.6327
        37                         -0.2049745              -5.5776
        38                         -0.1696559              -4.6166
        39                         -0.0768979              -2.0925
       ...                                ...                  ...
        69                          0.6784155              18.4606
      -------------------------------------------------------------
                  HL-Gap            0.0556232 Eh            1.5136 eV
             Fermi-level           -0.3078719 Eh           -8.3776 eV

 SCC (total)                   0 d,  0 h,  0 min,  0.056 sec
 SCC setup                      ...        0 min,  0.000 sec (  0.368%)
 Dispersion                     ...        0 min,  0.000 sec (  0.819%)
 classical contributions        ...        0 min,  0.000 sec (  0.174%)
 integral evaluation            ...        0 min,  0.002 sec (  3.105%)
 iterations                     ...        0 min,  0.049 sec ( 87.142%)
 molecular gradient             ...        0 min,  0.004 sec (  6.682%)
 printout                       ...        0 min,  0.001 sec (  1.190%)

         :::::::::::::::::::::::::::::::::::::::::::::::::::::
         ::                     SUMMARY                     ::
         :::::::::::::::::::::::::::::::::::::::::::::::::::::
         :: total energy             -37.104222085120 Eh    ::
         :: gradient norm              0.085758104221 Eh/a0 ::
         :: HOMO-LUMO gap              1.513584937209 eV    ::
         ::.................................................::
         :: SCC energy               -37.675554705878 Eh    ::
         :: -> isotropic ES            0.092056073188 Eh    ::
         :: -> anisotropic ES         -0.021424473040 Eh    ::
         :: -> anisotropic XC          0.012354836547 Eh    ::
         :: -> dispersion             -0.023455449946 Eh    ::
         :: repulsion energy           0.571180812467 Eh    ::
         :: add. restraining           0.000000000000 Eh    ::
         :: total charge               0.000000000000 e     ::
         :::::::::::::::::::::::::::::::::::::::::::::::::::::

      ----------------------------------------------------------- 
     |                   =====================                   |
     |                        A N C O P T                        |
     |                   =====================                   |
     |               Approximate Normal Coordinate               |
     |                Rational Function Optimizer                |
      ----------------------------------------------------------- 

          ...................................................
          :                      SETUP                      :
          :.................................................:
          :   optimization level            normal          :
          :   max. optcycles                   200          :
          :   ANC micro-cycles                  20          :
          :   degrees of freedom                69          :
          :.................................................:
          :   RF solver                   davidson          :
          :   write xtbopt.log                true          :
          :   linear?                        false          :
          :   energy convergence         0.5000000E-05 Eh   :
          :   grad. convergence          0.1000000E-02 Eh/α :
          :   maximium RF displ.         1.0000000          :
          :   Hlow (freq-cutoff)         0.1000000E-01      :
          :   Hmax (freq-cutoff)         5.0000000          :
          :   S6 in model hess.         20.0000000          :
          ...................................................

generating ANC from model Hessian ...
Using Lindh-Hessian (1995)
 Shifting diagonal of input Hessian by    9.3916790145870781E-003
 Lowest  eigenvalues of input Hessian
    0.000000    0.000000    0.000000    0.000000    0.000000    0.000000
    0.010000    0.010078    0.011293    0.012586    0.015689    0.016874
    0.017503    0.022758    0.025214    0.028928    0.029230    0.030248
 Highest eigenvalues
    1.765840    1.791677    1.800333    1.905165    2.008029    2.085892


........................................................................
.............................. CYCLE    1 ..............................
........................................................................
   1    -37.6755547 -0.376756E+02  0.230E-04    1.51       0.0  T
   2    -37.6755547 -0.173898E-09  0.186E-04    1.51     107.3  T
   3    -37.6755547 -0.748557E-10  0.138E-04    1.51     144.5  T
     SCC iter.                  ...        0 min,  0.011 sec
     gradient                   ...        0 min,  0.004 sec
 * total energy  :   -37.1042221 Eh     change       -0.1070447E-08 Eh
   gradient norm :     0.0857587 Eh/α   predicted     0.0000000E+00 (-100.00%)
   displ. norm   :     0.3073210 α      lambda       -0.1298814E-01
   maximum displ.:     0.1584283 α      in ANC's #13, #15, #16, ...

........................................................................
.............................. CYCLE    2 ..............................
........................................................................
   1    -37.6966714 -0.376967E+02  0.258E-01    1.80       0.0  T
   2    -37.6969279 -0.256453E-03  0.158E-01    1.86       1.0  T
   3    -37.6969142  0.136637E-04  0.722E-02    1.93       1.0  T
   4    -37.6969373 -0.231172E-04  0.408E-02    1.96       1.0  T
   5    -37.6969654 -0.280591E-04  0.187E-02    1.96       1.1  T
   6    -37.6969676 -0.220033E-05  0.139E-02    1.96       1.4  T
   7    -37.6969689 -0.133050E-05  0.811E-03    1.96       2.5  T
   8    -37.6969695 -0.569503E-06  0.486E-03    1.96       4.1  T
   9    -37.6969697 -0.266338E-06  0.120E-03    1.96      16.7  T
  10    -37.6969698 -0.172789E-07  0.448E-04    1.96      44.7  T
  11    -37.6969698 -0.998355E-09  0.192E-04    1.96     104.1  T
     SCC iter.                  ...        0 min,  0.035 sec
     gradient                   ...        0 min,  0.003 sec
 * total energy  :   -37.1130127 Eh     change       -0.8790621E-02 Eh
   gradient norm :     0.0473206 Eh/α   predicted    -0.7111017E-02 ( -19.11%)
   displ. norm   :     0.5202342 α      lambda       -0.1021213E-01
   maximum displ.:     0.3170118 α      in ANC's #4, #2, #7, ...

........................................................................
.............................. CYCLE    3 ..............................
........................................................................
   1    -37.7156108 -0.377156E+02  0.267E-01    2.09       0.0  T
   2    -37.7158296 -0.218828E-03  0.166E-01    2.14       1.0  T
   3    -37.7157867  0.428974E-04  0.875E-02    2.20       1.0  T
   4    -37.7158746 -0.879518E-04  0.377E-02    2.22       1.0  T
   5    -37.7158917 -0.170491E-04  0.212E-02    2.23       1.0  T
   6    -37.7158939 -0.224568E-05  0.158E-02    2.23       1.3  T
   7    -37.7158957 -0.177825E-05  0.801E-03    2.23       2.5  T
   8    -37.7158962 -0.437240E-06  0.462E-03    2.23       4.3  T
   9    -37.7158964 -0.209483E-06  0.108E-03    2.23      18.4  T
  10    -37.7158964 -0.130736E-07  0.616E-04    2.23      32.4  T
  11    -37.7158964 -0.158531E-08  0.406E-04    2.23      49.2  T
     SCC iter.                  ...        0 min,  0.034 sec
     gradient                   ...        0 min,  0.003 sec
 * total energy  :   -37.1190094 Eh     change       -0.5996688E-02 Eh
   gradient norm :     0.0460529 Eh/α   predicted    -0.6488184E-02 (   8.20%)
   displ. norm   :     0.3403748 α      lambda       -0.4354150E-02
   maximum displ.:     0.2056343 α      in ANC's #4, #2, #13, ...

........................................................................
.............................. CYCLE    4 ..............................
........................................................................
   1    -37.7139150 -0.377139E+02  0.236E-01    2.31       0.0  T
   2    -37.7142213 -0.306319E-03  0.142E-01    2.40       1.0  T
   3    -37.7142257 -0.442035E-05  0.816E-02    2.48       1.0  T
   4    -37.7142651 -0.394167E-04  0.525E-02    2.52       1.0  T
   5    -37.7142950 -0.298689E-04  0.323E-02    2.53       1.0  T
   6    -37.7142996 -0.457507E-05  0.240E-02    2.53       1.0  T
   7    -37.7143063 -0.669319E-05  0.928E-03    2.53       2.2  T
   8    -37.7143071 -0.837502E-06  0.431E-03    2.53       4.6  T
   9    -37.7143073 -0.214846E-06  0.162E-03    2.53      12.4  T
  10    -37.7143073 -0.272559E-07  0.111E-03    2.53      18.0  T
  11    -37.7143073 -0.754947E-08  0.741E-04    2.53      27.0  T
  12    -37.7143074 -0.379347E-08  0.445E-04    2.53      44.9  T
     SCC iter.                  ...        0 min,  0.037 sec
     gradient                   ...        0 min,  0.003 sec
 * total energy  :   -37.1223478 Eh     change       -0.3338409E-02 Eh
   gradient norm :     0.0470511 Eh/α   predicted    -0.2429315E-02 ( -27.23%)
   displ. norm   :     0.3765872 α      lambda       -0.4805951E-02
   maximum displ.:     0.2360010 α      in ANC's #4, #2, #13, ...

........................................................................
.............................. CYCLE    5 ..............................
........................................................................
   1    -37.7085126 -0.377085E+02  0.261E-01    2.54       0.0  T
   2    -37.7088404 -0.327759E-03  0.155E-01    2.64       1.0  T
   3    -37.7088240  0.163090E-04  0.871E-02    2.73       1.0  T
   4    -37.7088997 -0.756679E-04  0.494E-02    2.77       1.0  T
   5    -37.7089247 -0.249408E-04  0.295E-02    2.79       1.0  T
   6    -37.7089282 -0.356462E-05  0.232E-02    2.79       1.0  T
   7    -37.7089341 -0.584060E-05  0.101E-02    2.78       2.0  T
   8    -37.7089351 -0.103372E-05  0.512E-03    2.78       3.9  T
   9    -37.7089354 -0.282020E-06  0.206E-03    2.78       9.7  T
  10    -37.7089354 -0.402037E-07  0.144E-03    2.78      13.9  T
  11    -37.7089354 -0.132478E-07  0.979E-04    2.78      20.4  T
  12    -37.7089354 -0.780445E-08  0.588E-04    2.78      34.0  T
     SCC iter.                  ...        0 min,  0.037 sec
     gradient                   ...        0 min,  0.003 sec
 * total energy  :   -37.1257153 Eh     change       -0.3367533E-02 Eh
   gradient norm :     0.0275115 Eh/α   predicted    -0.2743803E-02 ( -18.52%)
   displ. norm   :     0.2763276 α      lambda       -0.2694495E-02
   maximum displ.:     0.1618369 α      in ANC's #4, #13, #40, ...

........................................................................
.............................. CYCLE    6 ..............................
........................................................................
   1    -37.7092656 -0.377093E+02  0.248E-01    2.84       0.0  T
   2    -37.7096130 -0.347386E-03  0.144E-01    2.96       1.0  T
   3    -37.7096287 -0.156887E-04  0.739E-02    3.07       1.0  T
   4    -37.7096453 -0.166322E-04  0.536E-02    3.11       1.0  T
   5    -37.7096811 -0.357816E-04  0.316E-02    3.12       1.0  T
   6    -37.7096859 -0.479641E-05  0.243E-02    3.13       1.0  T
   7    -37.7096936 -0.767439E-05  0.115E-02    3.12       1.7  T
   8    -37.7096953 -0.174359E-05  0.563E-03    3.12       3.6  T
   9    -37.7096957 -0.376325E-06  0.200E-03    3.12      10.0  T
  10    -37.7096957 -0.415042E-07  0.130E-03    3.12      15.4  T
  11    -37.7096957 -0.949219E-08  0.855E-04    3.12      23.4  T
  12    -37.7096957 -0.431770E-08  0.538E-04    3.12      37.2  T
     SCC iter.                  ...        0 min,  0.032 sec
     gradient                   ...        0 min,  0.003 sec
 * total energy  :   -37.1276376 Eh     change       -0.1922298E-02 Eh
   gradient norm :     0.0213723 Eh/α   predicted    -0.1450132E-02 ( -24.56%)
   displ. norm   :     0.3489437 α      lambda       -0.2484698E-02
   maximum displ.:     0.2350377 α      in ANC's #4, #7, #2, ...

........................................................................
.............................. CYCLE    7 ..............................
........................................................................
   1    -37.7108589 -0.377109E+02  0.217E-01    3.13       0.0  T
   2    -37.7110447 -0.185799E-03  0.125E-01    3.18       1.0  T
   3    -37.7110317  0.129394E-04  0.584E-02    3.19       1.0  T
   4    -37.7110565 -0.247295E-04  0.347E-02    3.19       1.0  T
   5    -37.7110747 -0.182731E-04  0.141E-02    3.19       1.4  T
   6    -37.7110754 -0.671990E-06  0.108E-02    3.19       1.9  T
   7    -37.7110764 -0.972875E-06  0.648E-03    3.19       3.1  T
   8    -37.7110767 -0.321820E-06  0.355E-03    3.19       5.6  T
   9    -37.7110768 -0.139854E-06  0.116E-03    3.19      17.3  T
  10    -37.7110768 -0.144125E-07  0.789E-04    3.19      25.4  T
  11    -37.7110769 -0.427342E-08  0.547E-04    3.19      36.6  T
     SCC iter.                  ...        0 min,  0.029 sec
     gradient                   ...        0 min,  0.002 sec
 * total energy  :   -37.1290683 Eh     change       -0.1430617E-02 Eh
   gradient norm :     0.0162269 Eh/α   predicted    -0.1393630E-02 (  -2.59%)
   displ. norm   :     0.1950150 α      lambda       -0.1762240E-02
   maximum displ.:     0.0936527 α      in ANC's #2, #1, #40, ...

........................................................................
.............................. CYCLE    8 ..............................
........................................................................
   1    -37.7170206 -0.377170E+02  0.174E-01    3.19       0.0  T
   2    -37.7171585 -0.137866E-03  0.998E-02    3.19       1.0  T
   3    -37.7171757 -0.172166E-04  0.481E-02    3.19       1.0  T
   4    -37.7171775 -0.179597E-05  0.321E-02    3.20       1.0  T
   5    -37.7171884 -0.109289E-04  0.237E-02    3.20       1.0  T
   6    -37.7171941 -0.566219E-05  0.134E-02    3.20       1.5  T
   7    -37.7171966 -0.250092E-05  0.642E-03    3.20       3.1  T
   8    -37.7171971 -0.522296E-06  0.308E-03    3.20       6.5  T
   9    -37.7171972 -0.107821E-06  0.165E-03    3.20      12.2  T
  10    -37.7171973 -0.143023E-07  0.126E-03    3.20      15.9  T
  11    -37.7171973 -0.123490E-07  0.793E-04    3.20      25.2  T
  12    -37.7171973 -0.548459E-08  0.311E-04    3.20      64.2  T
     SCC iter.                  ...        0 min,  0.032 sec
     gradient                   ...        0 min,  0.003 sec
 * total energy  :   -37.1297334 Eh     change       -0.6651925E-03 Eh
   gradient norm :     0.0183956 Eh/α   predicted    -0.9146438E-03 (  37.50%)
   displ. norm   :     0.1063432 α      lambda       -0.1082719E-02
   maximum displ.:     0.0431594 α      in ANC's #13, #29, #33, ...

........................................................................
.............................. CYCLE    9 ..............................
........................................................................
   1    -37.7181283 -0.377181E+02  0.940E-02    3.21       0.0  T
   2    -37.7181442 -0.158880E-04  0.584E-02    3.21       1.0  T
   3    -37.7181467 -0.249750E-05  0.261E-02    3.21       1.0  T
   4    -37.7181520 -0.535395E-05  0.196E-02    3.21       1.0  T
   5    -37.7181554 -0.332871E-05  0.144E-02    3.21       1.4  T
   6    -37.7181571 -0.173594E-05  0.973E-03    3.21       2.1  T
   7    -37.7181585 -0.140399E-05  0.408E-03    3.21       4.9  T
   8    -37.7181587 -0.143792E-06  0.219E-03    3.21       9.1  T
   9    -37.7181587 -0.618981E-07  0.109E-03    3.21      18.3  T
  10    -37.7181587 -0.643917E-08  0.810E-04    3.21      24.7  T
  11    -37.7181587 -0.620442E-08  0.428E-04    3.21      46.8  T
     SCC iter.                  ...        0 min,  0.029 sec
     gradient                   ...        0 min,  0.002 sec
 * total energy  :   -37.1303423 Eh     change       -0.6088827E-03 Eh
   gradient norm :     0.0080117 Eh/α   predicted    -0.5474859E-03 ( -10.08%)
   displ. norm   :     0.0655030 α      lambda       -0.1868289E-03
   maximum displ.:     0.0231765 α      in ANC's #4, #6, #10, ...

........................................................................
.............................. CYCLE   10 ..............................
........................................................................
   1    -37.7168562 -0.377169E+02  0.358E-02    3.22       0.0  T
   2    -37.7168571 -0.887304E-06  0.218E-02    3.22       1.0  T
   3    -37.7168565  0.618451E-06  0.781E-03    3.22       2.6  T
   4    -37.7168576 -0.103697E-05  0.395E-03    3.22       5.1  T
   5    -37.7168576 -0.883320E-07  0.284E-03    3.22       7.0  T
   6    -37.7168577 -0.447608E-07  0.189E-03    3.22      10.6  T
   7    -37.7168577 -0.312392E-07  0.871E-04    3.22      23.0  T
   8    -37.7168577 -0.614953E-08  0.416E-04    3.22      48.1  T
     SCC iter.                  ...        0 min,  0.021 sec
     gradient                   ...        0 min,  0.002 sec
 * total energy  :   -37.1304513 Eh     change       -0.1090160E-03 Eh
   gradient norm :     0.0035254 Eh/α   predicted    -0.9381599E-04 ( -13.94%)
   displ. norm   :     0.0687359 α      lambda       -0.9503910E-04
   maximum displ.:     0.0331649 α      in ANC's #7, #10, #5, ...

........................................................................
.............................. CYCLE   11 ..............................
........................................................................
   1    -37.7170085 -0.377170E+02  0.269E-02    3.23       0.0  T
   2    -37.7170094 -0.952947E-06  0.159E-02    3.23       1.3  T
   3    -37.7170094 -0.591185E-08  0.432E-03    3.23       4.6  T
   4    -37.7170096 -0.112212E-06  0.269E-03    3.23       7.4  T
   5    -37.7170096 -0.845877E-07  0.173E-03    3.23      11.5  T
   6    -37.7170097 -0.124384E-07  0.121E-03    3.23      16.6  T
   7    -37.7170097 -0.141981E-07  0.621E-04    3.23      32.2  T
   8    -37.7170097 -0.363298E-08  0.340E-04    3.23      58.8  T
     SCC iter.                  ...        0 min,  0.022 sec
     gradient                   ...        0 min,  0.002 sec
 * total energy  :   -37.1305181 Eh     change       -0.6680672E-04 Eh
   gradient norm :     0.0028363 Eh/α   predicted    -0.4774837E-04 ( -28.53%)
   displ. norm   :     0.0987253 α      lambda       -0.8786382E-04
   maximum displ.:     0.0452600 α      in ANC's #7, #2, #10, ...

........................................................................
.............................. CYCLE   12 ..............................
........................................................................
   1    -37.7168936 -0.377169E+02  0.297E-02    3.24       0.0  T
   2    -37.7168949 -0.130846E-05  0.179E-02    3.23       1.1  T
   3    -37.7168944  0.506340E-06  0.713E-03    3.23       2.8  T
   4    -37.7168952 -0.819321E-06  0.367E-03    3.23       5.4  T
   5    -37.7168953 -0.134403E-06  0.248E-03    3.23       8.1  T
   6    -37.7168954 -0.306554E-07  0.197E-03    3.23      10.1  T
   7    -37.7168954 -0.468410E-07  0.109E-03    3.23      18.4  T
   8    -37.7168954 -0.176031E-07  0.551E-04    3.23      36.3  T
   9    -37.7168954 -0.337581E-08  0.204E-04    3.23      98.1  T
     SCC iter.                  ...        0 min,  0.024 sec
     gradient                   ...        0 min,  0.002 sec
 * total energy  :   -37.1305807 Eh     change       -0.6258414E-04 Eh
   gradient norm :     0.0034074 Eh/α   predicted    -0.4436135E-04 ( -29.12%)
   displ. norm   :     0.1257789 α      lambda       -0.7557551E-04
   maximum displ.:     0.0677012 α      in ANC's #2, #7, #10, ...

........................................................................
.............................. CYCLE   13 ..............................
........................................................................
   1    -37.7167648 -0.377168E+02  0.321E-02    3.23       0.0  T
   2    -37.7167653 -0.560483E-06  0.193E-02    3.23       1.0  T
   3    -37.7167637  0.159608E-05  0.920E-03    3.23       2.2  T
   4    -37.7167657 -0.201184E-05  0.264E-03    3.23       7.6  T
   5    -37.7167658 -0.312231E-07  0.201E-03    3.23      10.0  T
   6    -37.7167658 -0.224000E-07  0.143E-03    3.23      14.0  T
   7    -37.7167658 -0.189964E-07  0.759E-04    3.23      26.3  T
   8    -37.7167658 -0.604300E-08  0.396E-04    3.23      50.5  T
     SCC iter.                  ...        0 min,  0.022 sec
     gradient                   ...        0 min,  0.002 sec
 * total energy  :   -37.1306377 Eh     change       -0.5696953E-04 Eh
   gradient norm :     0.0039422 Eh/α   predicted    -0.3838745E-04 ( -32.62%)
   displ. norm   :     0.1708497 α      lambda       -0.8850598E-04
   maximum displ.:     0.1016896 α      in ANC's #2, #7, #10, ...

........................................................................
.............................. CYCLE   14 ..............................
........................................................................
   1    -37.7165990 -0.377166E+02  0.453E-02    3.23       0.0  T
   2    -37.7165997 -0.606323E-06  0.271E-02    3.23       1.0  T
   3    -37.7165960  0.362683E-05  0.137E-02    3.23       1.5  T
   4    -37.7166005 -0.446762E-05  0.374E-03    3.23       5.3  T
   5    -37.7166005 -0.480478E-07  0.297E-03    3.23       6.7  T
   6    -37.7166006 -0.639415E-07  0.144E-03    3.23      13.9  T
   7    -37.7166006 -0.168974E-07  0.779E-04    3.23      25.7  T
   8    -37.7166006 -0.417498E-08  0.250E-04    3.23      80.1  T
     SCC iter.                  ...        0 min,  0.021 sec
     gradient                   ...        0 min,  0.002 sec
 * total energy  :   -37.1306981 Eh     change       -0.6043340E-04 Eh
   gradient norm :     0.0035262 Eh/α   predicted    -0.4554808E-04 ( -24.63%)
   displ. norm   :     0.1052534 α      lambda       -0.5083656E-04
   maximum displ.:     0.0694399 α      in ANC's #2, #7, #10, ...

........................................................................
.............................. CYCLE   15 ..............................
........................................................................
   1    -37.7169401 -0.377169E+02  0.344E-02    3.23       0.0  T
   2    -37.7169406 -0.424298E-06  0.206E-02    3.23       1.0  T
   3    -37.7169389  0.166361E-05  0.967E-03    3.23       2.1  T
   4    -37.7169410 -0.210580E-05  0.318E-03    3.23       6.3  T
   5    -37.7169410 -0.361780E-07  0.245E-03    3.23       8.2  T
   6    -37.7169411 -0.383682E-07  0.151E-03    3.23      13.2  T
   7    -37.7169411 -0.224681E-07  0.580E-04    3.23      34.5  T
   8    -37.7169411 -0.283630E-08  0.319E-04    3.23      62.6  T
     SCC iter.                  ...        0 min,  0.021 sec
     gradient                   ...        0 min,  0.002 sec
 * total energy  :   -37.1307318 Eh     change       -0.3371334E-04 Eh
   gradient norm :     0.0019868 Eh/α   predicted    -0.2570273E-04 ( -23.76%)
   displ. norm   :     0.0754256 α      lambda       -0.1917256E-04
   maximum displ.:     0.0479273 α      in ANC's #2, #6, #3, ...

........................................................................
.............................. CYCLE   16 ..............................
........................................................................
   1    -37.7174387 -0.377174E+02  0.292E-02    3.23       0.0  T
   2    -37.7174392 -0.529211E-06  0.174E-02    3.23       1.2  T
   3    -37.7174386  0.562758E-06  0.596E-03    3.23       3.4  T
   4    -37.7174394 -0.728080E-06  0.249E-03    3.23       8.0  T
   5    -37.7174394 -0.533953E-07  0.163E-03    3.23      12.3  T
   6    -37.7174394 -0.127818E-07  0.119E-03    3.23      16.8  T
   7    -37.7174394 -0.140300E-07  0.612E-04    3.23      32.7  T
   8    -37.7174395 -0.340050E-08  0.343E-04    3.23      58.3  T
     SCC iter.                  ...        0 min,  0.021 sec
     gradient                   ...        0 min,  0.002 sec
 * total energy  :   -37.1307460 Eh     change       -0.1415213E-04 Eh
   gradient norm :     0.0015716 Eh/α   predicted    -0.9620471E-05 ( -32.02%)
   displ. norm   :     0.0247525 α      lambda       -0.5213388E-05
   maximum displ.:     0.0147401 α      in ANC's #2, #1, #6, ...

........................................................................
.............................. CYCLE   17 ..............................
........................................................................
   1    -37.7172099 -0.377172E+02  0.853E-03    3.23       0.0  T
   2    -37.7172099 -0.140578E-07  0.497E-03    3.23       4.0  T
   3    -37.7172099  0.203970E-07  0.105E-03    3.23      19.0  T
   4    -37.7172099 -0.257342E-07  0.344E-04    3.23      58.1  T
   5    -37.7172099 -0.933312E-09  0.228E-04    3.23      87.8  T
     SCC iter.                  ...        0 min,  0.014 sec
     gradient                   ...        0 min,  0.002 sec
 * total energy  :   -37.1307519 Eh     change       -0.5939819E-05 Eh
   gradient norm :     0.0007730 Eh/α   predicted    -0.2618969E-05 ( -55.91%)
   displ. norm   :     0.0649489 α      lambda       -0.1023949E-04
   maximum displ.:     0.0363700 α      in ANC's #1, #2, #4, ...

........................................................................
.............................. CYCLE   18 ..............................
........................................................................
   1    -37.7171672 -0.377172E+02  0.214E-02    3.23       0.0  T
   2    -37.7171672 -0.491601E-07  0.125E-02    3.23       1.6  T
   3    -37.7171671  0.126993E-06  0.280E-03    3.23       7.1  T
   4    -37.7171673 -0.166984E-06  0.940E-04    3.23      21.3  T
   5    -37.7171673 -0.300874E-08  0.716E-04    3.23      27.9  T
     SCC iter.                  ...        0 min,  0.013 sec
     gradient                   ...        0 min,  0.003 sec
 * total energy  :   -37.1307619 Eh     change       -0.9994585E-05 Eh
   gradient norm :     0.0014308 Eh/α   predicted    -0.5137460E-05 ( -48.60%)
   displ. norm   :     0.1237674 α      lambda       -0.1115098E-04
   maximum displ.:     0.0923960 α      in ANC's #2, #1, #13, ...

........................................................................
.............................. CYCLE   19 ..............................
........................................................................
   1    -37.7167926 -0.377168E+02  0.375E-02    3.23       0.0  T
   2    -37.7167928 -0.226791E-06  0.223E-02    3.23       1.0  T
   3    -37.7167914  0.140865E-05  0.869E-03    3.23       2.3  T
   4    -37.7167931 -0.174203E-05  0.277E-03    3.23       7.2  T
   5    -37.7167932 -0.251481E-07  0.217E-03    3.23       9.2  T
   6    -37.7167932 -0.398141E-07  0.942E-04    3.23      21.2  T
   7    -37.7167932 -0.844598E-08  0.365E-04    3.23      54.9  T
     SCC iter.                  ...        0 min,  0.019 sec
     gradient                   ...        0 min,  0.002 sec
 * total energy  :   -37.1307738 Eh     change       -0.1182247E-04 Eh
   gradient norm :     0.0020934 Eh/α   predicted    -0.5615725E-05 ( -52.50%)
   displ. norm   :     0.1205384 α      lambda       -0.1637907E-04
   maximum displ.:     0.0837253 α      in ANC's #2, #1, #4, ...

........................................................................
.............................. CYCLE   20 ..............................
........................................................................
   1    -37.7167850 -0.377168E+02  0.364E-02    3.23       0.0  T
   2    -37.7167851 -0.180446E-06  0.215E-02    3.23       1.0  T
   3    -37.7167843  0.792501E-06  0.680E-03    3.23       2.9  T
   4    -37.7167854 -0.102210E-05  0.249E-03    3.23       8.0  T
   5    -37.7167854 -0.214578E-07  0.188E-03    3.23      10.7  T
   6    -37.7167854 -0.309829E-07  0.798E-04    3.23      25.1  T
   7    -37.7167854 -0.582919E-08  0.348E-04    3.23      57.5  T
     SCC iter.                  ...        0 min,  0.019 sec
     gradient                   ...        0 min,  0.002 sec
 * total energy  :   -37.1307875 Eh     change       -0.1378491E-04 Eh
   gradient norm :     0.0019541 Eh/α   predicted    -0.8314301E-05 ( -39.69%)
   displ. norm   :     0.3989072 α      lambda       -0.3349708E-04
   maximum displ.:     0.2741029 α      in ANC's #2, #1, #4, ...
 * RMSD in coord.:     0.4730978 α      energy gain  -0.2656546E-01 Eh

generating ANC from model Hessian ...
Using Lindh-Hessian (1995)
 Shifting diagonal of input Hessian by    1.0108909725840901E-002
 Lowest  eigenvalues of input Hessian
    0.010000    0.000000    0.000000    0.000000    0.000000    0.000000
    0.000000    0.010996    0.011814    0.012589    0.015422    0.016495
    0.018709    0.022703    0.024595    0.026653    0.028308    0.030781
 Highest eigenvalues
    1.782286    1.824998    1.892448    1.971599    2.032448    2.123865


........................................................................
.............................. CYCLE   21 ..............................
........................................................................
   1    -37.7164886 -0.377165E+02  0.118E-01    3.23       0.0  T
   2    -37.7164906 -0.202496E-05  0.699E-02    3.23       1.0  T
   3    -37.7164848  0.579829E-05  0.195E-02    3.23       1.0  T
   4    -37.7164928 -0.803113E-05  0.821E-03    3.23       2.4  T
   5    -37.7164931 -0.252517E-06  0.621E-03    3.23       3.2  T
   6    -37.7164934 -0.334355E-06  0.285E-03    3.23       7.0  T
   7    -37.7164935 -0.804859E-07  0.129E-03    3.23      15.5  T
   8    -37.7164935 -0.154138E-07  0.655E-04    3.23      30.6  T
   9    -37.7164935 -0.233219E-08  0.348E-04    3.23      57.6  T
     SCC iter.                  ...        0 min,  0.024 sec
     gradient                   ...        0 min,  0.002 sec
 * total energy  :   -37.1308106 Eh     change       -0.2304747E-04 Eh
   gradient norm :     0.0018869 Eh/α   predicted     0.0000000E+00 (-100.00%)
   displ. norm   :     0.0389375 α      lambda       -0.1836954E-04
   maximum displ.:     0.0192611 α      in ANC's #8, #3, #7, ...

........................................................................
.............................. CYCLE   22 ..............................
........................................................................
   1    -37.7171529 -0.377172E+02  0.160E-02    3.23       0.0  T
   2    -37.7171531 -0.147570E-06  0.937E-03    3.23       2.1  T
   3    -37.7171530  0.103202E-06  0.289E-03    3.23       6.9  T
   4    -37.7171531 -0.153412E-06  0.107E-03    3.23      18.6  T
   5    -37.7171531 -0.812228E-08  0.770E-04    3.23      26.0  T
   6    -37.7171531 -0.348003E-08  0.592E-04    3.23      33.8  T
     SCC iter.                  ...        0 min,  0.016 sec
     gradient                   ...        0 min,  0.003 sec
 * total energy  :   -37.1308299 Eh     change       -0.1928869E-04 Eh
   gradient norm :     0.0006756 Eh/α   predicted    -0.9231523E-05 ( -52.14%)
   displ. norm   :     0.0695497 α      lambda       -0.1503282E-04
   maximum displ.:     0.0478559 α      in ANC's #3, #7, #8, ...

........................................................................
.............................. CYCLE   23 ..............................
........................................................................
   1    -37.7172792 -0.377173E+02  0.311E-02    3.23       0.0  T
   2    -37.7172794 -0.223226E-06  0.184E-02    3.23       1.1  T
   3    -37.7172787  0.728018E-06  0.670E-03    3.23       3.0  T
   4    -37.7172796 -0.977049E-06  0.257E-03    3.23       7.8  T
   5    -37.7172797 -0.278831E-07  0.189E-03    3.23      10.6  T
   6    -37.7172797 -0.277104E-07  0.102E-03    3.23      19.5  T
   7    -37.7172797 -0.963269E-08  0.470E-04    3.23      42.5  T
   8    -37.7172797 -0.166324E-08  0.208E-04    3.23      96.4  T
     SCC iter.                  ...        0 min,  0.021 sec
     gradient                   ...        0 min,  0.003 sec
 * total energy  :   -37.1308415 Eh     change       -0.1163527E-04 Eh
   gradient norm :     0.0007078 Eh/α   predicted    -0.7535477E-05 ( -35.24%)
   displ. norm   :     0.0503991 α      lambda       -0.8651349E-05
   maximum displ.:     0.0228156 α      in ANC's #3, #8, #7, ...

........................................................................
.............................. CYCLE   24 ..............................
........................................................................
   1    -37.7170882 -0.377171E+02  0.208E-02    3.23       0.0  T
   2    -37.7170884 -0.213600E-06  0.125E-02    3.23       1.6  T
   3    -37.7170885 -0.733077E-07  0.318E-03    3.23       6.3  T
   4    -37.7170886 -0.702917E-07  0.241E-03    3.23       8.3  T
   5    -37.7170886 -0.323757E-07  0.171E-03    3.23      11.7  T
   6    -37.7170886 -0.242640E-07  0.696E-04    3.23      28.7  T
   7    -37.7170886 -0.433425E-08  0.297E-04    3.23      67.4  T
     SCC iter.                  ...        0 min,  0.018 sec
     gradient                   ...        0 min,  0.003 sec
 * total energy  :   -37.1308443 Eh     change       -0.2773278E-05 Eh
   gradient norm :     0.0007208 Eh/α   predicted    -0.4335543E-05 (  56.33%)
   displ. norm   :     0.0162284 α      lambda       -0.4256518E-05
   maximum displ.:     0.0109881 α      in ANC's #3, #6, #8, ...

   *** GEOMETRY OPTIMIZATION CONVERGED AFTER 24 ITERATIONS ***

------------------------------------------------------------------------
 total energy gain   :        -0.0266222 Eh      -16.7057 kcal/mol
 total RMSD          :         0.4621577 a0        0.2446 Å
 total power (kW/mol):        -2.9123577 (step)  -98.1078 (real)
------------------------------------------------------------------------

 ANCopt (total)                0 d,  0 h,  0 min,  0.712 sec
 optimizer setup                ...        0 min,  0.000 sec (  0.021%)
 model hessian                  ...        0 min,  0.012 sec (  1.650%)
 ANC generation                 ...        0 min,  0.004 sec (  0.628%)
 coordinate transformation      ...        0 min,  0.001 sec (  0.073%)
 single point calculation       ...        0 min,  0.686 sec ( 96.238%)
 optimization log               ...        0 min,  0.002 sec (  0.341%)
 hessian update                 ...        0 min,  0.001 sec (  0.102%)
 rational function              ...        0 min,  0.004 sec (  0.594%)

================
 final structure:
================
25
 xtb: 6.5.1 (fef0646)
N            1.23669816518104       -0.34190127049753        0.09650196203164
C            2.68589876840521       -0.10718319553566        0.09214159073995
C            3.16012672505736        0.00520636006064       -1.33191391400856
C            3.45388319226113       -1.16673736239446       -2.05540649999442
C            3.83885110005908       -1.10306560361567       -3.36394043888182
C            3.26038178572705        1.22281058065368       -1.95090527050244
C            3.65548396140121        1.32383336670012       -3.29958210206416
C            3.94997198470788        0.13845598741467       -4.02304588471100
C            4.34192874369992        0.24111611555659       -5.37373058807762
C            4.43624516872548        1.46160171370367       -5.98141381073208
C            4.14255053667949        2.63419206324912       -5.26709754690737
C            3.76183199461807        2.56764878241583       -3.95634027105884
Cl          -0.15712861542076        1.89450986643539       -1.19309075974742
H            0.88168353396282       -0.44301590838800        1.04107192610410
H            1.01106619814222       -1.17689645846418       -0.43464833823184
H            0.50611658828907        0.85730025515291       -0.59900856067926
H            3.23152611702646       -0.91368796381618        0.60371673042643
H            2.86743114641964        0.82786009285050        0.62656510667406
H            3.37611107178960       -2.12533935128336       -1.56024895464033
H            4.06287966162778       -2.00630040051974       -3.91359071460749
H            3.02668008845899        2.12689702670177       -1.40887094011682
H            4.56482989362016       -0.66445915562120       -5.92031681567347
H            4.73595608372182        1.53320150354857       -7.01688434186499
H            4.21975163917431        3.58969951173191       -5.76504385050657
H            3.53108446666548        3.46651344396054       -3.40314771296966

 Bond Distances (Angstroems)
 ---------------------------
N1-C2=1.4681         N1-H14=1.0141        N1-H15=1.0150        C2-N1=1.4681         C2-C3=1.5051         C2-H17=1.0999        
C2-H18=1.0922        C3-C2=1.5051         C3-C4=1.4083         C3-C6=1.3696         C4-C3=1.4083         C4-C5=1.3655         
C4-H19=1.0817        C5-C4=1.3655         C5-C8=1.4100         C5-H20=1.0808        C6-C3=1.3696         C6-C7=1.4090         
C6-H21=1.0797        C7-C6=1.4090         C7-C8=1.4196         C7-C12=1.4106        C8-C5=1.4100         C8-C7=1.4196         
C8-C9=1.4101         C9-C8=1.4101         C9-C10=1.3667        C9-H22=1.0810        C10-C9=1.3667        C10-C11=1.4041       
C10-H23=1.0803       C11-C10=1.4041       C11-C12=1.3666       C11-H24=1.0802       C12-C7=1.4106        C12-C11=1.3666       
C12-H25=1.0804       Cl13-H16=1.3670      H14-N1=1.0141        H15-N1=1.0150        H16-Cl13=1.3670      H17-C2=1.0999        
H18-C2=1.0922        H19-C4=1.0817        H20-C5=1.0808        H21-C6=1.0797        H22-C9=1.0810        H23-C10=1.0803       
H24-C11=1.0802       H25-C12=1.0804       
 C  H  Rav=1.0840 sigma=0.0067  Rmin=1.0797  Rmax=1.0999     9
 C  C  Rav=1.4038 sigma=0.0366  Rmin=1.3655  Rmax=1.5051    12
 N  H  Rav=1.0146 sigma=0.0004  Rmin=1.0141  Rmax=1.0150     2
 N  C  Rav=1.4681 sigma=0.0000  Rmin=1.4681  Rmax=1.4681     1
 Cl H  Rav=1.3670 sigma=0.0000  Rmin=1.3670  Rmax=1.3670     1

 selected bond angles (degree)
 --------------------
H14-N1-C2=111.36               H15-N1-C2=110.45               H15-N1-H14=109.12              C3-C2-N1=109.01                
H17-C2-N1=111.78               H17-C2-C3=109.79               H18-C2-N1=107.43               H18-C2-C3=110.28               
H18-C2-H17=108.52              C4-C3-C2=119.32                C6-C3-C2=121.13                C6-C3-C4=119.50                
C5-C4-C3=120.82                H19-C4-C3=119.16               H19-C4-C5=120.02               C8-C5-C4=120.75                
H20-C5-C4=120.45               H20-C5-C8=118.80               C7-C6-C3=121.12                H21-C6-C3=120.11               
H21-C6-C7=118.76               C8-C7-C6=119.09                C12-C7-C6=122.01               C12-C7-C8=118.91               
C7-C8-C5=118.73                C9-C8-C5=122.26                C9-C8-C7=119.01                C10-C9-C8=120.67               
H22-C9-C8=118.73               H22-C9-C10=120.60              C11-C10-C9=120.34              H23-C10-C9=120.30              
H23-C10-C11=119.36             

 selected dihedral angles (degree)
 ---------------------------------
C3-C2-N1-H14=178.80           C3-C2-N1-H15= 57.39           H17-C2-N1-H14= 57.25          H17-C2-N1-H15=295.84          
H18-C2-N1-H14=298.30          H18-C2-N1-H15=176.89          C4-C3-C2-N1=275.93            C4-C3-C2-H17= 38.68           
C4-C3-C2-H18=158.21           C6-C3-C2-N1= 93.35            C6-C3-C2-H17=216.11           C6-C3-C2-H18=335.64           
C5-C4-C3-C2=177.57            C5-C4-C3-C6=  0.10            H19-C4-C3-C2=357.26           H19-C4-C3-C6=179.80           
C8-C5-C4-C3=359.92            C8-C5-C4-H19=180.23           H20-C5-C4-C3=180.00           H20-C5-C4-H19=  0.31          
C7-C6-C3-C2=182.44            C7-C6-C3-C4=359.86            H21-C6-C3-C2=  1.89           H21-C6-C3-C4=179.30           
C8-C7-C6-C3=  0.14            C8-C7-C6-H21=180.69           C12-C7-C6-C3=179.85           C12-C7-C6-H21=  0.40          
C7-C8-C5-C4=  0.08            C7-C8-C5-H20=180.01           C9-C8-C5-C4=180.13            C9-C8-C5-H20=  0.06           
C5-C8-C7-C6=359.89            C5-C8-C7-C12=180.17           C9-C8-C7-C6=179.84            C9-C8-C7-C12=  0.13           
C10-C9-C8-C5=179.86           C10-C9-C8-C7=359.91           H22-C9-C8-C5=359.97           H22-C9-C8-C7=180.02           
C11-C10-C9-C8=359.97          C11-C10-C9-H22=179.86         H23-C10-C9-C8=180.07          H23-C10-C9-H22=359.96         

 CMA Distance (Angstroems)
 ---------------------------
R(CMA):  4.2082
           -------------------------------------------------
          |                Final Singlepoint                |
           -------------------------------------------------

          ...................................................
          :                      SETUP                      :
          :.................................................:
          :  # basis functions                  70          :
          :  # atomic orbitals                  69          :
          :  # shells                           39          :
          :  # electrons                        68          :
          :  max. iterations                   250          :
          :  Hamiltonian                  GFN2-xTB          :
          :  restarted?                      false          :
          :  GBSA solvation                  false          :
          :  PC potential                    false          :
          :  electronic temp.          300.0000000     K    :
          :  accuracy                    1.0000000          :
          :  -> integral cutoff          0.2500000E+02      :
          :  -> integral neglect         0.1000000E-07      :
          :  -> SCF convergence          0.1000000E-05 Eh   :
          :  -> wf. convergence          0.1000000E-03 e    :
          :  Broyden damping             0.4000000          :
          ...................................................

 iter      E             dE          RMSdq      gap      omega  full diag
   1    -37.7170886 -0.377171E+02  0.148E-04    3.23       0.0  T
   2    -37.7170886 -0.114255E-09  0.116E-04    3.23     171.7  T
   3    -37.7170886 -0.194142E-09  0.735E-05    3.23     272.2  T

   *** convergence criteria satisfied after 3 iterations ***

         #    Occupation            Energy/Eh            Energy/eV
      -------------------------------------------------------------
         1        2.0000           -1.0154568             -27.6320
       ...           ...                  ...                  ...
        28        2.0000           -0.4213818             -11.4664
        29        2.0000           -0.4156947             -11.3116
        30        2.0000           -0.4025175             -10.9531
        31        2.0000           -0.3973135             -10.8115
        32        2.0000           -0.3926287             -10.6840
        33        2.0000           -0.3924751             -10.6798
        34        2.0000           -0.3801220             -10.3436 (HOMO)
        35                         -0.2615953              -7.1184 (LUMO)
        36                         -0.2317952              -6.3075
        37                         -0.1901887              -5.1753
        38                         -0.1504576              -4.0942
        39                         -0.0613073              -1.6683
       ...                                ...                  ...
        69                          0.6958555              18.9352
      -------------------------------------------------------------
                  HL-Gap            0.1185267 Eh            3.2253 eV
             Fermi-level           -0.3208587 Eh           -8.7310 eV

 SCC (total)                   0 d,  0 h,  0 min,  0.013 sec
 SCC setup                      ...        0 min,  0.000 sec (  0.691%)
 Dispersion                     ...        0 min,  0.000 sec (  1.865%)
 classical contributions        ...        0 min,  0.000 sec (  0.290%)
 integral evaluation            ...        0 min,  0.001 sec (  7.701%)
 iterations                     ...        0 min,  0.008 sec ( 63.194%)
 molecular gradient             ...        0 min,  0.003 sec ( 21.152%)
 printout                       ...        0 min,  0.000 sec (  3.752%)

         :::::::::::::::::::::::::::::::::::::::::::::::::::::
         ::                     SUMMARY                     ::
         :::::::::::::::::::::::::::::::::::::::::::::::::::::
         :: total energy             -37.130844289214 Eh    ::
         :: gradient norm              0.000720906609 Eh/a0 ::
         :: HOMO-LUMO gap              3.225274928162 eV    ::
         ::.................................................::
         :: SCC energy               -37.717088619582 Eh    ::
         :: -> isotropic ES            0.027058557725 Eh    ::
         :: -> anisotropic ES         -0.002509112538 Eh    ::
         :: -> anisotropic XC          0.018991787305 Eh    ::
         :: -> dispersion             -0.024592229257 Eh    ::
         :: repulsion energy           0.586096211048 Eh    ::
         :: add. restraining           0.000000000000 Eh    ::
         :: total charge               0.000000000000 e     ::
         :::::::::::::::::::::::::::::::::::::::::::::::::::::

           -------------------------------------------------
          |                Property Printout                |
           -------------------------------------------------

    * Orbital Energies and Occupations

         #    Occupation            Energy/Eh            Energy/eV
      -------------------------------------------------------------
         1        2.0000           -1.0154568             -27.6320
       ...           ...                  ...                  ...
        22        2.0000           -0.4732376             -12.8775
        23        2.0000           -0.4677640             -12.7285
        24        2.0000           -0.4647940             -12.6477
        25        2.0000           -0.4529895             -12.3265
        26        2.0000           -0.4422977             -12.0355
        27        2.0000           -0.4271268             -11.6227
        28        2.0000           -0.4213818             -11.4664
        29        2.0000           -0.4156947             -11.3116
        30        2.0000           -0.4025175             -10.9531
        31        2.0000           -0.3973135             -10.8115
        32        2.0000           -0.3926287             -10.6840
        33        2.0000           -0.3924751             -10.6798
        34        2.0000           -0.3801220             -10.3436 (HOMO)
        35                         -0.2615953              -7.1184 (LUMO)
        36                         -0.2317952              -6.3075
        37                         -0.1901887              -5.1753
        38                         -0.1504576              -4.0942
        39                         -0.0613073              -1.6683
        40                         -0.0500614              -1.3622
        41                          0.0330311               0.8988
        42                          0.0684517               1.8627
        43                          0.0687003               1.8694
        44                          0.0743604               2.0235
        45                          0.0745117               2.0276
       ...                                ...                  ...
        69                          0.6958555              18.9352
      -------------------------------------------------------------
                  HL-Gap            0.1185267 Eh            3.2253 eV
             Fermi-level           -0.3208587 Eh           -8.7310 eV

     #   Z          covCN         q      C6AA      α(0)
     1   7 N        2.690    -0.305    27.858     7.839
     2   6 C        3.737     0.005    20.579     6.473
     3   6 C        2.968     0.002    27.985     8.677
     4   6 C        2.920    -0.039    28.964     8.825
     5   6 C        2.917    -0.036    28.891     8.814
     6   6 C        2.923    -0.037    28.915     8.818
     7   6 C        2.987     0.017    27.620     8.621
     8   6 C        2.988     0.013    27.717     8.636
     9   6 C        2.918    -0.035    28.859     8.809
    10   6 C        2.916    -0.029    28.718     8.788
    11   6 C        2.916    -0.028    28.712     8.787
    12   6 C        2.918    -0.032    28.789     8.799
    13  17 Cl       0.838    -0.481   114.995    16.405
    14   1 H        0.860     0.165     1.302     1.787
    15   1 H        0.860     0.167     1.289     1.779
    16   1 H        0.895     0.331     0.625     1.237
    17   1 H        0.923     0.028     2.621     2.532
    18   1 H        0.924     0.053     2.278     2.360
    19   1 H        0.925     0.026     2.648     2.545
    20   1 H        0.926     0.033     2.542     2.493
    21   1 H        0.926     0.049     2.335     2.390
    22   1 H        0.926     0.031     2.569     2.506
    23   1 H        0.926     0.031     2.570     2.507
    24   1 H        0.926     0.032     2.553     2.499
    25   1 H        0.926     0.038     2.481     2.463

 Mol. C6AA /au·bohr⁶  :       8316.704435
 Mol. C8AA /au·bohr⁸  :     216737.017821
 Mol. α(0) /au        :        145.389385


Wiberg/Mayer (AO) data.
largest (>0.10) Wiberg bond orders for each atom

 ---------------------------------------------------------------------------
     #   Z sym  total        # sym  WBO       # sym  WBO       # sym  WBO
 ---------------------------------------------------------------------------
     1   7 N    3.230 --     2 C    0.994    14 H    0.958    15 H    0.958
                            16 H    0.201
     2   6 C    3.973 --     3 C    1.003     1 N    0.994    18 H    0.973
                            17 H    0.969
     3   6 C    3.987 --     6 C    1.528     4 C    1.300     2 C    1.003
     4   6 C    3.992 --     5 C    1.560     3 C    1.300    19 H    0.969
     5   6 C    3.992 --     4 C    1.560     8 C    1.278    20 H    0.968
                             6 C    0.116
     6   6 C    3.990 --     3 C    1.528     7 C    1.283    21 H    0.965
                             5 C    0.116
     7   6 C    3.991 --     6 C    1.283    12 C    1.278     8 C    1.251
     8   6 C    3.991 --     9 C    1.281     5 C    1.278     7 C    1.251
     9   6 C    3.992 --    10 C    1.557     8 C    1.281    22 H    0.968
                            12 C    0.118
    10   6 C    3.991 --     9 C    1.557    11 C    1.320    23 H    0.971
    11   6 C    3.992 --    12 C    1.559    10 C    1.320    24 H    0.971
    12   6 C    3.990 --    11 C    1.559     7 C    1.278    25 H    0.968
                             9 C    0.118
    13  17 Cl   0.771 --    16 H    0.685
    14   1 H    0.972 --     1 N    0.958
    15   1 H    0.972 --     1 N    0.958
    16   1 H    0.890 --    13 Cl   0.685     1 N    0.201
    17   1 H    0.998 --     2 C    0.969
    18   1 H    0.997 --     2 C    0.973
    19   1 H    0.999 --     4 C    0.969
    20   1 H    0.998 --     5 C    0.968
    21   1 H    0.997 --     6 C    0.965
    22   1 H    0.999 --     9 C    0.968
    23   1 H    0.999 --    10 C    0.971
    24   1 H    0.998 --    11 C    0.971
    25   1 H    0.998 --    12 C    0.968
 ---------------------------------------------------------------------------

Topologies differ in total number of bonds
Writing topology from bond orders to xtbtopo.mol

molecular dipole:
                 x           y           z       tot (Debye)
 q only:        1.092      -1.250       0.629
   full:        0.923      -1.299       0.623       4.350
molecular quadrupole (traceless):
                xx          xy          yy          xz          yz          zz
 q only:        3.620       2.945      -5.083      -4.159       3.296       1.464
  q+dip:       -4.244      -0.220       0.603      -4.724       1.468       3.641
   full:       -0.177       0.203      -1.818      -3.024       1.501       1.995

           -------------------------------------------------
          |                Geometry Summary                 |
           -------------------------------------------------

      molecular mass/u    :      193.6730247
   center of mass at/Å    :        2.7713473       0.7960898      -2.6201094
  moments of inertia/u·Å² :        0.4745864E+03   0.1176215E+04   0.1487156E+04
rotational constants/cm⁻¹ :        0.3552068E-01   0.1433210E-01   0.1133548E-01

 * 23 selected distances

     #   Z          #   Z                                           value/Å
     1   7 N        2   6 C                                       1.4680921 (max)
     3   6 C        4   6 C                                       1.4082567
     4   6 C        5   6 C                                       1.3654727
     3   6 C        6   6 C                                       1.3695845
     6   6 C        7   6 C                                       1.4089858
     5   6 C        8   6 C                                       1.4100156
     7   6 C        8   6 C                                       1.4195925
     8   6 C        9   6 C                                       1.4101485
     9   6 C       10   6 C                                       1.3666601
    10   6 C       11   6 C                                       1.4040914
     7   6 C       12   6 C                                       1.4105738
    11   6 C       12   6 C                                       1.3665503
     1   7 N       14   1 H                                       1.0141362 (min)
     1   7 N       15   1 H                                       1.0150111
     2   6 C       17   1 H                                       1.0999402
     2   6 C       18   1 H                                       1.0921853
     4   6 C       19   1 H                                       1.0817336
     5   6 C       20   1 H                                       1.0808041
     6   6 C       21   1 H                                       1.0797177
     9   6 C       22   1 H                                       1.0809756
    10   6 C       23   1 H                                       1.0803484
    11   6 C       24   1 H                                       1.0802339
    12   6 C       25   1 H                                       1.0803816

 * 4 distinct bonds (by element types)

   Z      Z             #   av. dist./Å        max./Å        min./Å
   1 H    6 C           9     1.0840356     1.0999402     1.0797177
   6 C    6 C          11     1.3945393     1.4195925     1.3654727
   1 H    7 N           2     1.0145736     1.0150111     1.0141362
   6 C    7 N           1     1.4680921     1.4680921     1.4680921


optimized geometry written to: xtbopt.xyz


           -------------------------------------------------
          | TOTAL ENERGY              -37.130844289214 Eh   |
          | GRADIENT NORM               0.000720906609 Eh/α |
          | HOMO-LUMO GAP               3.225274928162 eV   |
           -------------------------------------------------

------------------------------------------------------------------------
 * finished run on 2023/01/23 at 13:43:44.913     
------------------------------------------------------------------------
 total:
 * wall-time:     0 d,  0 h,  0 min,  0.808 sec
 *  cpu-time:     0 d,  0 h,  1 min, 16.167 sec
 * ratio c/w:    94.235 speedup
 SCF:
 * wall-time:     0 d,  0 h,  0 min,  0.056 sec
 *  cpu-time:     0 d,  0 h,  0 min,  7.917 sec
 * ratio c/w:   140.389 speedup
 ANC optimizer:
 * wall-time:     0 d,  0 h,  0 min,  0.726 sec
 *  cpu-time:     0 d,  0 h,  1 min,  4.902 sec
 * ratio c/w:    89.369 speedup

