25
 energy: -37.130844289214 gnorm: 0.000720906609 xtb: 6.5.1 (fef0646)
N            1.23669816518104       -0.34190127049753        0.09650196203164
C            2.68589876840521       -0.10718319553566        0.09214159073995
C            3.16012672505736        0.00520636006064       -1.33191391400856
C            3.45388319226113       -1.16673736239446       -2.05540649999442
C            3.83885110005908       -1.10306560361567       -3.36394043888182
C            3.26038178572705        1.22281058065368       -1.95090527050244
C            3.65548396140121        1.32383336670012       -3.29958210206416
C            3.94997198470788        0.13845598741467       -4.02304588471100
C            4.34192874369992        0.24111611555659       -5.37373058807762
C            4.43624516872548        1.46160171370367       -5.98141381073208
C            4.14255053667949        2.63419206324912       -5.26709754690737
C            3.76183199461807        2.56764878241583       -3.95634027105884
Cl          -0.15712861542076        1.89450986643539       -1.19309075974742
H            0.88168353396282       -0.44301590838800        1.04107192610410
H            1.01106619814222       -1.17689645846418       -0.43464833823184
H            0.50611658828907        0.85730025515291       -0.59900856067926
H            3.23152611702646       -0.91368796381618        0.60371673042643
H            2.86743114641964        0.82786009285050        0.62656510667406
H            3.37611107178960       -2.12533935128336       -1.56024895464033
H            4.06287966162778       -2.00630040051974       -3.91359071460749
H            3.02668008845899        2.12689702670177       -1.40887094011682
H            4.56482989362016       -0.66445915562120       -5.92031681567347
H            4.73595608372182        1.53320150354857       -7.01688434186499
H            4.21975163917431        3.58969951173191       -5.76504385050657
H            3.53108446666548        3.46651344396054       -3.40314771296966
