47
 energy: -77.663776460999 gnorm: 0.000853671288 xtb: 6.5.1 (fef0646)
N            5.35051780813621       -0.34543941508886        3.84375573577323
C            4.19641560989343       -0.21727353107412        2.92573772455184
C            3.93948956052557        1.24153590112801        2.57054023400480
C            5.01439265009338        1.85559724303357        1.73317796775251
C            5.11112306222822        3.15555505187642        1.32571512369074
C            6.23140837046730        3.40833253265057        0.51657592244559
C            7.01164901437777        2.29945173048547        0.29813693530707
C            8.20553285529285        2.17299698214740       -0.46177579566384
C            8.96412571242428        1.04363755261899       -0.66451141506820
C           10.08752466099124        1.24663219154814       -1.47478370546648
C           11.03790925243510        0.15608382319297       -1.81834048820004
C           10.19379850154928        2.56536657970878       -1.90317287335058
C           11.18123009308876        3.15465024370192       -2.73002062297841
C           11.28027544990868        4.47726768101636       -3.14757428958847
C           10.39638839692432        5.50742192652654       -2.81758873763443
N            9.68994481521965        6.38045456092622       -2.56253716506527
C           12.41229294846504        4.72422747950056       -3.98706237512077
C           12.64215155775966        6.00459491836672       -4.50125242669206
N           12.76774505201909        7.07763691318866       -4.89818312703420
C           13.18527757667790        3.59627607621548       -4.21775423393587
C           14.37519374009904        3.48047688029336       -4.98701359760175
C           15.11156796068309        2.34392439262643       -5.28084475508652
C           14.78461159673554        0.96006378176509       -4.84114843201009
C           16.24032921894057        2.64439861277567       -6.07283241896996
C           16.36102041621721        3.96392235577521       -6.37005521549747
S           15.09596894516278        4.91063824349497       -5.69913117374696
S           12.50083163934437        2.23105608244346       -3.39111577173031
S            8.88166523233228        3.55149900239641       -1.28852801648959
S            6.33851532976357        0.92303924889414        1.09820688048980
H            5.52150529811669       -1.33044519445890        4.07147821444358
H            5.18372381941753        0.17504862142132        4.71172103350113
H            6.18919111206378        0.03433611055388        3.38536055759221
H            3.30950983868987       -0.63053399212636        3.40419346413794
H            4.40681215339349       -0.77901882803669        2.01576060796989
H            3.80684522603816        1.84360288799973        3.47188188730976
H            3.00034467999530        1.30329731950251        2.01608552484840
H            4.40081647715490        3.91727993660541        1.59148531723635
H            6.47456663782988        4.36871247173056        0.09487127296785
H            8.71423313538854        0.08709785498995       -0.24075410475858
H           10.72417861943308       -0.76962060482278       -1.34670394309930
H           12.04382731933523        0.40223032705989       -1.48160190549222
H           11.07797844541044        0.00694240941805       -2.89641579799147
H           13.78364849339327        0.67726369716906       -5.16387542369868
H           14.82307718745092        0.88159395209632       -3.75541798098048
H           15.50012857742609        0.26353203955483       -5.26650451931177
H           16.93772891749596        1.89868240074462       -6.40745586894167
H           17.11953703424279        4.45235354844616       -6.94798822282465
