 Entering Gaussian System
 *********************************************
 Gaussian 98:
 frequency output generated by the xtb code
 *********************************************
                         Standard orientation:
 --------------------------------------------------------------------
  Center     Atomic     Atomic              Coordinates (Angstroms)
  Number     Number      Type              X           Y           Z
 --------------------------------------------------------------------
    1          7             0       -1.921845   -1.069800    0.246349
    2          6             0       -2.058229    0.353620   -0.177893
    3          6             0       -0.901423    1.248705    0.288991
    4          6             0        0.418014    1.084787   -0.491633
    5          6             0        1.222749   -0.127777   -0.112804
    6          8             0        2.427002    0.090988    0.440751
    7          8             0        0.782503   -1.233815   -0.302851
    8          1             0       -2.579320   -1.697277   -0.239838
    9          1             0       -2.058722   -1.183317    1.260839
   10          1             0       -0.954607   -1.363055    0.025086
   11          1             0       -3.018686    0.733786    0.198499
   12          1             0       -2.133583    0.397919   -1.272673
   13          1             0       -0.710870    1.070106    1.354221
   14          1             0       -1.220627    2.298807    0.225560
   15          1             0        1.064939    1.957054   -0.330857
   16          1             0        0.221200    1.052476   -1.568453
   17          1             0        2.867358   -0.757494    0.614201
 --------------------------------------------------------------------
     1 basis functions        1 primitive gaussians
     1 alpha electrons        1 beta electrons

 Harmonic frequencies (cm**-1), IR intensities (km*mol⁻¹),
 Raman scattering activities (A**4/amu), Raman depolarization ratios,
 reduced masses (AMU), force constants (mDyne/A) and normal coordinates:
                      1                      2                      3
                        a                      a                      a 
 Frequencies --    73.5823               128.3955               192.5634
 Red. masses --    13.3676                 8.7028                11.5898
 Frc consts  --     0.0000                 0.0000                 0.0000
 IR Inten    --    17.0414                 1.6127                78.7374
 Raman Activ --     0.0000                 0.0000                 0.0000
 Depolar     --     0.0000                 0.0000                 0.0000
 Atom AN      X      Y      Z        X      Y      Z        X      Y      Z
   1   7     0.13   0.05   0.33     0.10   0.04  -0.29     0.59  -0.09  -0.12
   2   6     0.05  -0.05   0.02    -0.11   0.20   0.34     0.09  -0.08   0.08
   3   6    -0.02   0.12  -0.13     0.13   0.02   0.06    -0.03   0.18  -0.09
   4   6     0.01   0.00  -0.04    -0.12  -0.22  -0.32     0.02   0.12  -0.00
   5   6    -0.05  -0.04  -0.05    -0.01  -0.06  -0.02    -0.17   0.03   0.04
   6   8    -0.26  -0.07   0.43    -0.17   0.17   0.21    -0.15  -0.24  -0.04
   7   8     0.14  -0.02  -0.63     0.19  -0.16   0.03    -0.44   0.09   0.17
   8   1    -0.05  -0.00   0.22     0.01   0.05  -0.11     0.16  -0.05   0.00
   9   1     0.16   0.09   0.11     0.08  -0.11  -0.08     0.25  -0.07  -0.03
  10   1    -0.01  -0.03  -0.03     0.03   0.05  -0.15     0.18   0.07  -0.13
  11   1     0.00  -0.01  -0.02     0.02   0.02   0.27     0.02  -0.09   0.09
  12   1     0.02  -0.08   0.00    -0.18   0.18   0.11    -0.04   0.00   0.03
  13   1    -0.02   0.11  -0.02     0.12  -0.01   0.00    -0.01   0.13  -0.01
  14   1    -0.02   0.02  -0.12     0.07   0.02   0.05    -0.04   0.04  -0.10
  15   1     0.01  -0.01  -0.00    -0.02  -0.04  -0.24     0.02   0.02   0.02
  16   1     0.01  -0.00  -0.01    -0.13  -0.19  -0.07     0.03   0.05  -0.01
  17   1    -0.06  -0.02   0.10    -0.03   0.06   0.13    -0.09  -0.08   0.00
                      4                      5                      6
                        a                      a                      a 
 Frequencies --   232.5153               310.3381               324.0366
 Red. masses --    10.4681                 9.7048                 2.2569
 Frc consts  --     0.0000                 0.0000                 0.0000
 IR Inten    --     6.0813                14.6737                 0.3675
 Raman Activ --     0.0000                 0.0000                 0.0000
 Depolar     --     0.0000                 0.0000                 0.0000
 Atom AN      X      Y      Z        X      Y      Z        X      Y      Z
   1   7     0.16   0.19  -0.09     0.28   0.23   0.05     0.04  -0.04   0.09
   2   6    -0.27   0.13  -0.04     0.24   0.09  -0.26    -0.03   0.00   0.12
   3   6    -0.34   0.21  -0.08     0.03  -0.03   0.31    -0.05   0.15  -0.07
   4   6    -0.14  -0.17   0.33    -0.18  -0.11   0.05    -0.02  -0.00  -0.01
   5   6     0.03  -0.15   0.17    -0.19  -0.13  -0.07     0.01   0.00  -0.01
   6   8     0.18  -0.02  -0.18    -0.31   0.20  -0.11    -0.01  -0.10   0.06
   7   8     0.32  -0.25  -0.03     0.03  -0.27   0.02     0.06  -0.00  -0.15
   8   1     0.03   0.01   0.05     0.15   0.00  -0.02     0.39  -0.09  -0.38
   9   1     0.15   0.06  -0.01    -0.04   0.12   0.00    -0.52  -0.13  -0.06
  10   1     0.04   0.08  -0.10     0.11   0.06   0.13     0.16   0.16   0.47
  11   1    -0.08  -0.01   0.03    -0.01   0.01  -0.25    -0.01  -0.01   0.05
  12   1    -0.11   0.05  -0.01     0.25  -0.01  -0.09    -0.03   0.00   0.04
  13   1    -0.19   0.18   0.01     0.01  -0.15   0.07    -0.02   0.14  -0.01
  14   1    -0.06   0.06  -0.17     0.05   0.01   0.22    -0.03   0.03  -0.11
  15   1    -0.03  -0.06   0.11     0.00  -0.06  -0.03    -0.00   0.00  -0.02
  16   1     0.02  -0.05   0.08    -0.13  -0.02   0.03    -0.00  -0.03  -0.00
  17   1     0.12   0.01  -0.15    -0.00   0.09  -0.01    -0.00  -0.04  -0.04
                      7                      8                      9
                        a                      a                      a 
 Frequencies --   391.4479               453.2307               550.5296
 Red. masses --     9.4540                 6.7500                11.2047
 Frc consts  --     0.0000                 0.0000                 0.0000
 IR Inten    --     3.2797                17.2758                74.2082
 Raman Activ --     0.0000                 0.0000                 0.0000
 Depolar     --     0.0000                 0.0000                 0.0000
 Atom AN      X      Y      Z        X      Y      Z        X      Y      Z
   1   7     0.18   0.23   0.09     0.11   0.16   0.08    -0.03  -0.04   0.00
   2   6    -0.27   0.05  -0.17    -0.32   0.05  -0.01     0.02  -0.01   0.02
   3   6    -0.14  -0.26   0.06     0.03  -0.31  -0.19    -0.13   0.16   0.08
   4   6    -0.18  -0.06  -0.16     0.25   0.10   0.04    -0.16   0.28  -0.13
   5   6     0.16   0.17   0.05     0.02  -0.10  -0.22    -0.01   0.14  -0.35
   6   8     0.25  -0.31   0.14    -0.16   0.14   0.02    -0.08  -0.34  -0.01
   7   8    -0.01   0.27  -0.03    -0.01  -0.15   0.06     0.47  -0.14   0.29
   8   1     0.13  -0.06   0.07     0.14  -0.07   0.02    -0.05   0.03   0.01
   9   1     0.06   0.12   0.03     0.01   0.06   0.02     0.01  -0.01   0.00
  10   1     0.09   0.17   0.04     0.08   0.15   0.06    -0.03  -0.06  -0.01
  11   1    -0.08   0.00  -0.05    -0.02   0.04   0.15    -0.03  -0.03  -0.05
  12   1    -0.07  -0.00  -0.05    -0.25   0.03   0.01     0.06  -0.01   0.00
  13   1    -0.02  -0.26  -0.02     0.02  -0.22  -0.08     0.00   0.03   0.01
  14   1     0.01  -0.05   0.20     0.06  -0.06   0.09    -0.07   0.04   0.05
  15   1    -0.13   0.07  -0.19     0.07  -0.03   0.33    -0.02   0.05   0.07
  16   1    -0.12  -0.18  -0.03     0.23   0.32  -0.03    -0.07   0.24  -0.04
  17   1    -0.05  -0.15  -0.01    -0.02   0.07   0.13    -0.28  -0.20   0.14
                     10                     11                     12
                        a                      a                      a 
 Frequencies --   638.1505               726.5472               803.2167
 Red. masses --     6.2253                 8.0203                 8.2970
 Frc consts  --     0.0000                 0.0000                 0.0000
 IR Inten    --    48.2660               196.5031                21.4698
 Raman Activ --     0.0000                 0.0000                 0.0000
 Depolar     --     0.0000                 0.0000                 0.0000
 Atom AN      X      Y      Z        X      Y      Z        X      Y      Z
   1   7    -0.00   0.02  -0.02     0.00  -0.01   0.02    -0.01  -0.22   0.07
   2   6    -0.03  -0.00   0.02     0.02   0.00  -0.04    -0.23   0.04  -0.04
   3   6    -0.11   0.04   0.15     0.08  -0.04  -0.10    -0.11   0.44   0.05
   4   6    -0.02  -0.17   0.11     0.05   0.05   0.06     0.11   0.24  -0.21
   5   6     0.30  -0.12  -0.33    -0.29   0.08   0.50     0.01  -0.21   0.13
   6   8     0.22   0.12  -0.03    -0.00  -0.03  -0.38     0.22   0.05   0.06
   7   8    -0.26   0.03  -0.04     0.18   0.02  -0.15    -0.11  -0.21  -0.08
   8   1     0.02  -0.01  -0.02     0.01  -0.01  -0.00     0.03  -0.08  -0.01
   9   1     0.01  -0.02  -0.01    -0.04   0.02   0.00     0.04  -0.14   0.01
  10   1     0.01   0.05  -0.03    -0.00  -0.02   0.03     0.00   0.02  -0.05
  11   1    -0.05  -0.01  -0.09     0.05   0.02   0.07    -0.14  -0.06  -0.13
  12   1     0.10  -0.01  -0.00    -0.08   0.01  -0.00     0.04  -0.09  -0.02
  13   1    -0.11   0.16   0.08     0.03  -0.10  -0.04     0.09  -0.22  -0.06
  14   1    -0.01   0.01  -0.14     0.01  -0.01   0.07    -0.02   0.15   0.39
  15   1    -0.02  -0.03   0.01     0.03   0.01  -0.04     0.11   0.02  -0.09
  16   1    -0.11   0.00   0.05     0.08  -0.11   0.01     0.06   0.04  -0.06
  17   1    -0.14   0.07   0.67    -0.34  -0.06   0.51     0.17   0.09   0.10
                     13                     14                     15
                        a                      a                      a 
 Frequencies --   841.7906               857.9691               927.1466
 Red. masses --     3.4112                 7.7291                 6.7119
 Frc consts  --     0.0000                 0.0000                 0.0000
 IR Inten    --    49.4538                20.2060                11.2308
 Raman Activ --     0.0000                 0.0000                 0.0000
 Depolar     --     0.0000                 0.0000                 0.0000
 Atom AN      X      Y      Z        X      Y      Z        X      Y      Z
   1   7    -0.09   0.08   0.06    -0.12  -0.21  -0.01     0.08  -0.14   0.19
   2   6    -0.18   0.02   0.23    -0.27   0.00  -0.17     0.07   0.18  -0.08
   3   6     0.06  -0.13   0.02     0.18   0.10   0.18    -0.04   0.19  -0.24
   4   6     0.07  -0.11  -0.10     0.38   0.06   0.20    -0.03  -0.30   0.26
   5   6    -0.05   0.09   0.11     0.05   0.07  -0.13     0.12   0.11  -0.19
   6   8    -0.09  -0.01  -0.07    -0.29  -0.02  -0.09    -0.15  -0.00  -0.03
   7   8     0.09   0.07  -0.00     0.10   0.05   0.06     0.03   0.18   0.06
   8   1     0.09   0.01  -0.12     0.10  -0.31   0.14    -0.07   0.22  -0.15
   9   1     0.15  -0.35  -0.00     0.08   0.08   0.03     0.00  -0.35   0.01
  10   1     0.03   0.34  -0.23     0.04   0.16  -0.00    -0.03  -0.10  -0.08
  11   1    -0.18   0.11  -0.38    -0.05   0.02  -0.02     0.05   0.08   0.03
  12   1     0.39  -0.19   0.02    -0.10   0.01  -0.04    -0.10  -0.16  -0.02
  13   1     0.10   0.11   0.01    -0.10   0.09   0.09    -0.12  -0.28  -0.09
  14   1     0.05  -0.04  -0.11     0.10   0.04  -0.07     0.19   0.13   0.22
  15   1    -0.01  -0.03   0.10     0.18   0.02  -0.29    -0.00  -0.08   0.04
  16   1     0.16   0.04  -0.06    -0.15  -0.24   0.11     0.03  -0.14   0.06
  17   1    -0.07  -0.04  -0.05    -0.08  -0.02  -0.08    -0.12  -0.05  -0.04
                     16                     17                     18
                        a                      a                      a 
 Frequencies --   947.7816               987.6727              1052.2621
 Red. masses --     6.7527                 6.2328                 7.3146
 Frc consts  --     0.0000                 0.0000                 0.0000
 IR Inten    --    11.5191                25.7907               101.4903
 Raman Activ --     0.0000                 0.0000                 0.0000
 Depolar     --     0.0000                 0.0000                 0.0000
 Atom AN      X      Y      Z        X      Y      Z        X      Y      Z
   1   7    -0.02  -0.34  -0.04     0.17   0.16  -0.12    -0.24   0.20  -0.17
   2   6    -0.07   0.22  -0.09    -0.20  -0.21   0.16     0.21  -0.38   0.15
   3   6     0.15   0.17   0.07    -0.18   0.10   0.13    -0.01   0.26  -0.15
   4   6    -0.22  -0.38  -0.12     0.32  -0.20  -0.08    -0.13  -0.09   0.17
   5   6    -0.06   0.10   0.04     0.07   0.06  -0.02     0.17  -0.01  -0.08
   6   8     0.08   0.02   0.03    -0.16   0.00  -0.07    -0.13  -0.03  -0.04
   7   8    -0.01   0.16  -0.01     0.03   0.15   0.02     0.02   0.04   0.02
   8   1     0.06  -0.31   0.18    -0.16   0.23  -0.01     0.11  -0.22   0.08
   9   1     0.01   0.21   0.02    -0.16   0.22  -0.03     0.08   0.18  -0.01
  10   1     0.03  -0.03   0.09    -0.04  -0.31   0.13     0.03   0.30  -0.04
  11   1    -0.05  -0.02  -0.02    -0.21  -0.31  -0.09     0.12   0.02   0.07
  12   1     0.04   0.19  -0.02     0.12   0.06   0.03     0.00  -0.07   0.05
  13   1     0.16   0.06   0.00     0.08  -0.01   0.01     0.25  -0.12  -0.11
  14   1     0.17   0.08   0.01    -0.02   0.03   0.08    -0.15   0.04   0.23
  15   1    -0.03  -0.18   0.31     0.11  -0.07   0.01    -0.08   0.01   0.04
  16   1     0.16   0.20  -0.08     0.25  -0.13  -0.05     0.18  -0.16   0.01
  17   1    -0.10  -0.07  -0.04    -0.08  -0.03  -0.04     0.01   0.02   0.03
                     19                     20                     21
                        a                      a                      a 
 Frequencies --  1061.7918              1102.0531              1130.4777
 Red. masses --     7.1443                 7.7004                 8.2603
 Frc consts  --     0.0000                 0.0000                 0.0000
 IR Inten    --    76.2070                 2.1441               225.9130
 Raman Activ --     0.0000                 0.0000                 0.0000
 Depolar     --     0.0000                 0.0000                 0.0000
 Atom AN      X      Y      Z        X      Y      Z        X      Y      Z
   1   7     0.05  -0.25   0.02    -0.12  -0.01   0.08    -0.00   0.04   0.07
   2   6     0.09   0.44   0.12     0.32   0.08  -0.08    -0.04  -0.11  -0.18
   3   6    -0.21  -0.17  -0.14    -0.46  -0.02   0.24     0.12   0.09   0.18
   4   6     0.02   0.16   0.07     0.27  -0.17  -0.30    -0.10  -0.05  -0.18
   5   6     0.20  -0.08  -0.02     0.01   0.02   0.06     0.28  -0.05   0.21
   6   8    -0.22  -0.10  -0.09    -0.03   0.03  -0.02    -0.35  -0.27  -0.18
   7   8     0.02  -0.01   0.03     0.02   0.06  -0.01     0.10   0.21   0.03
   8   1    -0.00  -0.11   0.08     0.07  -0.09  -0.01    -0.03   0.09  -0.05
   9   1    -0.00   0.07   0.02     0.08  -0.09   0.02    -0.01  -0.08   0.00
  10   1     0.02  -0.09   0.07     0.01   0.17  -0.06    -0.01   0.01  -0.04
  11   1    -0.04   0.05  -0.07     0.18   0.09   0.16     0.02  -0.04   0.07
  12   1     0.23   0.24   0.02    -0.08   0.10  -0.00    -0.16  -0.05  -0.04
  13   1     0.08  -0.01  -0.05    -0.28  -0.02   0.09    -0.05   0.07   0.07
  14   1    -0.15  -0.07   0.01    -0.24  -0.04   0.04     0.09   0.04  -0.05
  15   1    -0.25   0.23  -0.04     0.19  -0.15   0.03    -0.11   0.02   0.11
  16   1     0.25  -0.26  -0.02     0.16   0.04  -0.10    -0.03   0.18  -0.05
  17   1     0.15   0.11   0.09    -0.07  -0.04  -0.05     0.44   0.27   0.20
                     22                     23                     24
                        a                      a                      a 
 Frequencies --  1180.4277              1221.0452              1234.1567
 Red. masses --     4.7916                 3.5976                 5.6014
 Frc consts  --     0.0000                 0.0000                 0.0000
 IR Inten    --    24.8870                15.8256                49.5163
 Raman Activ --     0.0000                 0.0000                 0.0000
 Depolar     --     0.0000                 0.0000                 0.0000
 Atom AN      X      Y      Z        X      Y      Z        X      Y      Z
   1   7    -0.00  -0.04  -0.18     0.02  -0.00   0.11    -0.00   0.02  -0.08
   2   6     0.07   0.09   0.36    -0.06   0.05  -0.13     0.02  -0.05   0.06
   3   6    -0.13  -0.05  -0.28     0.01  -0.06  -0.06    -0.04  -0.02   0.12
   4   6     0.06  -0.05   0.00    -0.05  -0.06   0.16    -0.03   0.04  -0.01
   5   6    -0.02   0.03   0.08    -0.24   0.12  -0.16    -0.46   0.18  -0.26
   6   8    -0.06  -0.10  -0.04     0.06  -0.13   0.03     0.16  -0.12   0.07
   7   8     0.06   0.13   0.01     0.07   0.13   0.04     0.07  -0.01   0.03
   8   1     0.00  -0.13   0.10     0.01   0.06  -0.05     0.01  -0.05   0.03
   9   1    -0.02   0.22  -0.02     0.02  -0.12   0.02     0.00   0.05  -0.01
  10   1     0.02  -0.03   0.09    -0.01  -0.00  -0.04     0.01  -0.02   0.03
  11   1    -0.03   0.08  -0.10    -0.02  -0.04   0.00     0.06   0.12   0.01
  12   1     0.20  -0.12   0.08     0.01   0.22  -0.03    -0.03  -0.17   0.01
  13   1    -0.26  -0.20  -0.06     0.39   0.08  -0.08    -0.22  -0.02   0.07
  14   1     0.10   0.03   0.05    -0.39  -0.13   0.03     0.32   0.09  -0.06
  15   1     0.26  -0.18  -0.06     0.39  -0.29  -0.06    -0.02   0.01   0.01
  16   1    -0.41   0.24   0.07    -0.07  -0.06   0.05     0.38  -0.27  -0.07
  17   1     0.19   0.10   0.08     0.28   0.15   0.14     0.33   0.17   0.17
                     25                     26                     27
                        a                      a                      a 
 Frequencies --  1257.8955              1318.6086              1337.9148
 Red. masses --     2.4990                 3.6245                 5.4755
 Frc consts  --     0.0000                 0.0000                 0.0000
 IR Inten    --    17.8108                36.6169                58.8154
 Raman Activ --     0.0000                 0.0000                 0.0000
 Depolar     --     0.0000                 0.0000                 0.0000
 Atom AN      X      Y      Z        X      Y      Z        X      Y      Z
   1   7     0.17  -0.08  -0.15    -0.13   0.18  -0.07     0.00   0.00  -0.01
   2   6    -0.14   0.11   0.02     0.11   0.27   0.04    -0.03   0.05   0.05
   3   6     0.02   0.01   0.14     0.19   0.03   0.00     0.29  -0.03  -0.02
   4   6    -0.02  -0.03  -0.03     0.11  -0.12  -0.01    -0.42   0.24  -0.00
   5   6     0.08  -0.03   0.02    -0.12   0.03  -0.05     0.24  -0.09   0.04
   6   8    -0.03   0.01  -0.01     0.03  -0.02   0.01    -0.06   0.03  -0.01
   7   8    -0.01   0.02  -0.00     0.01   0.02   0.01    -0.03   0.01  -0.00
   8   1    -0.09   0.03   0.07     0.20  -0.23   0.02    -0.02   0.00   0.02
   9   1    -0.10   0.12  -0.04     0.17  -0.14  -0.00    -0.02   0.01  -0.00
  10   1     0.03  -0.15   0.09    -0.10  -0.23   0.10     0.00   0.02   0.00
  11   1     0.14   0.54  -0.06    -0.19  -0.44  -0.02    -0.08  -0.15  -0.00
  12   1    -0.15  -0.55  -0.01    -0.15  -0.36   0.00     0.04  -0.03   0.01
  13   1     0.16   0.11   0.03    -0.11  -0.03   0.02    -0.38  -0.08   0.07
  14   1    -0.32  -0.09   0.03    -0.32  -0.10   0.03    -0.13  -0.07  -0.04
  15   1     0.04  -0.04   0.03    -0.17   0.09   0.08     0.39  -0.27  -0.07
  16   1     0.06  -0.02  -0.02    -0.05  -0.00   0.01     0.34  -0.13  -0.08
  17   1    -0.05  -0.02  -0.02     0.04   0.02   0.02    -0.09  -0.05  -0.04
                     28                     29                     30
                        a                      a                      a 
 Frequencies --  1350.5858              1371.3392              1412.2973
 Red. masses --     4.3639                 2.6466                 1.5971
 Frc consts  --     0.0000                 0.0000                 0.0000
 IR Inten    --    45.0638               154.1758               103.7421
 Raman Activ --     0.0000                 0.0000                 0.0000
 Depolar     --     0.0000                 0.0000                 0.0000
 Atom AN      X      Y      Z        X      Y      Z        X      Y      Z
   1   7     0.09  -0.08   0.06     0.02  -0.25  -0.01     0.07  -0.00   0.18
   2   6    -0.15  -0.14   0.04     0.16   0.19   0.01     0.04   0.05   0.04
   3   6     0.34   0.18  -0.06    -0.01  -0.05   0.01    -0.03  -0.01   0.02
   4   6     0.11  -0.18  -0.03     0.03  -0.02   0.01    -0.00   0.01   0.01
   5   6    -0.16   0.06  -0.06    -0.06   0.04  -0.02     0.00  -0.00  -0.01
   6   8     0.05  -0.02   0.02     0.02  -0.00   0.01    -0.00  -0.00  -0.00
   7   8     0.02  -0.01   0.01     0.01  -0.03  -0.00     0.00   0.01   0.02
   8   1    -0.09   0.10   0.01    -0.32   0.27   0.06     0.30  -0.16  -0.16
   9   1    -0.14   0.08  -0.00    -0.21   0.23  -0.01    -0.40   0.29  -0.01
  10   1     0.04   0.11  -0.10     0.18   0.55  -0.08    -0.20  -0.15  -0.70
  11   1     0.03   0.18  -0.05    -0.14  -0.34  -0.04    -0.02  -0.03  -0.03
  12   1     0.13   0.28   0.01    -0.19  -0.25   0.00    -0.06  -0.08   0.01
  13   1    -0.42  -0.14   0.05     0.06   0.03  -0.00     0.04  -0.04  -0.01
  14   1    -0.44  -0.11   0.10    -0.03  -0.02  -0.00     0.02  -0.00  -0.06
  15   1    -0.25   0.14   0.08    -0.02   0.01   0.02     0.02  -0.01  -0.02
  16   1    -0.04   0.02   0.00    -0.02  -0.01   0.01     0.01  -0.00   0.00
  17   1     0.06   0.03   0.02     0.02   0.01   0.01     0.00   0.00  -0.01
                     31                     32                     33
                        a                      a                      a 
 Frequencies --  1443.1406              1454.1752              1477.1785
 Red. masses --     1.8600                 2.0141                 1.8640
 Frc consts  --     0.0000                 0.0000                 0.0000
 IR Inten    --    84.6083                22.8643                11.4489
 Raman Activ --     0.0000                 0.0000                 0.0000
 Depolar     --     0.0000                 0.0000                 0.0000
 Atom AN      X      Y      Z        X      Y      Z        X      Y      Z
   1   7     0.14   0.18  -0.09     0.01   0.01   0.00    -0.02  -0.03  -0.00
   2   6     0.01   0.00  -0.03     0.04  -0.03   0.03     0.04  -0.00   0.05
   3   6    -0.03   0.02   0.03     0.00   0.01  -0.00    -0.02   0.18   0.20
   4   6     0.00  -0.00   0.01     0.05   0.21  -0.20    -0.01   0.00   0.02
   5   6     0.00   0.00   0.00     0.05  -0.01   0.01     0.01   0.01   0.01
   6   8    -0.00  -0.00  -0.00    -0.01   0.01  -0.01    -0.00   0.00  -0.00
   7   8     0.00  -0.00   0.00    -0.01  -0.00   0.00    -0.00  -0.01  -0.01
   8   1    -0.18  -0.24   0.59    -0.00  -0.01   0.02     0.00   0.03  -0.05
   9   1    -0.48  -0.45  -0.13    -0.02  -0.02  -0.00     0.09   0.02   0.02
  10   1     0.01   0.03  -0.08    -0.00  -0.01  -0.01     0.02   0.00   0.07
  11   1     0.03  -0.05   0.09    -0.03   0.04  -0.13    -0.04   0.05  -0.15
  12   1     0.08   0.01  -0.01    -0.11   0.07   0.01    -0.13   0.06   0.02
  13   1     0.04  -0.09  -0.02    -0.01  -0.01  -0.00     0.15  -0.63  -0.12
  14   1     0.02   0.00  -0.09     0.03   0.01  -0.01    -0.07  -0.05  -0.64
  15   1    -0.00   0.01  -0.01     0.05  -0.14   0.66    -0.01   0.02  -0.04
  16   1    -0.00   0.02   0.00    -0.34  -0.54   0.06     0.02   0.03  -0.00
  17   1     0.00   0.00  -0.00    -0.02  -0.01  -0.01    -0.00  -0.00   0.00
                     34                     35                     36
                        a                      a                      a 
 Frequencies --  1481.4225              1775.8887              2924.7957
 Red. masses --     1.8786                13.2251                 1.9070
 Frc consts  --     0.0000                 0.0000                 0.0000
 IR Inten    --    16.3325               497.1969                 1.4293
 Raman Activ --     0.0000                 0.0000                 0.0000
 Depolar     --     0.0000                 0.0000                 0.0000
 Atom AN      X      Y      Z        X      Y      Z        X      Y      Z
   1   7     0.03   0.03  -0.01     0.02  -0.01  -0.01    -0.00  -0.00   0.00
   2   6     0.20  -0.08   0.14     0.00  -0.01   0.00     0.03  -0.01  -0.01
   3   6     0.00  -0.05  -0.04    -0.01  -0.00   0.01    -0.09   0.24  -0.12
   4   6    -0.03  -0.03   0.04    -0.00   0.06  -0.00    -0.01  -0.01   0.00
   5   6     0.01  -0.01   0.00    -0.25  -0.74  -0.10     0.00  -0.00   0.00
   6   8    -0.00  -0.00  -0.00     0.04   0.05   0.02     0.00   0.00   0.00
   7   8    -0.00   0.01  -0.00     0.20   0.55   0.09     0.00   0.00  -0.00
   8   1    -0.01  -0.05   0.09    -0.00   0.00  -0.00    -0.00  -0.00   0.00
   9   1    -0.04  -0.10  -0.01     0.00  -0.00   0.00    -0.00  -0.00  -0.00
  10   1    -0.01  -0.06   0.02    -0.03   0.05   0.01     0.01  -0.00  -0.00
  11   1    -0.17   0.13  -0.61     0.01   0.01   0.00    -0.11   0.05   0.05
  12   1    -0.57   0.26   0.06     0.00  -0.00   0.00     0.00  -0.00  -0.05
  13   1    -0.04   0.14   0.03     0.00  -0.01  -0.00     0.06  -0.04   0.38
  14   1     0.03   0.01   0.14     0.01   0.00  -0.01     0.24  -0.82   0.05
  15   1     0.01   0.02  -0.13    -0.05   0.04  -0.02     0.05   0.07   0.02
  16   1     0.08   0.10  -0.02     0.00  -0.02  -0.00    -0.01  -0.00  -0.03
  17   1    -0.00  -0.00   0.00    -0.08  -0.04  -0.04     0.00  -0.00   0.00
                     37                     38                     39
                        a                      a                      a 
 Frequencies --  2934.4196              2946.8179              2957.5617
 Red. masses --     1.9474                 1.8925                 1.5814
 Frc consts  --     0.0000                 0.0000                 0.0000
 IR Inten    --     8.8430                 0.5934                 8.2090
 Raman Activ --     0.0000                 0.0000                 0.0000
 Depolar     --     0.0000                 0.0000                 0.0000
 Atom AN      X      Y      Z        X      Y      Z        X      Y      Z
   1   7     0.01  -0.00  -0.00     0.00  -0.00  -0.00    -0.01   0.00   0.00
   2   6    -0.17   0.07   0.22    -0.02   0.01   0.01     0.10  -0.04   0.06
   3   6    -0.01   0.01  -0.04     0.00   0.01   0.08     0.00  -0.07  -0.14
   4   6    -0.00  -0.00  -0.00    -0.14  -0.15  -0.18    -0.06  -0.08  -0.04
   5   6     0.00   0.00   0.00    -0.01  -0.01  -0.01    -0.00  -0.01  -0.00
   6   8    -0.00  -0.00  -0.00     0.00   0.00  -0.00     0.00   0.00   0.00
   7   8    -0.00  -0.00  -0.00     0.00   0.00   0.00     0.00   0.00   0.00
   8   1     0.00   0.00  -0.00    -0.00   0.00   0.00    -0.00  -0.00  -0.00
   9   1     0.00  -0.00   0.02     0.00   0.00  -0.00    -0.00  -0.00   0.01
  10   1    -0.07   0.02   0.02    -0.01   0.00   0.00     0.04  -0.01  -0.01
  11   1     0.67  -0.27  -0.26     0.07  -0.03  -0.03    -0.35   0.15   0.16
  12   1    -0.05   0.03  -0.53    -0.00   0.00   0.02    -0.01   0.01  -0.37
  13   1     0.04  -0.03   0.19    -0.06   0.06  -0.33     0.11  -0.12   0.57
  14   1    -0.00   0.00  -0.01     0.04  -0.12   0.02    -0.11   0.37  -0.05
  15   1     0.00   0.01   0.00     0.39   0.54   0.09     0.20   0.29   0.05
  16   1     0.00   0.00   0.00     0.10   0.00   0.56     0.01  -0.01   0.08
  17   1     0.00   0.00  -0.00     0.00  -0.00   0.00     0.00  -0.00   0.00
                     40                     41                     42
                        a                      a                      a 
 Frequencies --  2964.2017              2969.9421              3018.0810
 Red. masses --     1.5943                 1.5620                 1.9549
 Frc consts  --     0.0000                 0.0000                 0.0000
 IR Inten    --    11.1202                 3.4955               881.9948
 Raman Activ --     0.0000                 0.0000                 0.0000
 Depolar     --     0.0000                 0.0000                 0.0000
 Atom AN      X      Y      Z        X      Y      Z        X      Y      Z
   1   7    -0.01  -0.00  -0.00     0.01  -0.00  -0.00    -0.25   0.06   0.07
   2   6     0.10  -0.04   0.15    -0.01   0.00  -0.03    -0.02   0.02   0.00
   3   6     0.02   0.02   0.12    -0.01   0.00  -0.07     0.00   0.00  -0.00
   4   6     0.03   0.06  -0.01     0.04   0.10  -0.18    -0.00   0.01  -0.01
   5   6     0.00   0.00   0.00    -0.00   0.01  -0.00    -0.01  -0.03  -0.01
   6   8     0.00  -0.00  -0.00     0.00  -0.00   0.00     0.01   0.01   0.00
   7   8     0.00   0.00  -0.00    -0.00  -0.00  -0.00     0.01   0.02  -0.00
   8   1     0.01   0.00   0.00    -0.00  -0.00  -0.00     0.02   0.03   0.03
   9   1    -0.00  -0.00   0.02     0.00  -0.00  -0.00    -0.01   0.01  -0.05
  10   1     0.04  -0.01  -0.01    -0.04   0.01   0.01     0.89  -0.29  -0.20
  11   1    -0.32   0.13   0.16     0.01  -0.00  -0.01     0.08  -0.04  -0.03
  12   1    -0.02   0.02  -0.70     0.01  -0.00   0.11    -0.00   0.00   0.01
  13   1    -0.08   0.08  -0.44     0.05  -0.05   0.25     0.00  -0.00   0.01
  14   1     0.04  -0.14   0.03    -0.01   0.03  -0.01    -0.00  -0.00  -0.00
  15   1    -0.15  -0.21  -0.05    -0.30  -0.41  -0.11    -0.01  -0.02  -0.00
  16   1     0.02   0.01   0.09     0.16   0.04   0.75     0.01   0.00   0.03
  17   1    -0.00   0.00  -0.00    -0.00   0.00  -0.00     0.00  -0.01   0.00
                     43                     44                     45
                        a                      a                      a 
 Frequencies --  3221.2991              3235.2919              3430.9039
 Red. masses --     1.9722                 1.5458                 1.8535
 Frc consts  --     0.0000                 0.0000                 0.0000
 IR Inten    --    69.6094                31.8290                79.7067
 Raman Activ --     0.0000                 0.0000                 0.0000
 Depolar     --     0.0000                 0.0000                 0.0000
 Atom AN      X      Y      Z        X      Y      Z        X      Y      Z
   1   7     0.13   0.13   0.20    -0.07  -0.08   0.17     0.00  -0.00  -0.00
   2   6     0.00   0.00   0.01     0.00  -0.01   0.01     0.00   0.00  -0.00
   3   6    -0.00  -0.00   0.00     0.00  -0.00  -0.00    -0.00   0.00   0.00
   4   6     0.00   0.00   0.00     0.00  -0.00   0.00     0.00  -0.00   0.00
   5   6     0.00  -0.00   0.00    -0.00   0.00   0.00    -0.01   0.00  -0.01
   6   8    -0.00   0.00  -0.00     0.00  -0.00  -0.00    -0.11   0.21  -0.04
   7   8    -0.00   0.00  -0.00     0.00  -0.00  -0.00     0.00   0.00   0.00
   8   1    -0.58  -0.53  -0.42     0.23   0.22   0.20    -0.00  -0.00  -0.00
   9   1     0.07   0.04  -0.35     0.12   0.08  -0.89    -0.00  -0.00  -0.00
  10   1     0.04   0.00   0.01    -0.09   0.02   0.03    -0.01   0.00   0.00
  11   1     0.00  -0.00  -0.00    -0.00   0.00  -0.00    -0.00   0.00   0.00
  12   1    -0.00  -0.00  -0.01    -0.00   0.00  -0.02    -0.00   0.00   0.00
  13   1    -0.00   0.00  -0.01     0.00  -0.00   0.00    -0.00   0.00  -0.00
  14   1     0.00   0.00  -0.00    -0.00   0.00  -0.00     0.00  -0.00   0.00
  15   1    -0.00  -0.00  -0.00     0.00   0.00   0.00    -0.00  -0.00  -0.00
  16   1     0.00   0.00  -0.00    -0.00  -0.00  -0.00    -0.00   0.00   0.00
  17   1    -0.00   0.00   0.00    -0.00   0.00   0.00     0.46  -0.84   0.18
