      -----------------------------------------------------------      
     |                   =====================                   |     
     |                           x T B                           |     
     |                   =====================                   |     
     |                         S. Grimme                         |     
     |          Mulliken Center for Theoretical Chemistry        |     
     |                    University of Bonn                     |     
      -----------------------------------------------------------      

   * xtb version 6.5.1 (fef0646) compiled by 'conda@b96dff2e9fd6' on 2023-01-04

   xtb is free software: you can redistribute it and/or modify it under
   the terms of the GNU Lesser General Public License as published by
   the Free Software Foundation, either version 3 of the License, or
   (at your option) any later version.
   
   xtb is distributed in the hope that it will be useful,
   but WITHOUT ANY WARRANTY; without even the implied warranty of
   MERCHANTABILITY or FITNESS FOR A PARTICULAR PURPOSE.  See the
   GNU Lesser General Public License for more details.
   
   Cite this work as:
   * C. Bannwarth, E. Caldeweyher, S. Ehlert, A. Hansen, P. Pracht,
     J. Seibert, S. Spicher, S. Grimme, WIREs Comput. Mol. Sci., 2020, 11,
     e01493. DOI: 10.1002/wcms.1493
   
   for GFN2-xTB:
   * C. Bannwarth, S. Ehlert and S. Grimme., J. Chem. Theory Comput., 2019,
     15, 1652-1671. DOI: 10.1021/acs.jctc.8b01176
   for GFN1-xTB:
   * S. Grimme, C. Bannwarth, P. Shushkov, J. Chem. Theory Comput., 2017,
     13, 1989-2009. DOI: 10.1021/acs.jctc.7b00118
   for GFN0-xTB:
   * P. Pracht, E. Caldeweyher, S. Ehlert, S. Grimme, ChemRxiv, 2019, preprint.
     DOI: 10.26434/chemrxiv.8326202.v1
   for GFN-FF:
   * S. Spicher and S. Grimme, Angew. Chem. Int. Ed., 2020, 59, 15665-15673.
     DOI: 10.1002/anie.202004239
   
   for ALPB and GBSA implicit solvation:
   * S. Ehlert, M. Stahn, S. Spicher, S. Grimme, J. Chem. Theory Comput.,
     2021, 17, 4250-4261. DOI: 10.1021/acs.jctc.1c00471
   
   for DFT-D4:
   * E. Caldeweyher, C. Bannwarth and S. Grimme, J. Chem. Phys., 2017,
     147, 034112. DOI: 10.1063/1.4993215
   * E. Caldeweyher, S. Ehlert, A. Hansen, H. Neugebauer, S. Spicher,
     C. Bannwarth and S. Grimme, J. Chem. Phys., 2019, 150, 154122.
     DOI: 10.1063/1.5090222
   * E. Caldeweyher, J.-M. Mewes, S. Ehlert and S. Grimme, Phys. Chem. Chem. Phys.
     2020, 22, 8499-8512. DOI: 10.1039/D0CP00502A
   
   for sTDA-xTB:
   * S. Grimme and C. Bannwarth, J. Chem. Phys., 2016, 145, 054103.
     DOI: 10.1063/1.4959605
   
   in the mass-spec context:
   * V. Asgeirsson, C. Bauer and S. Grimme, Chem. Sci., 2017, 8, 4879.
     DOI: 10.1039/c7sc00601b
   * J. Koopman and S. Grimme, ACS Omega 2019, 4, 12, 15120-15133.
     DOI: 10.1021/acsomega.9b02011
   
   for metadynamics refer to:
   * S. Grimme, J. Chem. Theory Comput., 2019, 155, 2847-2862
     DOI: 10.1021/acs.jctc.9b00143
   
   for SPH calculations refer to:
   * S. Spicher and S. Grimme, J. Chem. Theory Comput., 2021, 17, 1701-1714
     DOI: 10.1021/acs.jctc.0c01306
   
   with help from (in alphabetical order)
   P. Atkinson, C. Bannwarth, F. Bohle, G. Brandenburg, E. Caldeweyher
   M. Checinski, S. Dohm, S. Ehlert, S. Ehrlich, I. Gerasimov, C. Hölzer
   A. Katbashev, J. Koopman, C. Lavigne, S. Lehtola, F. März, M. Müller,
   F. Musil, H. Neugebauer, J. Pisarek, C. Plett, P. Pracht, F. Pultar,
   J. Seibert, P. Shushkov, S. Spicher, M. Stahn, M. Steiner, T. Strunk,
   J. Stückrath, T. Rose, and J. Unsleber
   
 * started run on 2023/01/24 at 15:07:43.350     

           -------------------------------------------------
          |                Calculation Setup                |
           -------------------------------------------------

          program call               : xtb init.xyz --opt -c 0 -u 0 -P 16 --alpb water
          hostname                   : gpg-woodward
          coordinate file            : init.xyz
          omp threads                :                    16

   ID    Z sym.   atoms
    1    7 N      1
    2    6 C      2-10
    3   17 Cl     11
    4    1 H      12-23

molecular fragmentation (1/2 indicates fragments):
11111111112111111111111
# atoms in fragment 1/2:    22     1
 fragment masses (1/2) :      134.20       35.45
CMA distance (Bohr)    :   9.540
constraining FC (au)   :  0.0500

           -------------------------------------------------
          |                 G F N 2 - x T B                 |
           -------------------------------------------------

        Reference                      10.1021/acs.jctc.8b01176
      * Hamiltonian:
        H0-scaling (s, p, d)           1.850000    2.230000    2.230000
        zeta-weighting                 0.500000
      * Dispersion:
        s8                             2.700000
        a1                             0.520000
        a2                             5.000000
        s9                             5.000000
      * Repulsion:
        kExp                           1.500000    1.000000
        rExp                           1.000000
      * Coulomb:
        alpha                          2.000000
        third order                    shell-resolved
        anisotropic                    true
        a3                             3.000000
        a5                             4.000000
        cn-shift                       1.200000
        cn-exp                         4.000000
        max-rad                        5.000000

      * Solvation model:               ALPB
        Solvent                        water
        Parameter file                 internal GFN2-xTB/ALPB
        Dielectric constant                8.0200E+01
        Reference state                gsolv [1 M gas/solution]
        Free energy shift                  1.0808E-03 Eh       6.7819E-01 kcal/mol
        Temperature                        2.9815E+02 K
        Density                            1.0000E+00 kg/L
        Solvent mass                       1.8000E+01 g/mol
        Interaction kernel             P16
        Born radius scaling (c1)           1.4744E+00
        Born radii integrator          GBOBC
        Born offset                        0.0000E+00 a0       0.0000E+00 AA
        H-bond correction              true
        Ion screening                  false
        Surface tension                    1.0000E-05 Eh       1.5569E+01 dyn/cm
        Grid points                               230 per atom

          ...................................................
          :                      SETUP                      :
          :.................................................:
          :  # basis functions                  62          :
          :  # atomic orbitals                  61          :
          :  # shells                           35          :
          :  # electrons                        60          :
          :  max. iterations                   250          :
          :  Hamiltonian                  GFN2-xTB          :
          :  restarted?                      false          :
          :  GBSA solvation                   true          :
          :  PC potential                    false          :
          :  electronic temp.          300.0000000     K    :
          :  accuracy                    1.0000000          :
          :  -> integral cutoff          0.2500000E+02      :
          :  -> integral neglect         0.1000000E-07      :
          :  -> SCF convergence          0.1000000E-05 Eh   :
          :  -> wf. convergence          0.1000000E-03 e    :
          :  Broyden damping             0.4000000          :
          ...................................................

 iter      E             dE          RMSdq      gap      omega  full diag
   1    -33.2504127 -0.332504E+02  0.436E+00    3.67       0.0  T
   2    -33.3268987 -0.764860E-01  0.249E+00    3.67       1.0  T
   3    -33.3291596 -0.226092E-02  0.116E+00    3.66       1.0  T
   4    -33.3269083  0.225129E-02  0.710E-01    3.67       1.0  T
   5    -33.3341514 -0.724310E-02  0.287E-01    3.66       1.0  T
   6    -33.3345054 -0.353924E-03  0.201E-01    3.66       1.0  T
   7    -33.3348364 -0.331031E-03  0.108E-01    3.66       1.0  T
   8    -33.3349418 -0.105423E-03  0.347E-02    3.66       1.0  T
   9    -33.3349458 -0.400939E-05  0.195E-02    3.66       1.1  T
  10    -33.3349479 -0.208158E-05  0.754E-03    3.66       2.8  T
  11    -33.3349482 -0.333074E-06  0.221E-03    3.66       9.4  T
  12    -33.3349482 -0.131474E-07  0.898E-04    3.66      23.2  T
  13    -33.3349483 -0.698927E-08  0.396E-04    3.66      52.6  T

   *** convergence criteria satisfied after 13 iterations ***

         #    Occupation            Energy/Eh            Energy/eV
      -------------------------------------------------------------
         1        2.0000           -1.0109701             -27.5099
       ...           ...                  ...                  ...
        24        2.0000           -0.4191155             -11.4047
        25        2.0000           -0.4136628             -11.2563
        26        2.0000           -0.4035000             -10.9798
        27        2.0000           -0.4031855             -10.9712
        28        2.0000           -0.4014107             -10.9229
        29        2.0000           -0.3980309             -10.8310
        30        2.0000           -0.3816794             -10.3860 (HOMO)
        31                         -0.2470604              -6.7229 (LUMO)
        32                         -0.2219332              -6.0391
        33                         -0.1822290              -4.9587
        34                         -0.0863652              -2.3501
        35                         -0.0059416              -0.1617
       ...                                ...                  ...
        61                          0.6469344              17.6040
      -------------------------------------------------------------
                  HL-Gap            0.1346190 Eh            3.6632 eV
             Fermi-level           -0.3143699 Eh           -8.5544 eV

 SCC (total)                   0 d,  0 h,  0 min,  0.037 sec
 SCC setup                      ...        0 min,  0.002 sec (  6.334%)
 Dispersion                     ...        0 min,  0.001 sec (  2.003%)
 classical contributions        ...        0 min,  0.000 sec (  1.077%)
 integral evaluation            ...        0 min,  0.001 sec (  3.897%)
 iterations                     ...        0 min,  0.027 sec ( 74.534%)
 molecular gradient             ...        0 min,  0.004 sec ( 10.786%)
 printout                       ...        0 min,  0.000 sec (  0.372%)

         :::::::::::::::::::::::::::::::::::::::::::::::::::::
         ::                     SUMMARY                     ::
         :::::::::::::::::::::::::::::::::::::::::::::::::::::
         :: total energy             -32.850397670709 Eh    ::
         :: total w/o Gsasa/hb       -32.842182876837 Eh    ::
         :: gradient norm              0.046157943824 Eh/a0 ::
         :: HOMO-LUMO gap              3.663168504425 eV    ::
         ::.................................................::
         :: SCC energy               -33.334948254562 Eh    ::
         :: -> isotropic ES            0.107948588340 Eh    ::
         :: -> anisotropic ES         -0.028153797699 Eh    ::
         :: -> anisotropic XC          0.011678070019 Eh    ::
         :: -> dispersion             -0.017814529829 Eh    ::
         :: -> Gsolv                  -0.064724557637 Eh    ::
         ::    -> Gelec               -0.056509763764 Eh    ::
         ::    -> Gsasa               -0.001944759291 Eh    ::
         ::    -> Ghb                 -0.007350794280 Eh    ::
         ::    -> Gshift               0.001080759698 Eh    ::
         :: repulsion energy           0.484576777435 Eh    ::
         :: add. restraining           0.000000000000 Eh    ::
         :: total charge              -0.000000000000 e     ::
         :::::::::::::::::::::::::::::::::::::::::::::::::::::

      ----------------------------------------------------------- 
     |                   =====================                   |
     |                        A N C O P T                        |
     |                   =====================                   |
     |               Approximate Normal Coordinate               |
     |                Rational Function Optimizer                |
      ----------------------------------------------------------- 

          ...................................................
          :                      SETUP                      :
          :.................................................:
          :   optimization level            normal          :
          :   max. optcycles                   200          :
          :   ANC micro-cycles                  20          :
          :   degrees of freedom                63          :
          :.................................................:
          :   RF solver                   davidson          :
          :   write xtbopt.log                true          :
          :   linear?                        false          :
          :   energy convergence         0.5000000E-05 Eh   :
          :   grad. convergence          0.1000000E-02 Eh/α :
          :   maximium RF displ.         1.0000000          :
          :   Hlow (freq-cutoff)         0.1000000E-01      :
          :   Hmax (freq-cutoff)         5.0000000          :
          :   S6 in model hess.         20.0000000          :
          ...................................................

generating ANC from model Hessian ...
Using Lindh-Hessian (1995)
 Shifting diagonal of input Hessian by    9.6840453187925675E-003
 Lowest  eigenvalues of input Hessian
    0.000000    0.000000    0.000000    0.000000    0.000000    0.000000
    0.010000    0.010359    0.010940    0.011973    0.013422    0.016387
    0.019342    0.023504    0.024101    0.024777    0.030491    0.033165
 Highest eigenvalues
    1.575120    1.593771    1.825592    1.872923    1.941640    1.995193


........................................................................
.............................. CYCLE    1 ..............................
........................................................................
   1    -33.3349483 -0.333349E+02  0.234E-04    3.66       0.0  T
   2    -33.3349483 -0.141867E-09  0.179E-04    3.66     116.4  T
   3    -33.3349483 -0.871694E-10  0.116E-04    3.66     179.0  T
     SCC iter.                  ...        0 min,  0.007 sec
     gradient                   ...        0 min,  0.003 sec
 * total energy  :   -32.8503977 Eh     change       -0.7526282E-09 Eh
   gradient norm :     0.0461572 Eh/α   predicted     0.0000000E+00 (-100.00%)
   displ. norm   :     0.3828733 α      lambda       -0.8662567E-02
   maximum displ.:     0.2144754 α      in ANC's #15, #5, #12, ...

........................................................................
.............................. CYCLE    2 ..............................
........................................................................
   1    -33.3571426 -0.333571E+02  0.225E-01    3.71       0.0  T
   2    -33.3572156 -0.730421E-04  0.125E-01    3.71       1.0  T
   3    -33.3572143  0.139089E-05  0.372E-02    3.71       1.0  T
   4    -33.3572183 -0.407008E-05  0.220E-02    3.71       1.0  T
   5    -33.3572249 -0.658715E-05  0.814E-03    3.71       2.6  T
   6    -33.3572251 -0.174377E-06  0.537E-03    3.71       3.9  T
   7    -33.3572253 -0.188940E-06  0.315E-03    3.71       6.6  T
   8    -33.3572253 -0.600297E-07  0.157E-03    3.71      13.3  T
   9    -33.3572253 -0.137269E-07  0.575E-04    3.71      36.3  T
  10    -33.3572253 -0.326850E-08  0.209E-04    3.71     100.0  T
     SCC iter.                  ...        0 min,  0.021 sec
     gradient                   ...        0 min,  0.003 sec
 * total energy  :   -32.8556484 Eh     change       -0.5250736E-02 Eh
   gradient norm :     0.0247216 Eh/α   predicted    -0.4966257E-02 (  -5.42%)
   displ. norm   :     0.2380606 α      lambda       -0.1859627E-02
   maximum displ.:     0.1516473 α      in ANC's #5, #4, #12, ...

........................................................................
.............................. CYCLE    3 ..............................
........................................................................
   1    -33.3661097 -0.333661E+02  0.124E-01    3.71       0.0  T
   2    -33.3661188 -0.909084E-05  0.723E-02    3.71       1.0  T
   3    -33.3661203 -0.149641E-05  0.140E-02    3.71       1.5  T
   4    -33.3661211 -0.782465E-06  0.952E-03    3.71       2.2  T
   5    -33.3661217 -0.578308E-06  0.651E-03    3.71       3.2  T
   6    -33.3661219 -0.205477E-06  0.388E-03    3.71       5.4  T
   7    -33.3661220 -0.101476E-06  0.211E-03    3.71       9.9  T
   8    -33.3661220 -0.298088E-07  0.950E-04    3.71      21.9  T
   9    -33.3661220 -0.461122E-08  0.259E-04    3.71      80.4  T
     SCC iter.                  ...        0 min,  0.018 sec
     gradient                   ...        0 min,  0.002 sec
 * total energy  :   -32.8569032 Eh     change       -0.1254785E-02 Eh
   gradient norm :     0.0119000 Eh/α   predicted    -0.9825141E-03 ( -21.70%)
   displ. norm   :     0.2459231 α      lambda       -0.7878686E-03
   maximum displ.:     0.1565533 α      in ANC's #5, #4, #2, ...

........................................................................
.............................. CYCLE    4 ..............................
........................................................................
   1    -33.3673592 -0.333674E+02  0.120E-01    3.68       0.0  T
   2    -33.3673633 -0.418900E-05  0.709E-02    3.68       1.0  T
   3    -33.3673644 -0.108999E-05  0.131E-02    3.68       1.6  T
   4    -33.3673654 -0.976901E-06  0.947E-03    3.68       2.2  T
   5    -33.3673659 -0.474935E-06  0.654E-03    3.68       3.2  T
   6    -33.3673662 -0.277101E-06  0.295E-03    3.68       7.1  T
   7    -33.3673662 -0.549062E-07  0.134E-03    3.68      15.5  T
   8    -33.3673662 -0.106479E-07  0.550E-04    3.68      37.9  T
   9    -33.3673662 -0.224180E-08  0.131E-04    3.68     159.6  T
     SCC iter.                  ...        0 min,  0.017 sec
     gradient                   ...        0 min,  0.002 sec
 * total energy  :   -32.8574635 Eh     change       -0.5602999E-03 Eh
   gradient norm :     0.0081760 Eh/α   predicted    -0.4177648E-03 ( -25.44%)
   displ. norm   :     0.2870623 α      lambda       -0.5458724E-03
   maximum displ.:     0.1668700 α      in ANC's #4, #5, #2, ...

........................................................................
.............................. CYCLE    5 ..............................
........................................................................
   1    -33.3666383 -0.333666E+02  0.135E-01    3.65       0.0  T
   2    -33.3666412 -0.286290E-05  0.802E-02    3.65       1.0  T
   3    -33.3666372  0.397527E-05  0.225E-02    3.65       1.0  T
   4    -33.3666445 -0.726639E-05  0.107E-02    3.65       1.9  T
   5    -33.3666451 -0.608980E-06  0.575E-03    3.65       3.6  T
   6    -33.3666453 -0.236014E-06  0.225E-03    3.65       9.3  T
   7    -33.3666454 -0.199011E-07  0.110E-03    3.65      19.0  T
   8    -33.3666454 -0.868181E-08  0.231E-04    3.65      90.3  T
   9    -33.3666454 -0.248313E-09  0.101E-04    3.65     206.1  T
     SCC iter.                  ...        0 min,  0.016 sec
     gradient                   ...        0 min,  0.002 sec
 * total energy  :   -32.8578644 Eh     change       -0.4008841E-03 Eh
   gradient norm :     0.0082023 Eh/α   predicted    -0.2954313E-03 ( -26.31%)
   displ. norm   :     0.3128934 α      lambda       -0.4610174E-03
   maximum displ.:     0.1903211 α      in ANC's #4, #5, #3, ...

........................................................................
.............................. CYCLE    6 ..............................
........................................................................
   1    -33.3656504 -0.333657E+02  0.139E-01    3.61       0.0  T
   2    -33.3656536 -0.316541E-05  0.831E-02    3.61       1.0  T
   3    -33.3656422  0.113894E-04  0.315E-02    3.61       1.0  T
   4    -33.3656582 -0.160168E-04  0.117E-02    3.61       1.8  T
   5    -33.3656590 -0.769691E-06  0.549E-03    3.61       3.8  T
   6    -33.3656592 -0.213321E-06  0.242E-03    3.61       8.6  T
   7    -33.3656592 -0.492487E-07  0.867E-04    3.61      24.0  T
   8    -33.3656592 -0.923080E-09  0.319E-04    3.61      65.3  T
     SCC iter.                  ...        0 min,  0.014 sec
     gradient                   ...        0 min,  0.002 sec
 * total energy  :   -32.8582055 Eh     change       -0.3410752E-03 Eh
   gradient norm :     0.0084182 Eh/α   predicted    -0.2530878E-03 ( -25.80%)
   displ. norm   :     0.2964564 α      lambda       -0.4110787E-03
   maximum displ.:     0.1773837 α      in ANC's #4, #5, #3, ...

........................................................................
.............................. CYCLE    7 ..............................
........................................................................
   1    -33.3655010 -0.333655E+02  0.126E-01    3.60       0.0  T
   2    -33.3655051 -0.416670E-05  0.758E-02    3.60       1.0  T
   3    -33.3654901  0.150377E-04  0.358E-02    3.60       1.0  T
   4    -33.3655103 -0.202062E-04  0.112E-02    3.60       1.9  T
   5    -33.3655108 -0.522037E-06  0.765E-03    3.60       2.7  T
   6    -33.3655112 -0.338640E-06  0.337E-03    3.60       6.2  T
   7    -33.3655113 -0.117728E-06  0.915E-04    3.60      22.8  T
   8    -33.3655113 -0.382135E-08  0.426E-04    3.60      48.9  T
     SCC iter.                  ...        0 min,  0.014 sec
     gradient                   ...        0 min,  0.002 sec
 * total energy  :   -32.8585062 Eh     change       -0.3007287E-03 Eh
   gradient norm :     0.0068409 Eh/α   predicted    -0.2236045E-03 ( -25.65%)
   displ. norm   :     0.2459521 α      lambda       -0.2574188E-03
   maximum displ.:     0.1400051 α      in ANC's #4, #6, #3, ...

........................................................................
.............................. CYCLE    8 ..............................
........................................................................
   1    -33.3660178 -0.333660E+02  0.110E-01    3.59       0.0  T
   2    -33.3660214 -0.358157E-05  0.657E-02    3.59       1.0  T
   3    -33.3660094  0.119703E-04  0.320E-02    3.59       1.0  T
   4    -33.3660253 -0.159201E-04  0.938E-03    3.59       2.2  T
   5    -33.3660257 -0.347505E-06  0.665E-03    3.59       3.1  T
   6    -33.3660259 -0.251369E-06  0.304E-03    3.59       6.9  T
   7    -33.3660260 -0.920752E-07  0.878E-04    3.59      23.7  T
   8    -33.3660260 -0.445992E-08  0.401E-04    3.59      52.0  T
     SCC iter.                  ...        0 min,  0.014 sec
     gradient                   ...        0 min,  0.002 sec
 * total energy  :   -32.8586731 Eh     change       -0.1668738E-03 Eh
   gradient norm :     0.0039348 Eh/α   predicted    -0.1364958E-03 ( -18.20%)
   displ. norm   :     0.1227032 α      lambda       -0.7472008E-04
   maximum displ.:     0.0693859 α      in ANC's #4, #6, #3, ...

........................................................................
.............................. CYCLE    9 ..............................
........................................................................
   1    -33.3668807 -0.333669E+02  0.651E-02    3.59       0.0  T
   2    -33.3668815 -0.817983E-06  0.386E-02    3.59       1.0  T
   3    -33.3668779  0.360057E-05  0.168E-02    3.59       1.2  T
   4    -33.3668825 -0.457054E-05  0.439E-03    3.59       4.8  T
   5    -33.3668826 -0.732654E-07  0.312E-03    3.59       6.7  T
   6    -33.3668826 -0.589597E-07  0.137E-03    3.59      15.2  T
   7    -33.3668826 -0.171805E-07  0.461E-04    3.59      45.2  T
   8    -33.3668826 -0.145691E-08  0.195E-04    3.59     107.0  T
     SCC iter.                  ...        0 min,  0.014 sec
     gradient                   ...        0 min,  0.002 sec
 * total energy  :   -32.8587259 Eh     change       -0.5282326E-04 Eh
   gradient norm :     0.0028436 Eh/α   predicted    -0.3793017E-04 ( -28.19%)
   displ. norm   :     0.1533429 α      lambda       -0.7295241E-04
   maximum displ.:     0.0928694 α      in ANC's #6, #4, #9, ...

........................................................................
.............................. CYCLE   10 ..............................
........................................................................
   1    -33.3673255 -0.333673E+02  0.883E-02    3.58       0.0  T
   2    -33.3673262 -0.720848E-06  0.523E-02    3.58       1.0  T
   3    -33.3673226  0.358450E-05  0.160E-02    3.58       1.3  T
   4    -33.3673271 -0.450601E-05  0.445E-03    3.58       4.7  T
   5    -33.3673272 -0.910170E-07  0.269E-03    3.58       7.8  T
   6    -33.3673273 -0.515623E-07  0.104E-03    3.58      20.1  T
   7    -33.3673273 -0.534025E-08  0.522E-04    3.58      39.9  T
   8    -33.3673273 -0.176060E-08  0.148E-04    3.58     140.7  T
     SCC iter.                  ...        0 min,  0.014 sec
     gradient                   ...        0 min,  0.002 sec
 * total energy  :   -32.8587704 Eh     change       -0.4450797E-04 Eh
   gradient norm :     0.0028881 Eh/α   predicted    -0.3733477E-04 ( -16.12%)
   displ. norm   :     0.1113269 α      lambda       -0.6861756E-04
   maximum displ.:     0.0782842 α      in ANC's #6, #4, #1, ...

........................................................................
.............................. CYCLE   11 ..............................
........................................................................
   1    -33.3683583 -0.333684E+02  0.690E-02    3.58       0.0  T
   2    -33.3683586 -0.343941E-06  0.404E-02    3.58       1.0  T
   3    -33.3683573  0.135984E-05  0.937E-03    3.58       2.2  T
   4    -33.3683589 -0.162092E-05  0.165E-03    3.58      12.6  T
   5    -33.3683589 -0.848926E-08  0.118E-03    3.58      17.7  T
   6    -33.3683589 -0.614933E-08  0.681E-04    3.58      30.6  T
   7    -33.3683589 -0.313367E-08  0.397E-04    3.58      52.6  T
     SCC iter.                  ...        0 min,  0.013 sec
     gradient                   ...        0 min,  0.002 sec
 * total energy  :   -32.8588195 Eh     change       -0.4914528E-04 Eh
   gradient norm :     0.0029288 Eh/α   predicted    -0.3475194E-04 ( -29.29%)
   displ. norm   :     0.1942155 α      lambda       -0.9377908E-04
   maximum displ.:     0.1332561 α      in ANC's #6, #7, #1, ...

........................................................................
.............................. CYCLE   12 ..............................
........................................................................
   1    -33.3678690 -0.333679E+02  0.118E-01    3.56       0.0  T
   2    -33.3678699 -0.888470E-06  0.695E-02    3.56       1.0  T
   3    -33.3678675  0.239995E-05  0.126E-02    3.56       1.7  T
   4    -33.3678705 -0.299728E-05  0.295E-03    3.56       7.1  T
   5    -33.3678706 -0.296167E-07  0.207E-03    3.56      10.1  T
   6    -33.3678706 -0.188841E-07  0.128E-03    3.56      16.3  T
   7    -33.3678706 -0.123053E-07  0.657E-04    3.56      31.8  T
   8    -33.3678706 -0.257702E-08  0.282E-04    3.56      74.0  T
     SCC iter.                  ...        0 min,  0.014 sec
     gradient                   ...        0 min,  0.002 sec
 * total energy  :   -32.8588904 Eh     change       -0.7086025E-04 Eh
   gradient norm :     0.0039935 Eh/α   predicted    -0.4865835E-04 ( -31.33%)
   displ. norm   :     0.2530316 α      lambda       -0.1274055E-03
   maximum displ.:     0.1571286 α      in ANC's #6, #1, #7, ...

........................................................................
.............................. CYCLE   13 ..............................
........................................................................
   1    -33.3680977 -0.333681E+02  0.133E-01    3.55       0.0  T
   2    -33.3680991 -0.138070E-05  0.783E-02    3.55       1.0  T
   3    -33.3680993 -0.226642E-06  0.778E-03    3.55       2.7  T
   4    -33.3681000 -0.646968E-06  0.534E-03    3.55       3.9  T
   5    -33.3681001 -0.104722E-06  0.376E-03    3.55       5.5  T
   6    -33.3681002 -0.936317E-07  0.194E-03    3.55      10.8  T
   7    -33.3681002 -0.291130E-07  0.936E-04    3.55      22.3  T
   8    -33.3681002 -0.470939E-08  0.264E-04    3.55      78.9  T
     SCC iter.                  ...        0 min,  0.014 sec
     gradient                   ...        0 min,  0.002 sec
 * total energy  :   -32.8589499 Eh     change       -0.5947903E-04 Eh
   gradient norm :     0.0044605 Eh/α   predicted    -0.6778234E-04 (  13.96%)
   displ. norm   :     0.1678230 α      lambda       -0.6701142E-04
   maximum displ.:     0.1050176 α      in ANC's #6, #7, #4, ...

........................................................................
.............................. CYCLE   14 ..............................
........................................................................
   1    -33.3657383 -0.333657E+02  0.108E-01    3.53       0.0  T
   2    -33.3657390 -0.690844E-06  0.634E-02    3.53       1.0  T
   3    -33.3657337  0.521329E-05  0.182E-02    3.53       1.1  T
   4    -33.3657398 -0.603083E-05  0.246E-03    3.53       8.5  T
   5    -33.3657398 -0.150596E-07  0.180E-03    3.53      11.6  T
   6    -33.3657398 -0.161417E-07  0.941E-04    3.53      22.2  T
   7    -33.3657398 -0.543279E-08  0.601E-04    3.53      34.7  T
     SCC iter.                  ...        0 min,  0.013 sec
     gradient                   ...        0 min,  0.002 sec
 * total energy  :   -32.8589628 Eh     change       -0.1297560E-04 Eh
   gradient norm :     0.0040165 Eh/α   predicted    -0.3446692E-04 ( 165.63%)
   displ. norm   :     0.1066684 α      lambda       -0.4960891E-04
   maximum displ.:     0.0780670 α      in ANC's #6, #4, #7, ...

........................................................................
.............................. CYCLE   15 ..............................
........................................................................
   1    -33.3677123 -0.333677E+02  0.656E-02    3.55       0.0  T
   2    -33.3677127 -0.350263E-06  0.386E-02    3.55       1.0  T
   3    -33.3677120  0.727171E-06  0.722E-03    3.55       2.9  T
   4    -33.3677129 -0.934810E-06  0.193E-03    3.55      10.8  T
   5    -33.3677129 -0.144263E-07  0.137E-03    3.55      15.3  T
   6    -33.3677129 -0.913827E-08  0.750E-04    3.55      27.8  T
   7    -33.3677129 -0.362164E-08  0.378E-04    3.55      55.1  T
     SCC iter.                  ...        0 min,  0.012 sec
     gradient                   ...        0 min,  0.002 sec
 * total energy  :   -32.8589835 Eh     change       -0.2069327E-04 Eh
   gradient norm :     0.0029750 Eh/α   predicted    -0.2508907E-04 (  21.24%)
   displ. norm   :     0.0330955 α      lambda       -0.1732339E-04
   maximum displ.:     0.0214123 α      in ANC's #4, #6, #7, ...

........................................................................
.............................. CYCLE   16 ..............................
........................................................................
   1    -33.3675322 -0.333675E+02  0.186E-02    3.54       0.0  T
   2    -33.3675323 -0.101778E-06  0.110E-02    3.54       1.9  T
   3    -33.3675323 -0.395440E-08  0.192E-03    3.54      10.9  T
   4    -33.3675323 -0.320402E-07  0.129E-03    3.54      16.2  T
   5    -33.3675323 -0.839875E-08  0.924E-04    3.54      22.6  T
   6    -33.3675323 -0.462386E-08  0.498E-04    3.54      41.9  T
     SCC iter.                  ...        0 min,  0.011 sec
     gradient                   ...        0 min,  0.002 sec
 * total energy  :   -32.8589900 Eh     change       -0.6492310E-05 Eh
   gradient norm :     0.0014509 Eh/α   predicted    -0.8672443E-05 (  33.58%)
   displ. norm   :     0.0511630 α      lambda       -0.5996028E-05
   maximum displ.:     0.0279400 α      in ANC's #7, #6, #4, ...

........................................................................
.............................. CYCLE   17 ..............................
........................................................................
   1    -33.3672992 -0.333673E+02  0.332E-02    3.54       0.0  T
   2    -33.3672993 -0.593473E-07  0.196E-02    3.54       1.1  T
   3    -33.3672988  0.466885E-06  0.539E-03    3.54       3.9  T
   4    -33.3672993 -0.536182E-06  0.607E-04    3.54      34.4  T
   5    -33.3672993 -0.800917E-09  0.411E-04    3.54      50.7  T
     SCC iter.                  ...        0 min,  0.009 sec
     gradient                   ...        0 min,  0.002 sec
 * total energy  :   -32.8589944 Eh     change       -0.4337423E-05 Eh
   gradient norm :     0.0010294 Eh/α   predicted    -0.3004448E-05 ( -30.73%)
   displ. norm   :     0.0202249 α      lambda       -0.1835825E-05
   maximum displ.:     0.0127955 α      in ANC's #4, #7, #40, ...

........................................................................
.............................. CYCLE   18 ..............................
........................................................................
   1    -33.3673621 -0.333674E+02  0.131E-02    3.54       0.0  T
   2    -33.3673621 -0.156601E-07  0.768E-03    3.54       2.7  T
   3    -33.3673621  0.525500E-07  0.196E-03    3.54      10.7  T
   4    -33.3673621 -0.647010E-07  0.451E-04    3.54      46.3  T
   5    -33.3673621 -0.579192E-09  0.336E-04    3.54      62.1  T
     SCC iter.                  ...        0 min,  0.009 sec
     gradient                   ...        0 min,  0.002 sec
 * total energy  :   -32.8589959 Eh     change       -0.1497311E-05 Eh
   gradient norm :     0.0006309 Eh/α   predicted    -0.9198255E-06 ( -38.57%)
   displ. norm   :     0.0261330 α      lambda       -0.1441813E-05
   maximum displ.:     0.0173334 α      in ANC's #4, #7, #5, ...

   *** GEOMETRY OPTIMIZATION CONVERGED AFTER 18 ITERATIONS ***

------------------------------------------------------------------------
 total energy gain   :        -0.0085982 Eh       -5.3954 kcal/mol
 total RMSD          :         0.4718004 a0        0.2497 Å
 total power (kW/mol):        -1.2541421 (step)  -70.0322 (real)
------------------------------------------------------------------------

 ANCopt (total)                0 d,  0 h,  0 min,  0.322 sec
 optimizer setup                ...        0 min,  0.000 sec (  0.033%)
 model hessian                  ...        0 min,  0.004 sec (  1.115%)
 ANC generation                 ...        0 min,  0.001 sec (  0.395%)
 coordinate transformation      ...        0 min,  0.000 sec (  0.103%)
 single point calculation       ...        0 min,  0.311 sec ( 96.548%)
 optimization log               ...        0 min,  0.001 sec (  0.459%)
 hessian update                 ...        0 min,  0.001 sec (  0.190%)
 rational function              ...        0 min,  0.002 sec (  0.629%)

================
 final structure:
================
23
 xtb: 6.5.1 (fef0646)
N            1.66436250860498        1.17350578159623        0.39412221179340
C            2.60890049811415        0.13221363745870       -0.06992773077088
C            3.09775073225771       -0.66967822722485        1.09252926718507
C            4.36200509153572       -1.05277532861698        1.25185494818422
C            4.89280355078301       -1.86150561555262        2.34077611751735
C            6.21280172188137       -2.31116213481443        2.26564715078700
C            6.76098051534673       -3.08360234295901        3.27162381739171
C            6.00243829904019       -3.41856162838467        4.38105118332054
C            4.69287363241945       -2.97380846985736        4.47364384728121
C            4.14194790557379       -2.20505780721621        3.46663877324109
Cl          -0.52343624188525       -0.10294123181781        2.11085655868013
H            1.23611298648758        1.67072571910352       -0.38969563810011
H            2.13466700217159        1.83874907968497        1.01293412193381
H            0.89328270039056        0.72923844812041        0.95708668983750
H            3.44132804634979        0.59479574466539       -0.60206061529270
H            2.07259148739694       -0.53243376743839       -0.75163175281852
H            2.32268821413388       -0.94391747963721        1.79429759153992
H            5.09442368916631       -0.76878759489228        0.50627388549009
H            6.81185836932950       -2.05484952511991        1.40379007647515
H            7.78252119436485       -3.42557755060925        3.19381580468324
H            6.42736527842778       -4.02068522848182        5.17028560771446
H            4.09731532936774       -3.22881654967452        5.33855621417678
H            3.12147748874122       -1.86589792833180        3.56065186974900

 Bond Distances (Angstroems)
 ---------------------------
N1-C2=1.4805         N1-H12=1.0223        N1-H13=1.0231        N1-H14=1.0530        C2-N1=1.4805         C2-C3=1.4944         
C2-H15=1.0909        C2-H16=1.0928        C3-C2=1.4944         C3-C4=1.3306         C3-H17=1.0809        C4-C3=1.3306         
C4-C5=1.4566         C4-H18=1.0830        C5-C4=1.4566         C5-C6=1.3965         C5-C10=1.3962        C6-C5=1.3965         
C6-C7=1.3817         C6-H19=1.0804        C7-C6=1.3817         C7-C8=1.3851         C7-H20=1.0801        C8-C7=1.3851         
C8-C9=1.3861         C8-H21=1.0798        C9-C8=1.3861         C9-C10=1.3815        C9-H22=1.0806        C10-C5=1.3962        
C10-C9=1.3815        C10-H23=1.0795       H12-N1=1.0223        H13-N1=1.0231        H14-N1=1.0530        H15-C2=1.0909        
H16-C2=1.0928        H17-C3=1.0809        H18-C4=1.0830        H19-C6=1.0804        H20-C7=1.0801        H21-C8=1.0798        
H22-C9=1.0806        H23-C10=1.0795       
 C  H  Rav=1.0831 sigma=0.0048  Rmin=1.0795  Rmax=1.0928     9
 C  C  Rav=1.4010 sigma=0.0448  Rmin=1.3306  Rmax=1.4944     9
 N  H  Rav=1.0328 sigma=0.0143  Rmin=1.0223  Rmax=1.0530     3
 N  C  Rav=1.4805 sigma=0.0000  Rmin=1.4805  Rmax=1.4805     1

 selected bond angles (degree)
 --------------------
H12-N1-C2=111.66               H13-N1-C2=110.71               H13-N1-H12=109.88              H14-N1-C2=109.76               
H14-N1-H12=107.96              H14-N1-H13=106.71              C3-C2-N1=110.02                H15-C2-N1=109.97               
H15-C2-C3=110.94               H16-C2-N1=108.07               H16-C2-C3=108.63               H16-C2-H15=109.15              
C4-C3-C2=123.95                H17-C3-C2=113.99               H17-C3-C4=122.04               C5-C4-C3=126.56                
H18-C4-C3=118.99               H18-C4-C5=114.44               C6-C5-C4=118.88                C10-C5-C4=122.92               
C10-C5-C6=118.20               C7-C6-C5=121.05                H19-C6-C5=119.38               H19-C6-C7=119.57               
C8-C7-C6=120.07                H20-C7-C6=119.99               H20-C7-C8=119.94               C9-C8-C7=119.56                
H21-C8-C7=120.32               H21-C8-C9=120.12               C10-C9-C8=120.44               H22-C9-C8=119.90               
H22-C9-C10=119.67              C9-C10-C5=120.68               H23-C10-C5=120.09              H23-C10-C9=119.23              

 selected dihedral angles (degree)
 ---------------------------------
C3-C2-N1-H12=186.21           C3-C2-N1-H13= 63.44           C3-C2-N1-H14=305.89           H15-C2-N1-H12= 63.73          
H15-C2-N1-H13=300.96          H15-C2-N1-H14=183.41          H16-C2-N1-H12=304.67          H16-C2-N1-H13=181.89          
H16-C2-N1-H14= 64.35          C4-C3-C2-N1=221.91            C4-C3-C2-H15=343.82           C4-C3-C2-H16=103.80           
H17-C3-C2-N1= 43.60           H17-C3-C2-H15=165.50          H17-C3-C2-H16=285.48          C5-C4-C3-C2=181.69            
C5-C4-C3-H17=359.88           H18-C4-C3-C2=  0.43           H18-C4-C3-H17=178.61          C6-C5-C4-C3=172.09            
C6-C5-C4-H18=353.31           C10-C5-C4-C3=351.75           C10-C5-C4-H18=172.97          C7-C6-C5-C4=180.15            
C7-C6-C5-C10=  0.48           H19-C6-C5-C4=359.80           H19-C6-C5-C10=180.12          C8-C7-C6-C5=359.65            
C8-C7-C6-H19=180.01           H20-C7-C6-C5=179.74           H20-C7-C6-H19=  0.10          C9-C8-C7-C6=  0.00            
C9-C8-C7-H20=179.91           H21-C8-C7-C6=180.10           H21-C8-C7-H20=  0.00          C10-C9-C8-C7=  0.22           
C10-C9-C8-H21=180.11          H22-C9-C8-C7=180.23           H22-C9-C8-H21=  0.13          C9-C10-C5-C4=180.08           
C9-C10-C5-C6=359.74           H23-C10-C5-C4=359.75          H23-C10-C5-C6=179.42          C5-C10-C9-C8=359.92           
C5-C10-C9-H22=179.91          H23-C10-C9-C8=180.24          H23-C10-C9-H22=  0.23         

 CMA Distance (Angstroems)
 ---------------------------
R(CMA):  5.0722
           -------------------------------------------------
          |                Final Singlepoint                |
           -------------------------------------------------

          ...................................................
          :                      SETUP                      :
          :.................................................:
          :  # basis functions                  62          :
          :  # atomic orbitals                  61          :
          :  # shells                           35          :
          :  # electrons                        60          :
          :  max. iterations                   250          :
          :  Hamiltonian                  GFN2-xTB          :
          :  restarted?                      false          :
          :  GBSA solvation                   true          :
          :  PC potential                    false          :
          :  electronic temp.          300.0000000     K    :
          :  accuracy                    1.0000000          :
          :  -> integral cutoff          0.2500000E+02      :
          :  -> integral neglect         0.1000000E-07      :
          :  -> SCF convergence          0.1000000E-05 Eh   :
          :  -> wf. convergence          0.1000000E-03 e    :
          :  Broyden damping             0.4000000          :
          ...................................................

 iter      E             dE          RMSdq      gap      omega  full diag
   1    -33.3673621 -0.333674E+02  0.185E-04    3.54       0.0  T
   2    -33.3673621 -0.135934E-09  0.146E-04    3.54     142.4  T
   3    -33.3673621 -0.718643E-10  0.119E-04    3.54     175.5  T

   *** convergence criteria satisfied after 3 iterations ***

         #    Occupation            Energy/Eh            Energy/eV
      -------------------------------------------------------------
         1        2.0000           -1.0072663             -27.4091
       ...           ...                  ...                  ...
        24        2.0000           -0.4197787             -11.4228
        25        2.0000           -0.4136577             -11.2562
        26        2.0000           -0.4036345             -10.9835
        27        2.0000           -0.4010423             -10.9129
        28        2.0000           -0.4005993             -10.9009
        29        2.0000           -0.3999478             -10.8831
        30        2.0000           -0.3782127             -10.2917 (HOMO)
        31                         -0.2481087              -6.7514 (LUMO)
        32                         -0.2175612              -5.9201
        33                         -0.1703659              -4.6359
        34                         -0.0742676              -2.0209
        35                         -0.0176578              -0.4805
       ...                                ...                  ...
        61                          0.6930974              18.8601
      -------------------------------------------------------------
                  HL-Gap            0.1301039 Eh            3.5403 eV
             Fermi-level           -0.3131607 Eh           -8.5215 eV

 SCC (total)                   0 d,  0 h,  0 min,  0.008 sec
 SCC setup                      ...        0 min,  0.000 sec (  2.181%)
 Dispersion                     ...        0 min,  0.000 sec (  2.149%)
 classical contributions        ...        0 min,  0.000 sec (  0.433%)
 integral evaluation            ...        0 min,  0.001 sec (  9.557%)
 iterations                     ...        0 min,  0.005 sec ( 62.975%)
 molecular gradient             ...        0 min,  0.002 sec ( 19.939%)
 printout                       ...        0 min,  0.000 sec (  1.157%)

         :::::::::::::::::::::::::::::::::::::::::::::::::::::
         ::                     SUMMARY                     ::
         :::::::::::::::::::::::::::::::::::::::::::::::::::::
         :: total energy             -32.858995866673 Eh    ::
         :: total w/o Gsasa/hb       -32.849923014036 Eh    ::
         :: gradient norm              0.000631332332 Eh/a0 ::
         :: HOMO-LUMO gap              3.540308017764 eV    ::
         ::.................................................::
         :: SCC energy               -33.367362125532 Eh    ::
         :: -> isotropic ES            0.121207811910 Eh    ::
         :: -> anisotropic ES         -0.029105865077 Eh    ::
         :: -> anisotropic XC          0.010635149066 Eh    ::
         :: -> dispersion             -0.017838292973 Eh    ::
         :: -> Gsolv                  -0.075214732298 Eh    ::
         ::    -> Gelec               -0.066141879661 Eh    ::
         ::    -> Gsasa               -0.002006116100 Eh    ::
         ::    -> Ghb                 -0.008147496235 Eh    ::
         ::    -> Gshift               0.001080759698 Eh    ::
         :: repulsion energy           0.508411745657 Eh    ::
         :: add. restraining           0.000000000000 Eh    ::
         :: total charge              -0.000000000000 e     ::
         :::::::::::::::::::::::::::::::::::::::::::::::::::::

           -------------------------------------------------
          |                Property Printout                |
           -------------------------------------------------

    * Orbital Energies and Occupations

         #    Occupation            Energy/Eh            Energy/eV
      -------------------------------------------------------------
         1        2.0000           -1.0072663             -27.4091
       ...           ...                  ...                  ...
        18        2.0000           -0.4771289             -12.9833
        19        2.0000           -0.4736182             -12.8878
        20        2.0000           -0.4682575             -12.7419
        21        2.0000           -0.4624403             -12.5836
        22        2.0000           -0.4380931             -11.9211
        23        2.0000           -0.4283179             -11.6551
        24        2.0000           -0.4197787             -11.4228
        25        2.0000           -0.4136577             -11.2562
        26        2.0000           -0.4036345             -10.9835
        27        2.0000           -0.4010423             -10.9129
        28        2.0000           -0.4005993             -10.9009
        29        2.0000           -0.3999478             -10.8831
        30        2.0000           -0.3782127             -10.2917 (HOMO)
        31                         -0.2481087              -6.7514 (LUMO)
        32                         -0.2175612              -5.9201
        33                         -0.1703659              -4.6359
        34                         -0.0742676              -2.0209
        35                         -0.0176578              -0.4805
        36                          0.0754242               2.0524
        37                          0.0928216               2.5258
        38                          0.1027203               2.7952
        39                          0.1144097               3.1132
        40                          0.1166433               3.1740
        41                          0.1180047               3.2111
       ...                                ...                  ...
        61                          0.6930974              18.8601
      -------------------------------------------------------------
                  HL-Gap            0.1301039 Eh            3.5403 eV
             Fermi-level           -0.3131607 Eh           -8.5215 eV

     #   Z          covCN         q      C6AA      α(0)
     1   7 N        3.484    -0.170    24.665     7.376
     2   6 C        3.736    -0.027    21.147     6.563
     3   6 C        2.891    -0.043    29.078     8.841
     4   6 C        2.900    -0.048    29.182     8.857
     5   6 C        2.971     0.013    27.713     8.635
     6   6 C        2.928    -0.041    29.011     8.833
     7   6 C        2.917    -0.036    28.897     8.815
     8   6 C        2.920    -0.036    28.906     8.817
     9   6 C        2.918    -0.034    28.856     8.809
    10   6 C        2.923    -0.037    28.923     8.819
    11  17 Cl       0.048    -0.948   124.891    17.008
    12   1 H        0.859     0.305     0.697     1.308
    13   1 H        0.859     0.300     0.714     1.324
    14   1 H        0.904     0.295     0.725     1.332
    15   1 H        0.924     0.113     1.669     2.020
    16   1 H        0.924     0.114     1.667     2.019
    17   1 H        0.926     0.057     2.236     2.338
    18   1 H        0.925     0.057     2.232     2.336
    19   1 H        0.926     0.044     2.400     2.422
    20   1 H        0.926     0.035     2.518     2.482
    21   1 H        0.926     0.030     2.588     2.516
    22   1 H        0.926     0.025     2.660     2.551
    23   1 H        0.926     0.033     2.546     2.495

 Mol. C6AA /au·bohr⁶  :       6352.109114
 Mol. C8AA /au·bohr⁸  :     165484.623601
 Mol. α(0) /au        :        126.516513


Wiberg/Mayer (AO) data.
largest (>0.10) Wiberg bond orders for each atom

 ---------------------------------------------------------------------------
     #   Z sym  total        # sym  WBO       # sym  WBO       # sym  WBO
 ---------------------------------------------------------------------------
     1   7 N    3.642 --     2 C    0.964    13 H    0.896    12 H    0.893
                            14 H    0.832
     2   6 C    3.932 --     3 C    1.029     1 N    0.964    15 H    0.961
                            16 H    0.947
     3   6 C    3.988 --     4 C    1.851     2 C    1.029    17 H    0.956
     4   6 C    3.989 --     3 C    1.851     5 C    1.094    18 H    0.959
     5   6 C    3.989 --     6 C    1.376    10 C    1.372     4 C    1.094
                             8 C    0.101
     6   6 C    3.988 --     7 C    1.456     5 C    1.376    19 H    0.968
                             9 C    0.105
     7   6 C    3.992 --     6 C    1.456     8 C    1.433    20 H    0.971
                            10 C    0.106
     8   6 C    3.990 --     7 C    1.433     9 C    1.428    21 H    0.972
                             5 C    0.101
     9   6 C    3.993 --    10 C    1.462     8 C    1.428    22 H    0.971
                             6 C    0.105
    10   6 C    3.992 --     9 C    1.462     5 C    1.372    23 H    0.966
                             7 C    0.106
    11  17 Cl   0.102
    12   1 H    0.906 --     1 N    0.893
    13   1 H    0.910 --     1 N    0.896
    14   1 H    0.913 --     1 N    0.832
    15   1 H    0.987 --     2 C    0.961
    16   1 H    0.984 --     2 C    0.947
    17   1 H    0.997 --     3 C    0.956
    18   1 H    0.996 --     4 C    0.959
    19   1 H    0.998 --     6 C    0.968
    20   1 H    0.998 --     7 C    0.971
    21   1 H    0.999 --     8 C    0.972
    22   1 H    0.999 --     9 C    0.971
    23   1 H    0.999 --    10 C    0.966
 ---------------------------------------------------------------------------

Topologies differ in total number of bonds
Writing topology from bond orders to xtbtopo.mol

molecular dipole:
                 x           y           z       tot (Debye)
 q only:        4.024       2.225      -3.349
   full:        3.364       1.989      -2.833      12.268
molecular quadrupole (traceless):
                xx          xy          yy          xz          yz          zz
 q only:       16.887       8.683       5.821       5.442       3.767     -22.708
  q+dip:       16.208       8.020       1.906       2.017      -1.438     -18.113
   full:       14.587       8.777       4.014       2.760       0.562     -18.601

           -------------------------------------------------
          |                Geometry Summary                 |
           -------------------------------------------------

      molecular mass/u    :      169.6515529
   center of mass at/Å    :        3.3261150      -1.2309347       2.1906453
  moments of inertia/u·Å² :        0.3128021E+03   0.1430058E+04   0.1719460E+04
rotational constants/cm⁻¹ :        0.5389232E-01   0.1178808E-01   0.9804027E-02

 * 20 selected distances

     #   Z          #   Z                                           value/Å
     1   7 N        2   6 C                                       1.4804675 (max)
     3   6 C        4   6 C                                       1.3305967
     5   6 C        6   6 C                                       1.3965067
     6   6 C        7   6 C                                       1.3817211
     7   6 C        8   6 C                                       1.3850680
     8   6 C        9   6 C                                       1.3861236
     5   6 C       10   6 C                                       1.3962018
     9   6 C       10   6 C                                       1.3815051
     1   7 N       12   1 H                                       1.0222504 (min)
     1   7 N       13   1 H                                       1.0230657
     1   7 N       14   1 H                                       1.0530274
     2   6 C       15   1 H                                       1.0909095
     2   6 C       16   1 H                                       1.0927507
     3   6 C       17   1 H                                       1.0809293
     4   6 C       18   1 H                                       1.0830408
     6   6 C       19   1 H                                       1.0804457
     7   6 C       20   1 H                                       1.0800679
     8   6 C       21   1 H                                       1.0798180
     9   6 C       22   1 H                                       1.0806445
    10   6 C       23   1 H                                       1.0794573

 * 4 distinct bonds (by element types)

   Z      Z             #   av. dist./Å        max./Å        min./Å
   1 H    6 C           9     1.0831182     1.0927507     1.0794573
   6 C    6 C           7     1.3796747     1.3965067     1.3305967
   1 H    7 N           3     1.0327812     1.0530274     1.0222504
   6 C    7 N           1     1.4804675     1.4804675     1.4804675


optimized geometry written to: xtbopt.xyz


           -------------------------------------------------
          | TOTAL ENERGY              -32.858995866673 Eh   |
          | GRADIENT NORM               0.000631332332 Eh/α |
          | HOMO-LUMO GAP               3.540308017764 eV   |
           -------------------------------------------------

------------------------------------------------------------------------
 * finished run on 2023/01/24 at 15:07:43.777     
------------------------------------------------------------------------
 total:
 * wall-time:     0 d,  0 h,  0 min,  0.428 sec
 *  cpu-time:     0 d,  0 h,  0 min, 40.269 sec
 * ratio c/w:    94.158 speedup
 SCF:
 * wall-time:     0 d,  0 h,  0 min,  0.037 sec
 *  cpu-time:     0 d,  0 h,  0 min,  5.157 sec
 * ratio c/w:   139.881 speedup
 ANC optimizer:
 * wall-time:     0 d,  0 h,  0 min,  0.332 sec
 *  cpu-time:     0 d,  0 h,  0 min, 27.346 sec
 * ratio c/w:    82.429 speedup

