23
 energy: -32.815776500905 gnorm: 0.000495833458 xtb: 6.5.1 (fef0646)
N            2.04724854479639       -0.92352357561822       -0.80224182050754
C            2.68243851185099        0.20113779318680       -0.10665038669988
C            3.12434774270582       -0.23775199123512        1.25322853763106
C            4.34834595696292       -0.04265097917049        1.73704649933485
C            4.83631986548118       -0.43566434899452        3.05210119588621
C            4.06588130361840       -1.16092610997573        3.96280363024545
C            4.57691060661336       -1.50888577582331        5.19783511796989
C            5.86530933432686       -1.14271792586752        5.55319126581655
C            6.64281544701375       -0.42528627204655        4.65981698300298
C            6.13371467066815       -0.07756783034731        3.42336921894675
Cl          -0.17377483801217       -1.95588879746815        0.81802988864381
H            1.68386612201981       -0.64154152102681       -1.70591952824521
H            0.86570965383749       -1.46809090305205        0.06613331757413
H            2.70880797309333       -1.68169778529215       -0.93395460864094
H            1.92267758590126        0.98326616304060       -0.00413337487702
H            3.53068005102743        0.61582317031386       -0.66929600211526
H            2.35809039303079       -0.73831969001849        1.82377161944951
H            5.07798434957434        0.47144494083628        1.12031457909177
H            3.06213839103416       -1.45797632690704        3.70289057280912
H            3.96670490535187       -2.07038455495454        5.89025552852324
H            6.26063888999382       -1.41606559162253        6.52030373683180
H            7.64881251082405       -0.13671172406843        4.92825477879393
H            6.74671202828566        0.48304963611086        2.73108925053461
