 Entering Gaussian System
 *********************************************
 Gaussian 98:
 frequency output generated by the xtb code
 *********************************************
                         Standard orientation:
 --------------------------------------------------------------------
  Center     Atomic     Atomic              Coordinates (Angstroms)
  Number     Number      Type              X           Y           Z
 --------------------------------------------------------------------
    1          7             0       -4.129505   -0.578409   -0.368465
    2          6             0       -3.216777    0.476817    0.160670
    3          6             0       -1.737470    0.249729   -0.195614
    4          6             0       -1.143894   -0.999313    0.502806
    5          6             0        0.331334   -1.217042    0.123521
    6          6             0        1.194112    0.027264    0.421156
    7          6             0        2.624329   -0.194504   -0.015279
    8          8             0        3.437135    0.877352   -0.006474
    9          8             0        2.986462   -1.299056   -0.346738
   10          6             0        0.604006    1.278757   -0.260294
   11          6             0       -0.869812    1.494575    0.124880
   12          1             0       -5.116083   -0.366894   -0.153612
   13          1             0       -3.923678   -1.503370    0.036246
   14          1             0       -4.050669   -0.660921   -1.392905
   15          1             0       -3.323753    0.543640    1.248751
   16          1             0       -3.540284    1.449228   -0.229050
   17          1             0       -1.679624    0.078067   -1.281434
   18          1             0       -1.736019   -1.890291    0.263409
   19          1             0       -1.228979   -0.874101    1.587576
   20          1             0        0.419439   -1.452404   -0.943559
   21          1             0        0.756631   -2.089263    0.638661
   22          1             0        1.208476    0.193016    1.508606
   23          1             0        4.324153    0.593017   -0.286066
   24          1             0        0.696031    1.163114   -1.346155
   25          1             0        1.216101    2.156224   -0.011318
   26          1             0       -1.276149    2.380526   -0.378500
   27          1             0       -0.940627    1.710137    1.196420
 --------------------------------------------------------------------
     1 basis functions        1 primitive gaussians
     1 alpha electrons        1 beta electrons

 Harmonic frequencies (cm**-1), IR intensities (km*mol⁻¹),
 Raman scattering activities (A**4/amu), Raman depolarization ratios,
 reduced masses (AMU), force constants (mDyne/A) and normal coordinates:
                      1                      2                      3
                        a                      a                      a 
 Frequencies --    60.7413               100.6330               114.3649
 Red. masses --    11.7740                13.4095                 8.6538
 Frc consts  --     0.0000                 0.0000                 0.0000
 IR Inten    --     4.5800                11.4661                13.5892
 Raman Activ --     0.0000                 0.0000                 0.0000
 Depolar     --     0.0000                 0.0000                 0.0000
 Atom AN      X      Y      Z        X      Y      Z        X      Y      Z
   1   7     0.11  -0.05  -0.34    -0.06  -0.05   0.32     0.22  -0.38   0.27
   2   6    -0.01  -0.03  -0.16     0.02   0.05  -0.03    -0.01   0.11  -0.29
   3   6     0.05  -0.03   0.11    -0.01  -0.03  -0.12     0.03   0.15  -0.11
   4   6    -0.00   0.08   0.34    -0.01   0.01  -0.04    -0.07   0.09  -0.15
   5   6     0.00   0.01   0.40     0.01  -0.01   0.03    -0.06   0.09  -0.09
   6   6     0.05   0.03   0.18    -0.01   0.01  -0.02    -0.02   0.02   0.06
   7   6    -0.05   0.00  -0.12     0.00   0.03   0.03    -0.05  -0.05  -0.01
   8   8     0.04  -0.07  -0.05     0.12  -0.06   0.64     0.02  -0.12  -0.10
   9   8    -0.22   0.06  -0.50    -0.08   0.14  -0.43    -0.15  -0.10   0.02
  10   6     0.01  -0.00   0.13     0.02  -0.07  -0.19     0.04   0.15   0.23
  11   6    -0.00   0.01   0.08     0.01  -0.01  -0.26     0.01   0.11   0.14
  12   1     0.02  -0.01  -0.16    -0.01   0.00   0.11     0.04  -0.09  -0.03
  13   1     0.00  -0.01  -0.06    -0.00   0.01   0.13     0.07  -0.01   0.27
  14   1     0.10  -0.03  -0.08    -0.05  -0.07   0.09     0.12  -0.30   0.09
  15   1    -0.06   0.00  -0.05     0.04   0.08  -0.01    -0.02   0.19  -0.09
  16   1     0.02  -0.01  -0.07    -0.00  -0.01  -0.05    -0.05  -0.04  -0.23
  17   1     0.06  -0.04   0.04    -0.02  -0.04  -0.03     0.05   0.07  -0.03
  18   1    -0.00   0.01   0.14     0.00  -0.00  -0.01    -0.01   0.03  -0.08
  19   1    -0.01   0.08   0.09    -0.01   0.02  -0.01    -0.04   0.00  -0.04
  20   1     0.00  -0.05   0.13     0.01  -0.02   0.01    -0.01   0.05  -0.03
  21   1    -0.00   0.02   0.16    -0.01   0.00   0.03    -0.03   0.01  -0.04
  22   1     0.06   0.04   0.05    -0.02   0.04  -0.01     0.01  -0.04   0.02
  23   1    -0.01  -0.02  -0.07     0.03  -0.01   0.17    -0.00  -0.05  -0.03
  24   1     0.01  -0.01   0.04     0.02  -0.06  -0.05     0.03   0.10   0.06
  25   1     0.00   0.00   0.03     0.00  -0.01  -0.08     0.01   0.03   0.12
  26   1     0.00  -0.01   0.00     0.01  -0.02  -0.11     0.02   0.05   0.07
  27   1    -0.01   0.02   0.02    -0.00   0.03  -0.08    -0.02  -0.01   0.05
                      4                      5                      6
                        a                      a                      a 
 Frequencies --   147.1192               176.3823               202.6811
 Red. masses --     7.8249                 5.3267                10.9778
 Frc consts  --     0.0000                 0.0000                 0.0000
 IR Inten    --     9.7027                 1.2305                 5.8962
 Raman Activ --     0.0000                 0.0000                 0.0000
 Depolar     --     0.0000                 0.0000                 0.0000
 Atom AN      X      Y      Z        X      Y      Z        X      Y      Z
   1   7     0.21  -0.24  -0.10     0.02  -0.05  -0.13    -0.36   0.08   0.06
   2   6    -0.05  -0.14   0.17    -0.08  -0.11   0.18    -0.02  -0.14  -0.02
   3   6    -0.04   0.12   0.05    -0.05   0.01   0.18    -0.04  -0.15  -0.16
   4   6     0.03   0.15   0.04     0.07   0.04   0.10     0.08  -0.11  -0.19
   5   6    -0.03   0.16  -0.08     0.00   0.10  -0.16     0.20   0.16   0.12
   6   6    -0.03   0.16  -0.10    -0.01   0.11  -0.20     0.11   0.23   0.16
   7   6    -0.03  -0.04  -0.00     0.03  -0.00  -0.04     0.07   0.06   0.04
   8   8     0.20  -0.24   0.10     0.20  -0.13   0.14     0.39  -0.16  -0.14
   9   8    -0.24  -0.14   0.06    -0.05  -0.07   0.08    -0.23  -0.04   0.03
  10   6    -0.04   0.15  -0.11    -0.09   0.08  -0.18    -0.02   0.17   0.17
  11   6    -0.04   0.15  -0.03    -0.05   0.05   0.05    -0.14  -0.09  -0.07
  12   1     0.06  -0.28   0.21    -0.04   0.18  -0.43    -0.07   0.11   0.04
  13   1     0.31  -0.12  -0.28    -0.30   0.04   0.23    -0.17   0.00   0.01
  14   1    -0.13   0.19  -0.06     0.36  -0.24   0.01    -0.13   0.01   0.01
  15   1    -0.00  -0.14   0.06    -0.06  -0.08   0.05     0.03  -0.06  -0.00
  16   1    -0.08  -0.03   0.13    -0.02  -0.02   0.08     0.01  -0.02   0.03
  17   1    -0.03   0.03   0.01    -0.03   0.00   0.05    -0.02  -0.03  -0.05
  18   1     0.00   0.04   0.04     0.01   0.01   0.06     0.09  -0.05  -0.12
  19   1     0.04   0.06   0.01     0.07   0.01   0.03    -0.05  -0.07  -0.05
  20   1    -0.03   0.06  -0.03    -0.05   0.05  -0.06     0.12   0.04   0.04
  21   1     0.01   0.04  -0.04     0.03   0.02  -0.08     0.06   0.06   0.06
  22   1    -0.01   0.05  -0.03    -0.01   0.04  -0.06     0.05   0.06   0.05
  23   1     0.04  -0.11   0.05     0.05  -0.07   0.08     0.06  -0.11  -0.07
  24   1    -0.03   0.04  -0.03    -0.07   0.01  -0.06     0.05   0.07   0.05
  25   1    -0.01   0.05  -0.04    -0.02   0.03  -0.08    -0.06   0.08   0.09
  26   1    -0.02   0.04  -0.01    -0.05   0.01   0.03    -0.04  -0.03  -0.03
  27   1     0.00   0.06  -0.01     0.03   0.02   0.02    -0.09  -0.03  -0.02
                      7                      8                      9
                        a                      a                      a 
 Frequencies --   237.1735               250.2261               289.6708
 Red. masses --     8.9834                 6.8185                10.6491
 Frc consts  --     0.0000                 0.0000                 0.0000
 IR Inten    --     7.0058                 0.1734                 4.9696
 Raman Activ --     0.0000                 0.0000                 0.0000
 Depolar     --     0.0000                 0.0000                 0.0000
 Atom AN      X      Y      Z        X      Y      Z        X      Y      Z
   1   7     0.31   0.02   0.00    -0.01  -0.00  -0.01    -0.12  -0.17  -0.04
   2   6     0.17  -0.05   0.30    -0.07   0.10  -0.12    -0.29  -0.07   0.16
   3   6     0.07   0.09  -0.08    -0.03   0.08   0.05    -0.24   0.26  -0.08
   4   6    -0.05  -0.11  -0.32    -0.11  -0.09  -0.16    -0.18   0.24  -0.16
   5   6     0.06  -0.05   0.17     0.05  -0.01   0.23    -0.09   0.01   0.16
   6   6    -0.09   0.04   0.19     0.02   0.11  -0.12     0.15  -0.13   0.11
   7   6    -0.15   0.02   0.10     0.05   0.05  -0.05     0.19  -0.07  -0.02
   8   8    -0.21   0.03  -0.07     0.17  -0.01   0.02     0.15  -0.00  -0.05
   9   8    -0.30   0.02  -0.02     0.04   0.02   0.04     0.41   0.00  -0.09
  10   6     0.05  -0.05  -0.08    -0.16  -0.09  -0.32     0.07  -0.14   0.10
  11   6     0.09   0.08  -0.13     0.04  -0.08   0.40    -0.00   0.12  -0.08
  12   1     0.06   0.04  -0.14    -0.00  -0.05   0.05    -0.05  -0.06  -0.08
  13   1    -0.00   0.01   0.05     0.06   0.01  -0.02    -0.05  -0.04   0.01
  14   1     0.23  -0.02   0.01    -0.06   0.01  -0.01     0.04  -0.05  -0.00
  15   1     0.10  -0.13   0.10    -0.05   0.09  -0.04    -0.05  -0.11   0.05
  16   1     0.01   0.02   0.20    -0.01   0.01  -0.09    -0.16  -0.01   0.13
  17   1    -0.04   0.07  -0.03     0.03   0.09   0.00    -0.11   0.10  -0.03
  18   1     0.01  -0.01  -0.24     0.01  -0.02  -0.17    -0.04   0.07  -0.08
  19   1    -0.12  -0.14  -0.09    -0.13  -0.12  -0.04    -0.10   0.06  -0.05
  20   1     0.12  -0.06   0.07     0.08  -0.12   0.10     0.02  -0.05   0.06
  21   1    -0.01   0.02   0.13    -0.01   0.05   0.18    -0.11  -0.00   0.11
  22   1    -0.05   0.05   0.05     0.02   0.12  -0.05     0.08  -0.04   0.03
  23   1    -0.07   0.02  -0.07     0.04  -0.03   0.04     0.04   0.01  -0.03
  24   1     0.02  -0.08  -0.02    -0.20  -0.12  -0.09     0.03  -0.06   0.03
  25   1     0.03  -0.01  -0.07    -0.01  -0.01  -0.24     0.02  -0.04   0.02
  26   1     0.03   0.01  -0.06    -0.04   0.05   0.29     0.08   0.05  -0.06
  27   1     0.02   0.05  -0.04     0.14  -0.19   0.16    -0.03   0.07  -0.03
                     10                     11                     12
                        a                      a                      a 
 Frequencies --   370.8295               379.2604               430.7829
 Red. masses --     8.8879                 9.1678                 9.4627
 Frc consts  --     0.0000                 0.0000                 0.0000
 IR Inten    --     5.3573                 2.7130                 1.4260
 Raman Activ --     0.0000                 0.0000                 0.0000
 Depolar     --     0.0000                 0.0000                 0.0000
 Atom AN      X      Y      Z        X      Y      Z        X      Y      Z
   1   7     0.13   0.02  -0.04    -0.33  -0.14  -0.01     0.13   0.08   0.05
   2   6    -0.16   0.20   0.01    -0.01  -0.24  -0.09     0.16  -0.01  -0.00
   3   6    -0.16  -0.06   0.18     0.12   0.15  -0.06     0.03   0.06  -0.27
   4   6    -0.06  -0.12   0.03     0.19   0.24  -0.01     0.15   0.24  -0.04
   5   6    -0.04   0.12  -0.21     0.10   0.10  -0.12     0.06  -0.29  -0.06
   6   6     0.03  -0.03   0.32     0.05  -0.01   0.19    -0.10  -0.18   0.01
   7   6     0.07   0.13   0.22    -0.05  -0.04   0.16    -0.02   0.16   0.03
   8   8     0.29   0.03  -0.14    -0.21   0.05  -0.00     0.26  -0.00  -0.06
   9   8    -0.13   0.17  -0.03    -0.21  -0.02  -0.03    -0.11   0.14   0.06
  10   6    -0.00  -0.29  -0.04     0.16  -0.17  -0.13    -0.33  -0.23   0.11
  11   6     0.02  -0.13  -0.07     0.26   0.07   0.14    -0.25   0.04   0.08
  12   1     0.01  -0.09  -0.03    -0.05   0.06   0.04     0.04   0.04  -0.00
  13   1     0.12   0.03  -0.01    -0.17  -0.06  -0.01     0.01   0.02   0.02
  14   1     0.07   0.02  -0.01    -0.15  -0.05  -0.01     0.04   0.01   0.01
  15   1    -0.12   0.13  -0.01     0.02  -0.11  -0.02     0.12  -0.05   0.01
  16   1    -0.01   0.03  -0.08    -0.03  -0.06   0.02     0.02   0.02   0.07
  17   1    -0.07  -0.04   0.05     0.06   0.07  -0.02     0.01   0.04  -0.08
  18   1     0.01  -0.04  -0.03     0.02   0.07   0.08    -0.04   0.07   0.19
  19   1     0.01  -0.10   0.02     0.11   0.13  -0.00     0.14   0.25  -0.02
  20   1    -0.05   0.23  -0.11     0.02   0.12  -0.05     0.04  -0.14  -0.00
  21   1    -0.01  -0.07  -0.23     0.01  -0.02  -0.11    -0.04  -0.07   0.04
  22   1    -0.06  -0.02   0.09    -0.04   0.01   0.05    -0.05  -0.09   0.01
  23   1     0.01  -0.05  -0.16    -0.06   0.06  -0.08     0.03  -0.09  -0.02
  24   1    -0.02  -0.23   0.00    -0.02  -0.18  -0.03    -0.15  -0.10   0.03
  25   1    -0.01  -0.04  -0.14     0.09  -0.04  -0.17    -0.05  -0.08  -0.03
  26   1     0.03  -0.06  -0.07     0.09   0.08   0.13    -0.03   0.05   0.05
  27   1     0.02   0.03  -0.03     0.14  -0.06   0.06    -0.12  -0.05   0.03
                     13                     14                     15
                        a                      a                      a 
 Frequencies --   443.2241               468.5277               523.7001
 Red. masses --     8.0763                10.7634                 9.0644
 Frc consts  --     0.0000                 0.0000                 0.0000
 IR Inten    --     2.0165                10.6176                 9.0869
 Raman Activ --     0.0000                 0.0000                 0.0000
 Depolar     --     0.0000                 0.0000                 0.0000
 Atom AN      X      Y      Z        X      Y      Z        X      Y      Z
   1   7    -0.17  -0.06  -0.04     0.10   0.09   0.00    -0.04  -0.02  -0.03
   2   6    -0.08  -0.01  -0.09    -0.10   0.16   0.02    -0.33   0.19   0.10
   3   6     0.12   0.16   0.36    -0.14  -0.02  -0.02    -0.21   0.02   0.03
   4   6     0.19  -0.15  -0.05     0.30   0.09  -0.10     0.18   0.05  -0.07
   5   6     0.20  -0.27  -0.03     0.33   0.19  -0.00     0.22  -0.23  -0.03
   6   6    -0.06  -0.10  -0.04     0.18   0.10   0.12     0.06  -0.07  -0.17
   7   6    -0.03   0.03  -0.02     0.05  -0.24  -0.06    -0.00   0.12  -0.04
   8   8     0.05  -0.02  -0.01    -0.35  -0.06   0.09     0.00   0.16   0.03
   9   8    -0.03   0.02   0.02     0.11  -0.26  -0.07    -0.35  -0.02   0.10
  10   6    -0.09  -0.03   0.04    -0.24  -0.08   0.04     0.23   0.01   0.01
  11   6    -0.06   0.45  -0.02    -0.27  -0.04   0.00     0.17  -0.19  -0.06
  12   1    -0.03   0.00   0.04     0.00  -0.05  -0.03    -0.05  -0.12  -0.06
  13   1    -0.04  -0.02  -0.02     0.09   0.04   0.01     0.08   0.02  -0.00
  14   1    -0.10  -0.02  -0.01     0.07   0.03   0.00     0.06   0.01  -0.00
  15   1    -0.13   0.08  -0.04    -0.05   0.09   0.00    -0.15   0.09   0.02
  16   1     0.02  -0.03  -0.13    -0.00   0.04  -0.04    -0.08   0.03  -0.03
  17   1     0.07   0.06   0.10    -0.07   0.00  -0.01    -0.14   0.00   0.00
  18   1     0.02   0.02  -0.15     0.13  -0.01   0.00     0.03  -0.01   0.10
  19   1     0.05  -0.20   0.00     0.10   0.04  -0.03     0.14   0.09  -0.02
  20   1     0.09  -0.12   0.01     0.14   0.09  -0.01     0.12  -0.21   0.03
  21   1     0.06  -0.05   0.05     0.08   0.04  -0.02     0.03   0.01   0.14
  22   1    -0.03  -0.05  -0.01     0.11   0.05   0.03    -0.01  -0.04  -0.04
  23   1     0.01  -0.03   0.02    -0.04   0.13   0.03     0.02   0.05   0.07
  24   1    -0.07  -0.04   0.01    -0.12  -0.11   0.02     0.16   0.14  -0.00
  25   1     0.05  -0.05  -0.03    -0.10   0.03  -0.09     0.03  -0.02   0.17
  26   1     0.01   0.02  -0.21    -0.05  -0.02  -0.03     0.06  -0.01   0.06
  27   1    -0.05   0.35  -0.05    -0.11   0.01  -0.01     0.09  -0.12   0.00
                     16                     17                     18
                        a                      a                      a 
 Frequencies --   589.3401               646.7149               715.0718
 Red. masses --     7.7350                 8.0783                 9.2671
 Frc consts  --     0.0000                 0.0000                 0.0000
 IR Inten    --    32.9187                81.9155               135.1449
 Raman Activ --     0.0000                 0.0000                 0.0000
 Depolar     --     0.0000                 0.0000                 0.0000
 Atom AN      X      Y      Z        X      Y      Z        X      Y      Z
   1   7     0.00  -0.00  -0.00     0.02   0.01   0.01     0.01   0.01   0.01
   2   6     0.08  -0.05  -0.02     0.07  -0.04  -0.03     0.02  -0.01  -0.01
   3   6     0.04   0.01  -0.00     0.02   0.01   0.01    -0.00  -0.01  -0.00
   4   6    -0.10   0.01   0.01    -0.12  -0.00   0.04    -0.05  -0.03   0.02
   5   6    -0.07   0.12   0.03    -0.09  -0.03  -0.01    -0.04  -0.10  -0.03
   6   6     0.18  -0.05   0.01     0.17  -0.05  -0.16     0.01  -0.00   0.02
   7   6     0.04   0.13  -0.44     0.34  -0.06   0.05     0.33  -0.19   0.51
   8   8     0.03   0.25  -0.00     0.12   0.31   0.20    -0.00   0.22  -0.27
   9   8    -0.27  -0.14   0.16    -0.26  -0.29   0.02    -0.09  -0.15  -0.25
  10   6    -0.00  -0.23   0.15    -0.07  -0.01   0.00    -0.03   0.13  -0.09
  11   6     0.04  -0.02   0.01    -0.09   0.04   0.02    -0.10   0.06   0.02
  12   1     0.01   0.03   0.02     0.02   0.03   0.02     0.00   0.01   0.00
  13   1    -0.02  -0.01  -0.00    -0.01  -0.00   0.00     0.00   0.00   0.00
  14   1    -0.02  -0.00  -0.00    -0.01  -0.00   0.00     0.00   0.00   0.00
  15   1     0.04  -0.03  -0.00     0.04  -0.02  -0.01     0.01  -0.01  -0.00
  16   1     0.01  -0.01   0.02     0.01  -0.01   0.01     0.00  -0.00   0.00
  17   1     0.03   0.00   0.00     0.04  -0.00   0.00     0.01  -0.00   0.00
  18   1     0.00   0.00  -0.07    -0.03   0.01  -0.04    -0.04   0.00   0.03
  19   1    -0.09  -0.05   0.00    -0.07  -0.03   0.01     0.01   0.01   0.00
  20   1    -0.07   0.11  -0.01    -0.07  -0.04   0.00    -0.01  -0.05  -0.00
  21   1    -0.03  -0.02  -0.08    -0.04  -0.01   0.00    -0.02  -0.02   0.01
  22   1     0.21  -0.06   0.01     0.03  -0.02  -0.04    -0.16   0.03   0.00
  23   1     0.17   0.05   0.52    -0.06   0.39  -0.53     0.18   0.07   0.50
  24   1    -0.05  -0.15   0.04    -0.06   0.03  -0.01    -0.01   0.06  -0.03
  25   1     0.02  -0.05  -0.06    -0.03   0.00   0.01    -0.02   0.04  -0.00
  26   1     0.07  -0.03  -0.09    -0.02  -0.01  -0.04    -0.07   0.02   0.03
  27   1    -0.05   0.07  -0.02    -0.05   0.06  -0.01    -0.01  -0.01   0.01
                     19                     20                     21
                        a                      a                      a 
 Frequencies --   787.3617               815.1983               823.3935
 Red. masses --     6.0949                 4.8469                 4.9004
 Frc consts  --     0.0000                 0.0000                 0.0000
 IR Inten    --    19.0216                 5.3969                28.3674
 Raman Activ --     0.0000                 0.0000                 0.0000
 Depolar     --     0.0000                 0.0000                 0.0000
 Atom AN      X      Y      Z        X      Y      Z        X      Y      Z
   1   7     0.09  -0.04   0.04    -0.01  -0.01   0.03    -0.01   0.06  -0.09
   2   6     0.17  -0.18   0.10    -0.01  -0.02   0.06    -0.01   0.07  -0.15
   3   6     0.00  -0.02   0.25    -0.03  -0.18  -0.04     0.01  -0.02   0.12
   4   6     0.03   0.33  -0.17    -0.17  -0.19  -0.18     0.00   0.09  -0.02
   5   6    -0.10   0.21  -0.06    -0.13  -0.00  -0.17    -0.02   0.23  -0.09
   6   6    -0.01  -0.03  -0.12     0.01   0.15   0.09     0.03   0.03  -0.25
   7   6    -0.00  -0.00   0.11     0.01  -0.01  -0.07    -0.01   0.00   0.18
   8   8    -0.02  -0.02  -0.03     0.00   0.01   0.02    -0.06  -0.06  -0.04
   9   8    -0.01   0.05  -0.02     0.03  -0.04   0.00    -0.02   0.09  -0.03
  10   6    -0.04  -0.16   0.02     0.17   0.21   0.12     0.00  -0.16   0.10
  11   6    -0.01  -0.25  -0.00     0.11   0.04   0.17     0.08  -0.22   0.14
  12   1     0.07   0.17   0.02    -0.02  -0.02  -0.04     0.01  -0.05   0.09
  13   1    -0.22  -0.15  -0.18    -0.02  -0.03  -0.06     0.19   0.17   0.23
  14   1     0.02   0.19  -0.01     0.07   0.08   0.01    -0.16  -0.29  -0.01
  15   1    -0.11   0.26  -0.01    -0.02   0.09   0.01     0.04  -0.29  -0.02
  16   1     0.13  -0.15  -0.30     0.03  -0.03  -0.08    -0.00   0.13   0.25
  17   1    -0.05   0.02   0.06    -0.03   0.05  -0.03     0.09   0.02   0.03
  18   1     0.02   0.10  -0.11    -0.13  -0.10   0.32     0.06  -0.00  -0.03
  19   1    -0.00   0.01  -0.04     0.20   0.23  -0.06     0.02  -0.03   0.00
  20   1     0.05  -0.11   0.03     0.15  -0.19   0.01     0.04  -0.15   0.03
  21   1    -0.14   0.11   0.16    -0.07   0.11   0.17    -0.03   0.16   0.16
  22   1    -0.05  -0.01  -0.03     0.02  -0.04   0.04    -0.05  -0.01  -0.06
  23   1    -0.01  -0.04   0.01     0.00   0.04  -0.02    -0.03  -0.07   0.00
  24   1     0.05   0.06   0.00    -0.18  -0.22   0.04    -0.08  -0.00   0.02
  25   1    -0.07  -0.03   0.11     0.12   0.10  -0.31    -0.01  -0.03   0.01
  26   1     0.02  -0.11  -0.09     0.03  -0.10  -0.15     0.10  -0.17  -0.22
  27   1    -0.00   0.04  -0.02    -0.11   0.18  -0.00    -0.10   0.19  -0.02
                     22                     23                     24
                        a                      a                      a 
 Frequencies --   875.7074               924.7510               928.5988
 Red. masses --     6.1971                 5.4118                 5.7562
 Frc consts  --     0.0000                 0.0000                 0.0000
 IR Inten    --     6.3490                37.4820                28.2755
 Raman Activ --     0.0000                 0.0000                 0.0000
 Depolar     --     0.0000                 0.0000                 0.0000
 Atom AN      X      Y      Z        X      Y      Z        X      Y      Z
   1   7     0.12   0.05  -0.11     0.25  -0.00  -0.00     0.24   0.07  -0.01
   2   6     0.09  -0.06  -0.07    -0.03  -0.05  -0.07    -0.05  -0.12  -0.07
   3   6    -0.06   0.04   0.30    -0.23   0.15  -0.03    -0.26  -0.03  -0.04
   4   6    -0.05   0.06  -0.16    -0.18  -0.22  -0.03     0.03   0.01   0.17
   5   6    -0.07  -0.12  -0.08     0.18  -0.10   0.13     0.02   0.03  -0.11
   6   6    -0.07   0.05   0.35     0.15   0.06  -0.11     0.17  -0.09  -0.12
   7   6     0.00  -0.02  -0.22    -0.00   0.03   0.08    -0.01   0.04   0.10
   8   8     0.07   0.06   0.04    -0.08  -0.07  -0.01    -0.08  -0.07  -0.01
   9   8     0.05  -0.11   0.02    -0.03   0.07   0.00    -0.05   0.09   0.01
  10   6    -0.04   0.11  -0.13    -0.03  -0.10  -0.06     0.21   0.11   0.13
  11   6    -0.08  -0.07  -0.13     0.06  -0.02   0.12    -0.12   0.17  -0.11
  12   1     0.11   0.16   0.19     0.17   0.32   0.16     0.15   0.25   0.15
  13   1     0.04   0.10   0.16    -0.20  -0.07  -0.03    -0.10  -0.00   0.03
  14   1    -0.25  -0.25  -0.03    -0.15  -0.01  -0.02    -0.14  -0.05  -0.01
  15   1    -0.13  -0.14  -0.02    -0.03  -0.03  -0.02    -0.07  -0.05  -0.02
  16   1     0.10   0.03   0.05    -0.11  -0.04  -0.02    -0.03  -0.03  -0.02
  17   1    -0.07   0.02   0.07    -0.09   0.20  -0.03    -0.15  -0.18   0.01
  18   1    -0.13   0.07   0.07    -0.07  -0.10   0.22     0.10  -0.01  -0.12
  19   1     0.17   0.04  -0.03     0.00   0.17  -0.03    -0.07  -0.16   0.06
  20   1     0.16  -0.03  -0.01     0.00   0.18  -0.02    -0.06  -0.17   0.01
  21   1    -0.14  -0.04   0.06     0.14  -0.10  -0.16     0.01   0.08   0.09
  22   1     0.01   0.01   0.09     0.08   0.18  -0.05     0.07  -0.22  -0.00
  23   1     0.04   0.09   0.01    -0.03  -0.05   0.00    -0.04  -0.08  -0.01
  24   1     0.17   0.01  -0.02    -0.00   0.16  -0.03    -0.07  -0.22   0.05
  25   1    -0.12   0.08   0.05    -0.04  -0.04   0.12     0.14   0.04  -0.22
  26   1    -0.16  -0.00   0.10     0.11  -0.05  -0.12    -0.02   0.16   0.16
  27   1     0.17  -0.09  -0.01    -0.02   0.17  -0.01    -0.07  -0.19   0.02
                     25                     26                     27
                        a                      a                      a 
 Frequencies --   937.4378               959.9725               983.1689
 Red. masses --     7.8532                 6.6913                 7.8031
 Frc consts  --     0.0000                 0.0000                 0.0000
 IR Inten    --     2.5243                 4.4903                 6.4564
 Raman Activ --     0.0000                 0.0000                 0.0000
 Depolar     --     0.0000                 0.0000                 0.0000
 Atom AN      X      Y      Z        X      Y      Z        X      Y      Z
   1   7    -0.05  -0.00  -0.02    -0.01  -0.23   0.01    -0.12  -0.28  -0.27
   2   6    -0.01   0.01   0.05     0.03   0.31  -0.04     0.28   0.32   0.33
   3   6     0.12   0.01   0.06     0.11   0.27   0.01    -0.00  -0.01  -0.08
   4   6    -0.04   0.28  -0.05    -0.11  -0.07   0.19     0.10  -0.01  -0.02
   5   6     0.03  -0.38   0.06     0.09  -0.07  -0.20    -0.02  -0.02   0.12
   6   6     0.32  -0.01   0.00     0.00   0.18   0.07    -0.17   0.02  -0.08
   7   6    -0.02   0.06   0.07     0.03  -0.00  -0.02    -0.01  -0.05   0.02
   8   8    -0.12  -0.10   0.00    -0.03  -0.04   0.00     0.06   0.06  -0.01
   9   8    -0.05   0.12   0.03     0.03  -0.02  -0.01     0.02  -0.05  -0.03
  10   6     0.08   0.32  -0.06    -0.16   0.02   0.11    -0.06   0.06   0.14
  11   6    -0.06  -0.28   0.05     0.08  -0.23  -0.14     0.13  -0.02  -0.05
  12   1    -0.03  -0.06  -0.02     0.03   0.11  -0.01     0.03   0.04   0.09
  13   1     0.04   0.02   0.02    -0.23  -0.17  -0.14    -0.07  -0.03   0.04
  14   1     0.00  -0.03  -0.00    -0.01   0.10  -0.01    -0.24  -0.23  -0.07
  15   1    -0.04   0.01   0.01     0.19  -0.03   0.02    -0.17   0.12   0.06
  16   1     0.04   0.01  -0.00    -0.28   0.04   0.12     0.18   0.07  -0.05
  17   1     0.02   0.02   0.01     0.12  -0.05   0.03    -0.27   0.01  -0.04
  18   1    -0.09   0.16  -0.15    -0.15   0.09  -0.04     0.07  -0.03  -0.01
  19   1    -0.13   0.00  -0.01     0.06  -0.16   0.07    -0.09   0.07  -0.02
  20   1    -0.11   0.07  -0.04     0.08  -0.17  -0.01    -0.13   0.06   0.01
  21   1    -0.06  -0.24  -0.17     0.09   0.09   0.08     0.09  -0.01  -0.07
  22   1     0.18   0.00  -0.00    -0.02  -0.07   0.04    -0.07  -0.00  -0.02
  23   1    -0.05  -0.10  -0.00     0.01   0.04   0.01     0.02   0.03  -0.00
  24   1    -0.12  -0.03  -0.02     0.00  -0.10   0.04    -0.16  -0.05   0.03
  25   1    -0.04   0.18  -0.20    -0.19   0.13  -0.05     0.05  -0.00  -0.08
  26   1    -0.08  -0.18  -0.12     0.07  -0.03  -0.01     0.11   0.03  -0.01
  27   1    -0.11   0.05  -0.02     0.03  -0.09  -0.03    -0.10  -0.08  -0.01
                     28                     29                     30
                        a                      a                      a 
 Frequencies --   985.4224              1018.8413              1053.2038
 Red. masses --     8.7430                 7.4352                 7.9917
 Frc consts  --     0.0000                 0.0000                 0.0000
 IR Inten    --    46.6620                 7.1051                21.9705
 Raman Activ --     0.0000                 0.0000                 0.0000
 Depolar     --     0.0000                 0.0000                 0.0000
 Atom AN      X      Y      Z        X      Y      Z        X      Y      Z
   1   7    -0.19  -0.12  -0.09     0.01   0.23   0.03     0.08   0.03   0.03
   2   6     0.28   0.13   0.11    -0.11  -0.36   0.05    -0.20   0.01  -0.02
   3   6     0.02  -0.03   0.07     0.11   0.09  -0.04     0.15   0.02  -0.04
   4   6    -0.21  -0.14  -0.04    -0.17  -0.00   0.05     0.35  -0.18  -0.11
   5   6    -0.01   0.08  -0.09     0.11  -0.11  -0.06    -0.39   0.04   0.13
   6   6     0.41  -0.03  -0.09    -0.03   0.25  -0.07     0.12  -0.08  -0.03
   7   6     0.06   0.10   0.14     0.06  -0.00   0.04     0.00  -0.01   0.11
   8   8    -0.17  -0.16  -0.01    -0.04  -0.07  -0.01    -0.01   0.03  -0.01
   9   8    -0.09   0.17   0.03     0.02  -0.00  -0.02    -0.02   0.03  -0.01
  10   6    -0.07  -0.15  -0.04    -0.25  -0.06   0.21    -0.30   0.12   0.05
  11   6    -0.12   0.22  -0.10     0.27  -0.00  -0.17     0.25   0.01  -0.12
  12   1    -0.08  -0.15  -0.06    -0.04  -0.10  -0.01     0.04   0.07   0.03
  13   1     0.06   0.01   0.01     0.19   0.14   0.10    -0.05  -0.01  -0.01
  14   1     0.01  -0.06  -0.01     0.04  -0.04   0.02    -0.02   0.02   0.00
  15   1     0.05   0.06   0.02    -0.22   0.04  -0.02    -0.07  -0.03  -0.00
  16   1     0.15   0.04  -0.01     0.18  -0.09  -0.13    -0.12  -0.01   0.02
  17   1    -0.01  -0.00   0.02    -0.08  -0.03  -0.01     0.02   0.05  -0.02
  18   1    -0.11  -0.04   0.14    -0.18   0.09  -0.00     0.20  -0.13   0.05
  19   1     0.08   0.05  -0.01    -0.07   0.02   0.01     0.15  -0.00  -0.03
  20   1     0.11  -0.05   0.00    -0.03  -0.04  -0.02    -0.12   0.01   0.03
  21   1    -0.08   0.03   0.06     0.20   0.05  -0.03    -0.27  -0.07   0.02
  22   1     0.29  -0.03  -0.02    -0.01   0.01  -0.01     0.23  -0.07  -0.00
  23   1    -0.06  -0.11  -0.00     0.02   0.06   0.01    -0.03  -0.07  -0.01
  24   1     0.12   0.03  -0.00    -0.07  -0.07   0.06    -0.07   0.01   0.02
  25   1    -0.11  -0.01   0.10    -0.17   0.07  -0.01    -0.20   0.13  -0.03
  26   1    -0.06   0.14   0.13     0.25   0.12   0.03     0.08   0.03  -0.00
  27   1     0.13  -0.07   0.01     0.05  -0.12  -0.02     0.14  -0.01  -0.02
                     31                     32                     33
                        a                      a                      a 
 Frequencies --  1066.5965              1081.8992              1106.8535
 Red. masses --     2.1446                 7.8100                 8.6536
 Frc consts  --     0.0000                 0.0000                 0.0000
 IR Inten    --     1.5230                 5.6716                22.2600
 Raman Activ --     0.0000                 0.0000                 0.0000
 Depolar     --     0.0000                 0.0000                 0.0000
 Atom AN      X      Y      Z        X      Y      Z        X      Y      Z
   1   7     0.02  -0.03   0.01     0.08   0.02  -0.03     0.07  -0.03   0.01
   2   6     0.00   0.04  -0.03    -0.29   0.04   0.15    -0.15   0.09   0.01
   3   6    -0.09  -0.14   0.00     0.54   0.11  -0.03     0.14  -0.30   0.04
   4   6     0.00   0.09  -0.01    -0.03  -0.12  -0.09    -0.30   0.17  -0.07
   5   6    -0.08  -0.10  -0.04    -0.06   0.10   0.07     0.32   0.14   0.00
   6   6     0.04   0.10   0.02    -0.03   0.02  -0.13    -0.05  -0.30  -0.02
   7   6    -0.02  -0.02  -0.00    -0.00  -0.02   0.05    -0.08  -0.05   0.05
   8   8     0.00   0.01   0.00     0.01   0.03  -0.00     0.05   0.14   0.01
   9   8     0.01  -0.00  -0.00    -0.01   0.01  -0.01    -0.00  -0.06  -0.02
  10   6    -0.03  -0.04   0.03     0.17  -0.14   0.06    -0.26   0.15   0.00
  11   6     0.13   0.10   0.02    -0.26  -0.06  -0.10     0.25   0.11  -0.05
  12   1     0.01   0.01  -0.00     0.05   0.08   0.06     0.04   0.07   0.03
  13   1    -0.03  -0.02  -0.02    -0.04   0.01   0.03    -0.07  -0.03  -0.01
  14   1     0.00   0.02  -0.00    -0.08  -0.04  -0.01    -0.03   0.01  -0.00
  15   1     0.06  -0.03  -0.00    -0.25   0.02   0.02    -0.04  -0.04   0.01
  16   1    -0.01   0.02   0.03    -0.11  -0.02  -0.00    -0.07   0.03   0.06
  17   1    -0.04  -0.39   0.05     0.11  -0.01  -0.00     0.07  -0.21   0.03
  18   1    -0.13   0.12  -0.07    -0.21   0.08   0.06    -0.03   0.00   0.02
  19   1     0.23  -0.21   0.04     0.12   0.04  -0.02    -0.14   0.13  -0.03
  20   1     0.24   0.10  -0.02     0.05   0.08   0.01     0.20   0.10  -0.01
  21   1    -0.27  -0.14   0.00     0.06   0.05  -0.01     0.03  -0.00  -0.01
  22   1     0.05   0.40  -0.05     0.10   0.11  -0.05     0.07  -0.21   0.02
  23   1    -0.00  -0.01   0.00    -0.01  -0.03  -0.01    -0.05  -0.14  -0.02
  24   1    -0.23   0.19  -0.03     0.00  -0.04   0.01    -0.14   0.06  -0.01
  25   1     0.14  -0.12   0.05     0.18  -0.13   0.01     0.05  -0.04   0.00
  26   1     0.26   0.12   0.00    -0.18  -0.02   0.07    -0.12  -0.04   0.02
  27   1    -0.22  -0.10   0.01    -0.19  -0.18   0.00     0.18   0.03  -0.01
                     34                     35                     36
                        a                      a                      a 
 Frequencies --  1115.7768              1135.0670              1160.0782
 Red. masses --     8.9914                 7.9969                 8.0549
 Frc consts  --     0.0000                 0.0000                 0.0000
 IR Inten    --   158.6626                69.9364                45.9451
 Raman Activ --     0.0000                 0.0000                 0.0000
 Depolar     --     0.0000                 0.0000                 0.0000
 Atom AN      X      Y      Z        X      Y      Z        X      Y      Z
   1   7    -0.07   0.02   0.05     0.01   0.04  -0.09     0.06  -0.05  -0.01
   2   6     0.17  -0.08  -0.13    -0.04  -0.07   0.21    -0.12   0.12   0.04
   3   6    -0.17   0.22   0.15     0.10   0.12  -0.28     0.03  -0.34  -0.05
   4   6     0.00  -0.06  -0.04    -0.04  -0.08   0.26     0.05   0.14  -0.06
   5   6     0.03   0.02   0.11     0.02   0.07  -0.23    -0.08  -0.22  -0.11
   6   6    -0.09  -0.05  -0.16     0.22  -0.14   0.24     0.05   0.42  -0.03
   7   6    -0.29  -0.21   0.14    -0.16  -0.06  -0.06    -0.14  -0.12   0.05
   8   8     0.17   0.42   0.03     0.05   0.23   0.05     0.04   0.19   0.02
   9   8     0.05  -0.16  -0.07     0.02  -0.11  -0.01     0.06  -0.10  -0.05
  10   6     0.07   0.06   0.10    -0.02   0.03  -0.25     0.04  -0.22   0.07
  11   6    -0.07  -0.12  -0.11    -0.03  -0.01   0.16    -0.04   0.19   0.12
  12   1    -0.05  -0.09  -0.06     0.02   0.01   0.04     0.04   0.06   0.03
  13   1     0.05   0.01  -0.02     0.04   0.05   0.06    -0.06  -0.03  -0.01
  14   1     0.08   0.04   0.02    -0.07  -0.09  -0.02    -0.05  -0.00  -0.01
  15   1     0.12  -0.03  -0.03    -0.13   0.12   0.03    -0.01  -0.01   0.02
  16   1     0.05  -0.01  -0.01     0.02  -0.06  -0.09    -0.00   0.05   0.04
  17   1    -0.05   0.08   0.03     0.02   0.05  -0.07     0.09  -0.09  -0.01
  18   1    -0.10   0.04   0.04     0.05  -0.03  -0.04     0.03   0.04  -0.07
  19   1     0.15  -0.05   0.01    -0.07  -0.10   0.07    -0.15   0.07  -0.03
  20   1     0.06   0.11   0.01     0.08  -0.15  -0.01    -0.20  -0.14  -0.03
  21   1     0.10   0.01  -0.04    -0.07   0.07   0.10     0.06  -0.01  -0.02
  22   1     0.25   0.01  -0.04    -0.08   0.01   0.05     0.10   0.16  -0.02
  23   1    -0.12  -0.36  -0.05    -0.11  -0.30  -0.02    -0.08  -0.21  -0.03
  24   1    -0.00  -0.11   0.03    -0.00   0.18  -0.08     0.27  -0.15   0.05
  25   1     0.01   0.04  -0.08    -0.13   0.06   0.06    -0.11   0.02   0.06
  26   1     0.03   0.02   0.02     0.14   0.00  -0.07    -0.04   0.02   0.02
  27   1    -0.01  -0.08  -0.02    -0.18   0.06   0.01     0.17   0.12   0.03
                     37                     38                     39
                        a                      a                      a 
 Frequencies --  1194.7279              1207.0635              1218.9964
 Red. masses --     4.4291                 3.6623                 3.9640
 Frc consts  --     0.0000                 0.0000                 0.0000
 IR Inten    --    11.4612                 7.5220                15.0705
 Raman Activ --     0.0000                 0.0000                 0.0000
 Depolar     --     0.0000                 0.0000                 0.0000
 Atom AN      X      Y      Z        X      Y      Z        X      Y      Z
   1   7    -0.00  -0.06   0.16     0.04  -0.05   0.04     0.00  -0.07   0.17
   2   6     0.02   0.08  -0.20    -0.06   0.06  -0.02     0.03   0.07  -0.15
   3   6     0.10  -0.00   0.23    -0.01  -0.10  -0.03     0.07   0.03   0.01
   4   6    -0.01  -0.04  -0.15     0.07   0.00  -0.16    -0.03  -0.00   0.13
   5   6    -0.00   0.03   0.04    -0.07   0.07   0.18     0.04  -0.04  -0.18
   6   6     0.22  -0.03   0.06    -0.07  -0.12   0.02    -0.07   0.03   0.06
   7   6     0.11   0.09  -0.13    -0.01   0.00   0.02    -0.24  -0.13   0.10
   8   8    -0.08   0.07   0.05     0.02  -0.03  -0.01     0.12  -0.03  -0.04
   9   8    -0.00  -0.08   0.01    -0.01   0.04   0.01     0.02   0.07   0.00
  10   6     0.02  -0.02   0.03     0.06   0.01  -0.25    -0.01   0.00  -0.09
  11   6    -0.03   0.03  -0.12    -0.06   0.06   0.21    -0.02  -0.02  -0.01
  12   1    -0.02  -0.01  -0.06     0.01   0.02  -0.00    -0.02   0.00  -0.06
  13   1    -0.06  -0.08  -0.09    -0.05  -0.04  -0.02    -0.07  -0.09  -0.10
  14   1     0.09   0.12   0.03     0.00   0.04   0.00     0.08   0.13   0.04
  15   1    -0.18  -0.22  -0.05    -0.06  -0.06  -0.01    -0.35  -0.24  -0.06
  16   1     0.13   0.13   0.12     0.12   0.08   0.04     0.25   0.16   0.11
  17   1    -0.07  -0.00   0.05    -0.00  -0.24   0.02    -0.09   0.14  -0.03
  18   1     0.04  -0.07   0.08    -0.27   0.19  -0.02     0.16  -0.09  -0.01
  19   1    -0.10   0.18  -0.06     0.19  -0.05  -0.02    -0.21   0.08   0.01
  20   1    -0.19  -0.06   0.01    -0.10   0.06   0.03     0.08  -0.08  -0.03
  21   1     0.03   0.01  -0.01     0.29   0.13  -0.03    -0.08  -0.00   0.04
  22   1    -0.47   0.06   0.01     0.11  -0.33   0.05     0.36   0.02   0.01
  23   1    -0.12  -0.30  -0.02     0.04   0.09   0.01     0.12   0.30   0.02
  24   1    -0.11   0.06  -0.01     0.17   0.03  -0.05     0.00   0.05  -0.03
  25   1    -0.05   0.04  -0.02    -0.25   0.17   0.00     0.06  -0.06   0.03
  26   1     0.11   0.11   0.06     0.31   0.10  -0.05     0.07   0.02  -0.01
  27   1    -0.16  -0.15  -0.00    -0.18   0.05   0.04    -0.13  -0.06   0.00
                     40                     41                     42
                        a                      a                      a 
 Frequencies --  1235.9662              1249.3617              1271.6633
 Red. masses --     2.9503                 4.6479                 5.6732
 Frc consts  --     0.0000                 0.0000                 0.0000
 IR Inten    --     8.1067                34.5286                51.3231
 Raman Activ --     0.0000                 0.0000                 0.0000
 Depolar     --     0.0000                 0.0000                 0.0000
 Atom AN      X      Y      Z        X      Y      Z        X      Y      Z
   1   7     0.00  -0.01  -0.03     0.03  -0.07   0.10    -0.03   0.04  -0.00
   2   6    -0.04   0.00   0.08    -0.02   0.05  -0.03     0.08  -0.02  -0.03
   3   6     0.05   0.00   0.03    -0.07  -0.02  -0.28     0.07   0.09   0.10
   4   6    -0.14   0.01   0.03     0.05  -0.01   0.19    -0.02   0.01  -0.01
   5   6     0.14   0.00   0.07    -0.03   0.02   0.05     0.03  -0.08  -0.01
   6   6    -0.10  -0.03  -0.24    -0.13   0.00  -0.10    -0.28   0.32   0.03
   7   6    -0.07  -0.02  -0.00     0.31   0.14  -0.04     0.35   0.12  -0.00
   8   8     0.04  -0.01  -0.01    -0.12  -0.01   0.03    -0.13   0.01   0.03
   9   8     0.01   0.01   0.00    -0.02  -0.06  -0.01    -0.01  -0.09  -0.03
  10   6     0.14  -0.00   0.06    -0.02   0.03   0.07    -0.03  -0.03  -0.16
  11   6    -0.14   0.02   0.02     0.02  -0.01   0.08     0.02  -0.03   0.07
  12   1     0.01   0.02   0.02     0.00   0.02  -0.02    -0.02  -0.02  -0.01
  13   1     0.00   0.01   0.02    -0.06  -0.07  -0.06     0.03   0.02   0.00
  14   1    -0.02  -0.02  -0.01     0.03   0.08   0.02     0.01  -0.02   0.00
  15   1    -0.01   0.04   0.02    -0.29  -0.14  -0.03     0.01   0.00  -0.01
  16   1     0.03  -0.00  -0.01     0.31   0.14   0.05    -0.17  -0.07  -0.02
  17   1     0.24  -0.01   0.03    -0.05   0.16  -0.10    -0.13  -0.12   0.04
  18   1     0.20  -0.16   0.06    -0.15   0.14  -0.08     0.16  -0.12   0.03
  19   1    -0.06   0.05   0.00     0.14  -0.21   0.08    -0.12   0.09  -0.02
  20   1     0.28   0.18  -0.01     0.24   0.14   0.00     0.07   0.03  -0.01
  21   1    -0.34  -0.21  -0.04    -0.11  -0.05   0.00    -0.15  -0.10  -0.01
  22   1    -0.20   0.00  -0.07    -0.05  -0.01  -0.02     0.25  -0.37   0.07
  23   1     0.03   0.08   0.00    -0.10  -0.23  -0.03    -0.11  -0.26  -0.03
  24   1     0.23  -0.22   0.05     0.10  -0.12   0.04     0.11   0.01  -0.03
  25   1    -0.29   0.26  -0.11     0.02   0.00  -0.01     0.13  -0.14   0.09
  26   1     0.25   0.14   0.02    -0.14  -0.10  -0.04     0.10   0.00  -0.04
  27   1    -0.08  -0.04   0.01     0.20   0.14  -0.00    -0.25  -0.07   0.02
                     43                     44                     45
                        a                      a                      a 
 Frequencies --  1279.7824              1287.4290              1308.4127
 Red. masses --     3.3097                 4.9432                 3.5712
 Frc consts  --     0.0000                 0.0000                 0.0000
 IR Inten    --    12.5023                32.5213                 1.2777
 Raman Activ --     0.0000                 0.0000                 0.0000
 Depolar     --     0.0000                 0.0000                 0.0000
 Atom AN      X      Y      Z        X      Y      Z        X      Y      Z
   1   7     0.03  -0.09  -0.06     0.01  -0.02   0.00     0.03   0.03  -0.02
   2   6    -0.19   0.00   0.11    -0.04  -0.00   0.02    -0.06   0.03  -0.08
   3   6    -0.14  -0.08   0.06    -0.03   0.02  -0.06     0.10  -0.30   0.12
   4   6     0.00   0.04  -0.03    -0.01  -0.07  -0.01     0.23  -0.11   0.13
   5   6    -0.04  -0.03  -0.03     0.14   0.05   0.13     0.00   0.08  -0.06
   6   6    -0.09   0.01   0.10     0.25   0.34  -0.07    -0.03  -0.03  -0.02
   7   6     0.15   0.06  -0.01    -0.27  -0.14   0.02     0.01   0.00  -0.00
   8   8    -0.05  -0.01   0.01     0.07   0.04  -0.01     0.00  -0.00  -0.00
   9   8    -0.01  -0.02  -0.00     0.04   0.01  -0.01    -0.00   0.00   0.00
  10   6    -0.02   0.09  -0.02    -0.10  -0.01  -0.04     0.04   0.01  -0.00
  11   6    -0.13  -0.11  -0.15    -0.02  -0.04  -0.02    -0.10   0.02  -0.04
  12   1     0.05   0.08   0.06     0.01   0.01   0.01     0.00  -0.02   0.01
  13   1    -0.02  -0.00   0.03    -0.01  -0.01   0.00    -0.01   0.01   0.01
  14   1    -0.03   0.01  -0.02    -0.00   0.01  -0.00    -0.02  -0.02  -0.01
  15   1     0.16   0.10   0.04    -0.00   0.00   0.00     0.22   0.03   0.00
  16   1     0.31   0.11   0.01     0.11   0.04   0.00    -0.16  -0.03   0.01
  17   1     0.55   0.25   0.01     0.06   0.05  -0.02    -0.30   0.40  -0.06
  18   1     0.05  -0.02   0.00    -0.16   0.07   0.03    -0.36   0.27  -0.08
  19   1    -0.02   0.02  -0.01     0.14  -0.10   0.02    -0.31   0.14  -0.01
  20   1    -0.03  -0.04  -0.00    -0.15   0.01   0.02     0.14   0.05  -0.01
  21   1     0.11   0.05  -0.00    -0.31  -0.19  -0.02    -0.16  -0.02   0.05
  22   1     0.15  -0.01   0.03    -0.26  -0.47   0.07     0.00  -0.02  -0.00
  23   1    -0.04  -0.09  -0.01     0.04   0.10   0.01     0.00   0.00  -0.00
  24   1    -0.14   0.09  -0.03    -0.01   0.04  -0.01    -0.04   0.02  -0.01
  25   1     0.20  -0.12  -0.01     0.23  -0.20   0.06    -0.02   0.03  -0.02
  26   1     0.31   0.16   0.01     0.02  -0.01  -0.01     0.21   0.12   0.02
  27   1     0.08  -0.07  -0.03     0.06   0.02  -0.01     0.04  -0.02  -0.00
                     46                     47                     48
                        a                      a                      a 
 Frequencies --  1326.4818              1330.7790              1339.0162
 Red. masses --     3.9870                 3.5936                 4.3779
 Frc consts  --     0.0000                 0.0000                 0.0000
 IR Inten    --     2.9899                 4.8955                 0.7536
 Raman Activ --     0.0000                 0.0000                 0.0000
 Depolar     --     0.0000                 0.0000                 0.0000
 Atom AN      X      Y      Z        X      Y      Z        X      Y      Z
   1   7    -0.01   0.08   0.03     0.01  -0.11  -0.06     0.00  -0.02  -0.01
   2   6     0.20   0.06   0.03    -0.30  -0.04  -0.05    -0.04   0.00   0.00
   3   6    -0.10  -0.33   0.03     0.14  -0.03   0.06    -0.03  -0.06   0.01
   4   6    -0.12   0.16  -0.00    -0.14   0.06   0.02     0.01   0.08   0.04
   5   6     0.06  -0.01   0.04     0.12   0.03   0.00    -0.20  -0.14   0.04
   6   6     0.00  -0.02   0.00    -0.04  -0.03  -0.00     0.02   0.20  -0.02
   7   6     0.00   0.00  -0.00     0.02   0.00   0.00    -0.06  -0.03   0.01
   8   8    -0.00  -0.00   0.00    -0.00  -0.00   0.00     0.02   0.02  -0.00
   9   8    -0.00  -0.00  -0.00    -0.00  -0.00  -0.00     0.02  -0.01  -0.01
  10   6    -0.08   0.01  -0.04    -0.06  -0.02  -0.04     0.26  -0.29   0.04
  11   6     0.17   0.11  -0.07     0.20   0.10   0.01     0.08   0.12  -0.09
  12   1    -0.02  -0.05  -0.02     0.05   0.11   0.04     0.01   0.03   0.01
  13   1    -0.00  -0.00  -0.05     0.02   0.01   0.06     0.01  -0.00  -0.00
  14   1     0.00  -0.06   0.01     0.01   0.08  -0.02     0.01   0.00  -0.00
  15   1    -0.25  -0.09  -0.01     0.43   0.10   0.03     0.04   0.02   0.00
  16   1    -0.34  -0.13  -0.04     0.35   0.14   0.02     0.06   0.03   0.01
  17   1     0.21   0.46  -0.06    -0.27   0.19  -0.04     0.05   0.13  -0.02
  18   1     0.01   0.02  -0.03     0.07  -0.05   0.01     0.09  -0.04  -0.02
  19   1     0.25  -0.20   0.05     0.16  -0.12   0.04    -0.01  -0.03   0.02
  20   1    -0.11  -0.02   0.01    -0.14  -0.06   0.00     0.30   0.16  -0.00
  21   1     0.05   0.00  -0.01    -0.06  -0.03   0.01     0.14   0.05  -0.01
  22   1     0.00   0.01  -0.00     0.03   0.07  -0.01    -0.04  -0.30   0.05
  23   1    -0.00  -0.00  -0.00    -0.00  -0.01  -0.00     0.00   0.00   0.00
  24   1     0.11  -0.05   0.01     0.15  -0.09   0.01    -0.38   0.32  -0.07
  25   1    -0.01  -0.01   0.00    -0.08   0.03   0.03    -0.26   0.17  -0.03
  26   1    -0.01   0.02   0.02    -0.19  -0.08   0.01    -0.25  -0.05   0.05
  27   1    -0.30  -0.17   0.00    -0.34  -0.13   0.01    -0.06  -0.07  -0.01
                     49                     50                     51
                        a                      a                      a 
 Frequencies --  1350.4333              1360.4894              1389.6560
 Red. masses --     4.5238                 4.9836                 2.9800
 Frc consts  --     0.0000                 0.0000                 0.0000
 IR Inten    --     1.0566                 7.1143               215.6058
 Raman Activ --     0.0000                 0.0000                 0.0000
 Depolar     --     0.0000                 0.0000                 0.0000
 Atom AN      X      Y      Z        X      Y      Z        X      Y      Z
   1   7     0.01   0.02   0.02     0.00   0.01   0.01     0.26   0.26   0.10
   2   6    -0.03   0.02  -0.04     0.03   0.01   0.02    -0.08  -0.01   0.01
   3   6     0.30  -0.12  -0.01    -0.02   0.01  -0.05    -0.01   0.04   0.01
   4   6    -0.27   0.19   0.00    -0.05  -0.06  -0.03    -0.01  -0.00  -0.00
   5   6    -0.01  -0.08   0.03     0.36   0.16  -0.01     0.00  -0.01  -0.00
   6   6     0.01   0.03   0.03    -0.29  -0.01   0.06    -0.01   0.00   0.00
   7   6    -0.00   0.00  -0.00     0.10   0.02   0.00     0.01   0.01   0.00
   8   8    -0.00   0.00   0.00    -0.02  -0.00  -0.00    -0.00  -0.00   0.00
   9   8     0.00  -0.00  -0.00    -0.01  -0.01  -0.01    -0.00  -0.00  -0.00
  10   6     0.06   0.02   0.01     0.25  -0.14   0.05    -0.00  -0.00  -0.00
  11   6    -0.29  -0.08   0.01    -0.06   0.02  -0.03     0.03   0.00  -0.01
  12   1    -0.01  -0.01  -0.03    -0.00  -0.02  -0.00    -0.14  -0.51  -0.20
  13   1    -0.01  -0.01  -0.01    -0.01  -0.00   0.00    -0.44  -0.17  -0.19
  14   1    -0.02  -0.00   0.00    -0.00   0.00   0.00    -0.37  -0.31  -0.00
  15   1     0.04  -0.03  -0.01    -0.07  -0.02  -0.00     0.12  -0.02   0.01
  16   1    -0.08  -0.02  -0.01    -0.01  -0.01  -0.01     0.13   0.02  -0.06
  17   1    -0.37   0.12  -0.06     0.05  -0.03  -0.01     0.02  -0.00   0.01
  18   1     0.27  -0.16  -0.01    -0.11   0.04   0.02     0.03  -0.02   0.02
  19   1     0.32  -0.20   0.05     0.09  -0.04   0.00    -0.01  -0.01   0.00
  20   1    -0.02   0.02  -0.00    -0.43  -0.19   0.00     0.00  -0.00  -0.00
  21   1     0.12   0.03  -0.01    -0.32  -0.14   0.02    -0.00  -0.00   0.00
  22   1    -0.01  -0.04   0.02     0.20   0.06   0.01     0.01   0.00   0.00
  23   1     0.00  -0.00   0.00    -0.01  -0.04  -0.00    -0.00  -0.00  -0.00
  24   1    -0.11   0.07  -0.01    -0.29   0.19  -0.04     0.00  -0.00  -0.00
  25   1     0.05  -0.02  -0.01    -0.22   0.18  -0.04    -0.00   0.00   0.00
  26   1     0.30   0.12  -0.03    -0.05   0.00   0.01    -0.03  -0.01   0.00
  27   1     0.34   0.11  -0.00     0.12   0.04  -0.01    -0.04  -0.01  -0.00
                     52                     53                     54
                        a                      a                      a 
 Frequencies --  1435.5225              1436.7800              1474.5611
 Red. masses --     1.6462                 1.6427                 1.8522
 Frc consts  --     0.0000                 0.0000                 0.0000
 IR Inten    --    81.0924                79.9560                14.5389
 Raman Activ --     0.0000                 0.0000                 0.0000
 Depolar     --     0.0000                 0.0000                 0.0000
 Atom AN      X      Y      Z        X      Y      Z        X      Y      Z
   1   7    -0.05   0.01   0.21    -0.13   0.16  -0.06     0.02   0.00  -0.00
   2   6    -0.04   0.00   0.03    -0.05   0.02  -0.00     0.08  -0.21  -0.15
   3   6     0.01   0.00  -0.00     0.03   0.01  -0.00    -0.00  -0.01   0.00
   4   6     0.02   0.01  -0.02     0.01   0.01  -0.01    -0.00   0.02  -0.02
   5   6     0.01   0.01  -0.00     0.00   0.00  -0.00     0.01  -0.00   0.00
   6   6    -0.00  -0.00  -0.00    -0.00  -0.00   0.00    -0.00  -0.00   0.00
   7   6    -0.00  -0.00   0.00    -0.00   0.00   0.00     0.00   0.00  -0.00
   8   8     0.00   0.00  -0.00     0.00   0.00   0.00    -0.00  -0.00   0.00
   9   8    -0.00   0.00   0.00     0.00  -0.00  -0.00    -0.00  -0.00  -0.00
  10   6     0.00  -0.00   0.00    -0.00  -0.00   0.00    -0.00  -0.00   0.00
  11   6    -0.00   0.00   0.00    -0.01   0.00   0.01    -0.01   0.04   0.02
  12   1    -0.02   0.40  -0.43     0.09  -0.04   0.51    -0.01  -0.03  -0.01
  13   1     0.44  -0.12  -0.47    -0.07  -0.15  -0.37    -0.04  -0.03  -0.04
  14   1    -0.19  -0.35   0.03     0.53  -0.47   0.07    -0.03  -0.05  -0.00
  15   1     0.05   0.01   0.02     0.03  -0.02   0.00    -0.18   0.64  -0.07
  16   1     0.02  -0.00  -0.02     0.05   0.03  -0.01    -0.08   0.22   0.63
  17   1     0.01  -0.01   0.00    -0.02  -0.02  -0.00    -0.02   0.01  -0.00
  18   1    -0.03   0.00   0.04    -0.01  -0.01   0.04    -0.00  -0.01   0.05
  19   1    -0.03  -0.04   0.00    -0.02  -0.04   0.00    -0.01  -0.06   0.00
  20   1    -0.01   0.00  -0.00    -0.01  -0.00  -0.00    -0.01   0.01  -0.00
  21   1    -0.01   0.00   0.01    -0.00   0.00   0.00     0.00   0.00   0.01
  22   1     0.00   0.00  -0.00     0.00   0.00  -0.00     0.00   0.00  -0.00
  23   1    -0.00  -0.00  -0.00    -0.00  -0.00  -0.00    -0.00  -0.00  -0.00
  24   1    -0.00  -0.00   0.00     0.00   0.00   0.00     0.01   0.01   0.00
  25   1    -0.00   0.00  -0.00     0.00   0.00  -0.00     0.00   0.00  -0.01
  26   1     0.00  -0.00  -0.00     0.01  -0.00  -0.01     0.02  -0.04  -0.09
  27   1     0.00  -0.00   0.00     0.01  -0.00   0.00     0.03  -0.09   0.02
                     55                     56                     57
                        a                      a                      a 
 Frequencies --  1498.2480              1503.4393              1507.0922
 Red. masses --     1.8821                 1.9538                 1.9115
 Frc consts  --     0.0000                 0.0000                 0.0000
 IR Inten    --     0.8044                 4.2196                10.9733
 Raman Activ --     0.0000                 0.0000                 0.0000
 Depolar     --     0.0000                 0.0000                 0.0000
 Atom AN      X      Y      Z        X      Y      Z        X      Y      Z
   1   7     0.01  -0.01  -0.01    -0.00   0.01   0.01     0.00  -0.01  -0.01
   2   6    -0.01   0.03   0.02     0.00  -0.01  -0.01     0.01  -0.01  -0.00
   3   6     0.01   0.03  -0.00    -0.01   0.01   0.00     0.02  -0.01  -0.01
   4   6     0.09   0.10  -0.11    -0.06  -0.08   0.08     0.06   0.09  -0.09
   5   6     0.04  -0.06  -0.04     0.06  -0.11  -0.05     0.05  -0.13  -0.07
   6   6    -0.00  -0.02   0.00    -0.00  -0.01   0.00     0.01  -0.01  -0.00
   7   6     0.01  -0.00  -0.00     0.01  -0.00  -0.00    -0.00  -0.01   0.00
   8   8    -0.00  -0.00   0.00    -0.00  -0.00   0.00    -0.00  -0.00  -0.00
   9   8    -0.00   0.00   0.00    -0.00   0.01   0.00    -0.00   0.01   0.00
  10   6    -0.06  -0.05   0.07    -0.12  -0.11   0.13     0.04   0.05  -0.05
  11   6    -0.06   0.13   0.08     0.03  -0.07  -0.02     0.05  -0.15  -0.07
  12   1    -0.00  -0.01  -0.00     0.00   0.01  -0.00    -0.00  -0.01   0.00
  13   1    -0.01   0.02   0.05     0.01  -0.01  -0.03    -0.01   0.01   0.03
  14   1    -0.01   0.05  -0.00     0.01  -0.03   0.00    -0.00   0.02  -0.00
  15   1     0.02  -0.09   0.01    -0.00   0.03  -0.00    -0.02   0.03  -0.00
  16   1     0.01  -0.03  -0.09     0.00   0.01   0.03    -0.01   0.01   0.03
  17   1    -0.00  -0.00   0.00    -0.00  -0.01   0.00    -0.00  -0.00  -0.01
  18   1    -0.08  -0.06   0.40     0.05   0.04  -0.28    -0.05  -0.06   0.32
  19   1    -0.24  -0.34   0.02     0.16   0.24  -0.02    -0.18  -0.29   0.02
  20   1    -0.08   0.18  -0.05    -0.14   0.28  -0.07    -0.15   0.33  -0.09
  21   1    -0.03   0.10   0.19    -0.06   0.14   0.29    -0.05   0.17   0.33
  22   1     0.00   0.01  -0.00    -0.00  -0.00   0.00     0.01  -0.00  -0.00
  23   1    -0.00  -0.00  -0.00    -0.00  -0.00  -0.00    -0.00  -0.00   0.00
  24   1     0.16   0.20  -0.01     0.30   0.38  -0.01    -0.11  -0.16   0.00
  25   1     0.06   0.03  -0.26     0.12   0.04  -0.47    -0.04  -0.03   0.19
  26   1     0.05  -0.18  -0.36    -0.03   0.07   0.16    -0.04   0.18   0.36
  27   1     0.15  -0.37   0.09    -0.07   0.16  -0.04    -0.14   0.37  -0.09
                     58                     59                     60
                        a                      a                      a 
 Frequencies --  1511.8107              1741.3568              2886.1160
 Red. masses --     1.9550                13.3057                 1.7403
 Frc consts  --     0.0000                 0.0000                 0.0000
 IR Inten    --     0.9769               413.7764                21.6934
 Raman Activ --     0.0000                 0.0000                 0.0000
 Depolar     --     0.0000                 0.0000                 0.0000
 Atom AN      X      Y      Z        X      Y      Z        X      Y      Z
   1   7    -0.00   0.01   0.00    -0.00  -0.00  -0.00     0.00  -0.00   0.00
   2   6    -0.00   0.01   0.01     0.00   0.00   0.00    -0.00   0.01  -0.01
   3   6    -0.03   0.01   0.01     0.00   0.00  -0.00    -0.02   0.04   0.25
   4   6    -0.05  -0.09   0.08    -0.00  -0.01  -0.00    -0.01  -0.02  -0.02
   5   6     0.06  -0.15  -0.07    -0.00   0.00  -0.00    -0.00   0.01  -0.01
   6   6     0.03  -0.01  -0.01     0.04  -0.02  -0.02     0.00   0.01   0.04
   7   6    -0.01  -0.01  -0.00    -0.27   0.70   0.22    -0.00   0.00   0.00
   8   8     0.00   0.00  -0.00    -0.01  -0.07  -0.01    -0.00   0.00  -0.00
   9   8    -0.00   0.01   0.00     0.19  -0.54  -0.17     0.00  -0.00  -0.00
  10   6     0.07   0.09  -0.09     0.01  -0.01  -0.00    -0.00  -0.01  -0.01
  11   6    -0.03   0.12   0.05    -0.00   0.00  -0.00    -0.00   0.01  -0.02
  12   1     0.00   0.01   0.00     0.00   0.00   0.00    -0.00   0.00   0.00
  13   1     0.01  -0.01  -0.02     0.00   0.00   0.00    -0.00   0.00   0.00
  14   1     0.01  -0.02   0.00     0.00   0.00  -0.00    -0.00  -0.00  -0.01
  15   1     0.01  -0.02   0.00     0.00   0.00   0.00    -0.01   0.00   0.05
  16   1     0.01  -0.01  -0.02     0.00   0.00  -0.00     0.01  -0.01   0.00
  17   1     0.04  -0.01   0.01    -0.00  -0.00   0.00     0.06  -0.14  -0.92
  18   1     0.05   0.04  -0.28    -0.01   0.00   0.00     0.04   0.07   0.02
  19   1     0.16   0.25  -0.02     0.00   0.00  -0.00    -0.01   0.01   0.07
  20   1    -0.16   0.37  -0.10    -0.02   0.01   0.00    -0.00   0.01   0.03
  21   1    -0.07   0.18   0.37    -0.01   0.00   0.01     0.01  -0.03   0.01
  22   1    -0.02  -0.00  -0.00     0.03   0.00   0.00    -0.00  -0.02  -0.16
  23   1     0.00   0.00   0.00     0.04   0.10   0.01    -0.00  -0.00   0.00
  24   1    -0.20  -0.27   0.01    -0.00   0.00  -0.00    -0.00   0.00   0.04
  25   1    -0.08  -0.03   0.33     0.01  -0.00  -0.00     0.02   0.03   0.01
  26   1     0.03  -0.13  -0.26    -0.00  -0.00  -0.00     0.02  -0.05   0.02
  27   1     0.10  -0.27   0.06     0.00  -0.00   0.00    -0.00   0.02   0.07
                     61                     62                     63
                        a                      a                      a 
 Frequencies --  2887.5881              2917.1712              2923.0870
 Red. masses --     1.7433                 1.8994                 1.9341
 Frc consts  --     0.0000                 0.0000                 0.0000
 IR Inten    --     4.3786                58.1571                 3.5040
 Raman Activ --     0.0000                 0.0000                 0.0000
 Depolar     --     0.0000                 0.0000                 0.0000
 Atom AN      X      Y      Z        X      Y      Z        X      Y      Z
   1   7    -0.00   0.00   0.00    -0.00   0.00  -0.00    -0.00  -0.00  -0.00
   2   6     0.00  -0.00   0.00     0.00  -0.00  -0.00     0.00  -0.00   0.00
   3   6     0.00  -0.01  -0.05     0.00   0.01   0.02    -0.00  -0.00  -0.00
   4   6    -0.00  -0.00  -0.00     0.12   0.20   0.15    -0.01  -0.01   0.01
   5   6    -0.00   0.01  -0.02     0.00   0.01  -0.03    -0.06   0.12  -0.20
   6   6     0.00   0.04   0.25     0.00  -0.00   0.00     0.00   0.01  -0.01
   7   6    -0.00   0.00   0.01    -0.00   0.00   0.00     0.00   0.00   0.00
   8   8     0.00  -0.00  -0.00     0.00  -0.00  -0.00    -0.00  -0.00   0.00
   9   8     0.00  -0.00  -0.00     0.00  -0.00  -0.00     0.00  -0.00  -0.00
  10   6    -0.01  -0.02  -0.02    -0.01  -0.02  -0.01     0.06   0.10   0.10
  11   6    -0.00   0.00  -0.00    -0.01   0.02  -0.04     0.01  -0.01   0.00
  12   1     0.00  -0.00  -0.00     0.00  -0.00  -0.00    -0.00   0.00  -0.00
  13   1     0.00  -0.00  -0.00    -0.00  -0.02   0.01     0.00   0.00  -0.00
  14   1     0.00   0.00   0.00    -0.00   0.00   0.00     0.00   0.00   0.00
  15   1     0.00  -0.00  -0.01     0.00   0.00   0.01     0.00  -0.00  -0.01
  16   1    -0.00   0.00  -0.00    -0.00   0.01  -0.00    -0.00   0.01  -0.00
  17   1    -0.01   0.03   0.17     0.01  -0.01  -0.08    -0.00  -0.00   0.01
  18   1     0.01   0.01   0.00    -0.46  -0.71  -0.20     0.04   0.06   0.02
  19   1     0.00   0.00   0.00     0.04  -0.02  -0.35     0.00  -0.01  -0.07
  20   1    -0.01   0.02   0.07    -0.01   0.03   0.12    -0.04   0.10   0.38
  21   1     0.02  -0.04   0.02     0.02  -0.03   0.02     0.27  -0.55   0.32
  22   1    -0.00  -0.14  -0.93    -0.00  -0.00  -0.01     0.00   0.00   0.02
  23   1    -0.00   0.00   0.00     0.00  -0.00  -0.00    -0.00   0.00  -0.00
  24   1    -0.01   0.01   0.07    -0.00  -0.00   0.02     0.03  -0.02  -0.27
  25   1     0.03   0.04   0.01     0.04   0.06   0.02    -0.24  -0.35  -0.10
  26   1     0.00  -0.01   0.00     0.04  -0.09   0.05    -0.02   0.04  -0.03
  27   1     0.00  -0.00   0.00    -0.01   0.02   0.08    -0.00   0.00   0.04
                     64                     65                     66
                        a                      a                      a 
 Frequencies --  2925.3148              2928.7080              2958.0934
 Red. masses --     1.9311                 1.8839                 1.5531
 Frc consts  --     0.0000                 0.0000                 0.0000
 IR Inten    --     9.0418                40.8030                 2.6751
 Raman Activ --     0.0000                 0.0000                 0.0000
 Depolar     --     0.0000                 0.0000                 0.0000
 Atom AN      X      Y      Z        X      Y      Z        X      Y      Z
   1   7     0.00  -0.00  -0.00    -0.00  -0.00   0.00     0.00  -0.00   0.00
   2   6     0.00  -0.00   0.00     0.00  -0.00   0.00    -0.01   0.04  -0.05
   3   6    -0.00   0.00  -0.01    -0.00  -0.00  -0.03    -0.00   0.00   0.01
   4   6     0.01   0.00   0.00    -0.02  -0.04  -0.01    -0.04  -0.03   0.12
   5   6     0.04  -0.07   0.10    -0.02   0.04  -0.06     0.03  -0.07  -0.06
   6   6     0.00   0.01   0.03    -0.00  -0.01  -0.02    -0.00  -0.00  -0.01
   7   6    -0.00   0.00   0.00     0.00  -0.00  -0.00     0.00  -0.00  -0.00
   8   8     0.00  -0.00  -0.00    -0.00   0.00   0.00     0.00  -0.00   0.00
   9   8     0.00  -0.00  -0.00    -0.00   0.00   0.00    -0.00   0.00   0.00
  10   6     0.08   0.14   0.14    -0.06  -0.08  -0.05     0.05   0.05  -0.11
  11   6    -0.03   0.08  -0.12    -0.07   0.14  -0.18    -0.01   0.04   0.02
  12   1     0.00  -0.00  -0.00     0.00   0.00  -0.00     0.00  -0.00   0.00
  13   1    -0.00  -0.00  -0.00     0.00   0.00  -0.00    -0.00   0.01  -0.00
  14   1    -0.00   0.00   0.00     0.00   0.00   0.00     0.00  -0.00  -0.00
  15   1    -0.00   0.00   0.00    -0.00  -0.00  -0.01    -0.01   0.01   0.12
  16   1     0.00   0.00  -0.00    -0.00   0.02  -0.01     0.05  -0.16   0.06
  17   1    -0.00  -0.00   0.00    -0.01   0.01   0.09     0.00  -0.00  -0.01
  18   1    -0.02  -0.03  -0.01     0.09   0.15   0.04     0.12   0.19   0.08
  19   1    -0.00   0.00   0.02    -0.00  -0.01  -0.01     0.02  -0.07  -0.50
  20   1     0.02  -0.05  -0.17    -0.01   0.03   0.09    -0.02   0.06   0.35
  21   1    -0.15   0.31  -0.19     0.09  -0.19   0.12    -0.09   0.18  -0.13
  22   1     0.00  -0.02  -0.09     0.00   0.01   0.08    -0.00   0.01   0.03
  23   1    -0.00   0.00   0.00     0.00  -0.00  -0.00    -0.00   0.00   0.00
  24   1     0.04  -0.03  -0.37    -0.01  -0.00   0.07    -0.03   0.07   0.51
  25   1    -0.33  -0.47  -0.13     0.21   0.31   0.10    -0.16  -0.23  -0.09
  26   1     0.15  -0.32   0.18     0.27  -0.60   0.35     0.05  -0.11   0.07
  27   1    -0.02   0.06   0.27    -0.03   0.08   0.29     0.01  -0.03  -0.17
                     67                     68                     69
                        a                      a                      a 
 Frequencies --  2959.1918              2961.3546              2963.9750
 Red. masses --     1.5562                 1.7078                 1.7600
 Frc consts  --     0.0000                 0.0000                 0.0000
 IR Inten    --    28.7729                 2.3618                11.6487
 Raman Activ --     0.0000                 0.0000                 0.0000
 Depolar     --     0.0000                 0.0000                 0.0000
 Atom AN      X      Y      Z        X      Y      Z        X      Y      Z
   1   7     0.00  -0.00   0.00    -0.00   0.00  -0.00     0.00  -0.00   0.00
   2   6    -0.02   0.06  -0.06     0.03  -0.11   0.12    -0.03   0.12  -0.16
   3   6    -0.00  -0.00  -0.00     0.00   0.00   0.01    -0.00   0.01  -0.01
   4   6    -0.03  -0.03   0.08     0.01  -0.00  -0.06     0.03   0.02  -0.09
   5   6     0.03  -0.07  -0.05     0.04  -0.09  -0.11     0.01  -0.01  -0.03
   6   6    -0.00  -0.00   0.01    -0.00  -0.00  -0.01    -0.00  -0.00   0.00
   7   6    -0.00  -0.00   0.00    -0.00  -0.00  -0.00    -0.00  -0.00   0.00
   8   8    -0.00   0.00  -0.00     0.00   0.00  -0.00     0.00   0.00  -0.00
   9   8     0.00   0.00   0.00     0.00   0.00   0.00     0.00   0.00   0.00
  10   6    -0.06  -0.06   0.12    -0.02  -0.01   0.04    -0.01   0.00   0.04
  11   6     0.02  -0.06  -0.03    -0.02   0.04   0.07    -0.03   0.07   0.10
  12   1    -0.00   0.00   0.00     0.00  -0.00  -0.00    -0.00  -0.00   0.00
  13   1    -0.00   0.01  -0.00     0.00  -0.01   0.00    -0.00   0.01  -0.00
  14   1     0.00  -0.00  -0.00    -0.00   0.00   0.01     0.00  -0.00  -0.01
  15   1    -0.01   0.01   0.13     0.03  -0.03  -0.26    -0.04   0.03   0.37
  16   1     0.08  -0.24   0.09    -0.14   0.43  -0.17     0.16  -0.48   0.19
  17   1    -0.00  -0.00   0.00     0.00  -0.00  -0.02    -0.00   0.00   0.02
  18   1     0.10   0.15   0.06    -0.02  -0.03  -0.02    -0.08  -0.13  -0.05
  19   1     0.02  -0.05  -0.35    -0.01   0.03   0.22    -0.01   0.05   0.36
  20   1    -0.02   0.05   0.31    -0.04   0.10   0.56    -0.01   0.02   0.12
  21   1    -0.09   0.19  -0.13    -0.11   0.23  -0.17    -0.01   0.01  -0.01
  22   1     0.00  -0.00  -0.01    -0.00   0.00   0.02     0.00   0.00  -0.00
  23   1     0.00  -0.00   0.00    -0.00   0.00   0.00     0.00   0.00  -0.00
  24   1     0.03  -0.08  -0.54     0.01  -0.02  -0.16     0.01  -0.02  -0.15
  25   1     0.19   0.29   0.11     0.04   0.06   0.03     0.01   0.02   0.01
  26   1    -0.08   0.18  -0.12     0.05  -0.10   0.08     0.09  -0.19   0.14
  27   1    -0.01   0.04   0.25     0.01  -0.05  -0.32     0.02  -0.08  -0.48
                     70                     71                     72
                        a                      a                      a 
 Frequencies --  2966.3137              2989.2732              3198.6809
 Red. masses --     1.6380                 1.5444                 2.0276
 Frc consts  --     0.0000                 0.0000                 0.0000
 IR Inten    --    79.3953                 9.4991                93.3597
 Raman Activ --     0.0000                 0.0000                 0.0000
 Depolar     --     0.0000                 0.0000                 0.0000
 Atom AN      X      Y      Z        X      Y      Z        X      Y      Z
   1   7     0.00   0.00  -0.00    -0.00   0.00   0.00     0.23  -0.15  -0.05
   2   6    -0.02   0.05  -0.02     0.06  -0.13  -0.17     0.00  -0.01  -0.00
   3   6    -0.00  -0.00  -0.03     0.01  -0.01  -0.02    -0.00   0.00   0.00
   4   6     0.03   0.01  -0.12    -0.00  -0.00  -0.01     0.00   0.00   0.00
   5   6     0.02  -0.05  -0.09     0.00  -0.00  -0.00     0.00  -0.00  -0.00
   6   6    -0.00  -0.00  -0.02    -0.00  -0.00  -0.00    -0.00   0.00   0.00
   7   6     0.00  -0.00  -0.00    -0.00  -0.00  -0.00     0.00   0.00  -0.00
   8   8     0.00  -0.00   0.00     0.00   0.00  -0.00    -0.00  -0.00  -0.00
   9   8    -0.00   0.00   0.00    -0.00   0.00   0.00     0.00  -0.00  -0.00
  10   6     0.02   0.01  -0.08     0.00  -0.00  -0.01     0.00   0.00  -0.00
  11   6     0.03  -0.07  -0.12     0.01  -0.01  -0.02     0.00  -0.00   0.00
  12   1    -0.00   0.00   0.00     0.00  -0.00  -0.00    -0.78   0.18   0.18
  13   1    -0.00   0.00  -0.00     0.00  -0.02   0.01    -0.08   0.40  -0.20
  14   1     0.00   0.00   0.00     0.00  -0.00  -0.02     0.00  -0.00   0.20
  15   1    -0.01   0.01   0.01    -0.07   0.02   0.82    -0.00   0.00   0.01
  16   1     0.06  -0.19   0.08    -0.14   0.43  -0.21    -0.01   0.01  -0.01
  17   1    -0.00   0.01   0.07    -0.00   0.01   0.04    -0.00  -0.00   0.00
  18   1    -0.07  -0.11  -0.05     0.00   0.00  -0.00    -0.01  -0.01  -0.00
  19   1    -0.02   0.07   0.48    -0.00   0.00   0.03     0.00   0.00  -0.00
  20   1    -0.03   0.07   0.38    -0.00   0.00   0.02    -0.00   0.00   0.00
  21   1    -0.05   0.10  -0.08    -0.00   0.01  -0.01     0.00  -0.00   0.00
  22   1     0.00   0.01   0.05     0.00   0.00   0.00    -0.00   0.00  -0.00
  23   1    -0.00   0.00  -0.00    -0.00  -0.00  -0.00    -0.00   0.00   0.00
  24   1    -0.02   0.04   0.32    -0.00   0.00   0.02    -0.00   0.00   0.00
  25   1    -0.05  -0.07  -0.03    -0.00  -0.00  -0.00     0.00  -0.00  -0.00
  26   1    -0.07   0.15  -0.12    -0.02   0.04  -0.03     0.00  -0.00   0.00
  27   1    -0.02   0.09   0.55    -0.00   0.02   0.09     0.00   0.00  -0.00
                     73                     74                     75
                        a                      a                      a 
 Frequencies --  3205.5232              3225.9077              3419.4682
 Red. masses --     2.0434                 1.2798                 1.8545
 Frc consts  --     0.0000                 0.0000                 0.0000
 IR Inten    --    80.3169                23.1040                62.6021
 Raman Activ --     0.0000                 0.0000                 0.0000
 Depolar     --     0.0000                 0.0000                 0.0000
 Atom AN      X      Y      Z        X      Y      Z        X      Y      Z
   1   7    -0.02  -0.12   0.25     0.07   0.11   0.07    -0.00  -0.00  -0.00
   2   6     0.00  -0.00   0.01     0.00   0.01   0.01    -0.00   0.00   0.00
   3   6     0.00  -0.00  -0.00    -0.00  -0.00  -0.00     0.00   0.00   0.00
   4   6     0.00   0.00   0.00    -0.00  -0.00  -0.00     0.00   0.00  -0.00
   5   6     0.00   0.00  -0.00     0.00  -0.00   0.00     0.00   0.00   0.00
   6   6    -0.00   0.00  -0.00    -0.00  -0.00   0.00    -0.00   0.00  -0.00
   7   6     0.00   0.00  -0.00     0.00  -0.00  -0.00     0.01   0.01  -0.00
   8   8    -0.00  -0.00  -0.00     0.00  -0.00  -0.00     0.22  -0.07  -0.07
   9   8    -0.00  -0.00   0.00    -0.00   0.00   0.00     0.00  -0.00  -0.00
  10   6     0.00   0.00  -0.00     0.00   0.00  -0.00    -0.00  -0.00   0.00
  11   6    -0.00  -0.00  -0.00    -0.00   0.00   0.00    -0.00  -0.00  -0.00
  12   1     0.16  -0.05  -0.01    -0.46   0.12   0.11     0.00  -0.00  -0.00
  13   1    -0.14   0.55  -0.23     0.13  -0.52   0.25     0.00  -0.00  -0.00
  14   1     0.07  -0.06  -0.71     0.06  -0.03  -0.62     0.00   0.00   0.00
  15   1     0.00   0.00  -0.02     0.00  -0.00  -0.02     0.00  -0.00  -0.00
  16   1    -0.00   0.01  -0.01     0.00  -0.01   0.01     0.00  -0.00   0.00
  17   1     0.00   0.00   0.00     0.00   0.00   0.00    -0.00  -0.00  -0.00
  18   1    -0.01  -0.01  -0.00     0.01   0.01   0.00    -0.00  -0.00  -0.00
  19   1     0.00   0.00   0.00    -0.00  -0.00  -0.00    -0.00   0.00   0.00
  20   1    -0.00   0.00  -0.00    -0.00  -0.00   0.00     0.00  -0.00  -0.00
  21   1     0.00  -0.00   0.00    -0.00   0.00  -0.00     0.00  -0.00   0.00
  22   1     0.00   0.00   0.00     0.00  -0.00  -0.00    -0.00   0.00   0.00
  23   1    -0.00   0.00  -0.00    -0.00   0.00   0.00    -0.89   0.26   0.28
  24   1    -0.00  -0.00  -0.00    -0.00   0.00   0.00     0.00  -0.00  -0.00
  25   1    -0.00  -0.00  -0.00    -0.00  -0.00  -0.00     0.00   0.00   0.00
  26   1     0.00  -0.00  -0.00     0.00  -0.00   0.00    -0.00   0.00  -0.00
  27   1    -0.00   0.00   0.00     0.00  -0.00  -0.00    -0.00   0.00   0.00
