37
 energy: -58.263120142958 gnorm: 0.000327050364 xtb: 6.5.1 (fef0646)
N            0.79615896222073       -0.72454786092216        1.66879995583121
C            1.99142175608911        0.09009996659228        1.86130530689103
C            3.22466006856262       -0.65794709372079        1.33481011734430
O            4.39701839057412        0.10460755483758        1.47805764760624
C            5.01148027218852        0.20539607039712        2.69298478193186
C            6.11873729329144        1.07963339166055        2.74249542394664
C            6.54035514128961        1.81929278261708        1.60023092493488
C            7.60342529452131        2.65511435041168        1.66034112862550
C            6.83108430342196        1.22855524439581        3.95441076495537
C            6.43768979712268        0.50768562083057        5.10934061270175
C            5.33960812643702       -0.34364185585986        5.01866308957749
C            4.63823836712805       -0.49119988841538        3.83625740209421
C            7.17775016212598        0.67853633845309        6.31539660798633
C            8.24227006777898        1.51113162416750        6.37195832393563
C            8.66386693352013        2.25136473701695        5.22737448439597
C            9.75880350752938        3.11530610417727        5.26396022548163
C           10.14110689900598        3.81954867484480        4.13628154759939
C            9.44563416527435        3.68082478341032        2.94995794038853
C            8.34411097411231        2.82652808573531        2.86556131542308
C            7.94482335391057        2.10158367385616        4.01515469835026
Cl           0.51686928844794       -1.60600663695253       -1.14208728620235
H           -0.03796996415880       -0.20892227850020        1.92554406342980
H            0.83783926314522       -1.57004238268428        2.22839885376624
H            0.64148677465272       -1.18287670045069        0.13870629163950
H            2.15308791272903        0.36511183624324        2.91356610244695
H            1.87218056261712        1.01122213142068        1.28706799295974
H            3.11418797045679       -0.82057369966558        0.26017176591600
H            3.31881945594397       -1.63638034955867        1.82189002502579
H            5.98336920502414        1.69026821200548        0.68551426790780
H            7.91456510470114        3.21278216416214        0.78835388212782
H            5.02887305184485       -0.90118347521015        5.89075377791318
H            3.79846489063069       -1.16902558814545        3.82154441100018
H            6.86461809112942        0.12101655367298        7.18709163752137
H            8.79933456632634        1.63419814118040        7.29006182823744
H           10.30905902512354        3.22991800962705        6.18703373675710
H           10.99187080842576        4.48415880363337        4.18387034128517
H            9.75090015685286        4.23467295473547        2.07368600826447
