      -----------------------------------------------------------      
     |                   =====================                   |     
     |                           x T B                           |     
     |                   =====================                   |     
     |                         S. Grimme                         |     
     |          Mulliken Center for Theoretical Chemistry        |     
     |                    University of Bonn                     |     
      -----------------------------------------------------------      

   * xtb version 6.5.1 (fef0646) compiled by 'conda@b96dff2e9fd6' on 2023-01-04

   xtb is free software: you can redistribute it and/or modify it under
   the terms of the GNU Lesser General Public License as published by
   the Free Software Foundation, either version 3 of the License, or
   (at your option) any later version.
   
   xtb is distributed in the hope that it will be useful,
   but WITHOUT ANY WARRANTY; without even the implied warranty of
   MERCHANTABILITY or FITNESS FOR A PARTICULAR PURPOSE.  See the
   GNU Lesser General Public License for more details.
   
   Cite this work as:
   * C. Bannwarth, E. Caldeweyher, S. Ehlert, A. Hansen, P. Pracht,
     J. Seibert, S. Spicher, S. Grimme, WIREs Comput. Mol. Sci., 2020, 11,
     e01493. DOI: 10.1002/wcms.1493
   
   for GFN2-xTB:
   * C. Bannwarth, S. Ehlert and S. Grimme., J. Chem. Theory Comput., 2019,
     15, 1652-1671. DOI: 10.1021/acs.jctc.8b01176
   for GFN1-xTB:
   * S. Grimme, C. Bannwarth, P. Shushkov, J. Chem. Theory Comput., 2017,
     13, 1989-2009. DOI: 10.1021/acs.jctc.7b00118
   for GFN0-xTB:
   * P. Pracht, E. Caldeweyher, S. Ehlert, S. Grimme, ChemRxiv, 2019, preprint.
     DOI: 10.26434/chemrxiv.8326202.v1
   for GFN-FF:
   * S. Spicher and S. Grimme, Angew. Chem. Int. Ed., 2020, 59, 15665-15673.
     DOI: 10.1002/anie.202004239
   
   for ALPB and GBSA implicit solvation:
   * S. Ehlert, M. Stahn, S. Spicher, S. Grimme, J. Chem. Theory Comput.,
     2021, 17, 4250-4261. DOI: 10.1021/acs.jctc.1c00471
   
   for DFT-D4:
   * E. Caldeweyher, C. Bannwarth and S. Grimme, J. Chem. Phys., 2017,
     147, 034112. DOI: 10.1063/1.4993215
   * E. Caldeweyher, S. Ehlert, A. Hansen, H. Neugebauer, S. Spicher,
     C. Bannwarth and S. Grimme, J. Chem. Phys., 2019, 150, 154122.
     DOI: 10.1063/1.5090222
   * E. Caldeweyher, J.-M. Mewes, S. Ehlert and S. Grimme, Phys. Chem. Chem. Phys.
     2020, 22, 8499-8512. DOI: 10.1039/D0CP00502A
   
   for sTDA-xTB:
   * S. Grimme and C. Bannwarth, J. Chem. Phys., 2016, 145, 054103.
     DOI: 10.1063/1.4959605
   
   in the mass-spec context:
   * V. Asgeirsson, C. Bauer and S. Grimme, Chem. Sci., 2017, 8, 4879.
     DOI: 10.1039/c7sc00601b
   * J. Koopman and S. Grimme, ACS Omega 2019, 4, 12, 15120-15133.
     DOI: 10.1021/acsomega.9b02011
   
   for metadynamics refer to:
   * S. Grimme, J. Chem. Theory Comput., 2019, 155, 2847-2862
     DOI: 10.1021/acs.jctc.9b00143
   
   for SPH calculations refer to:
   * S. Spicher and S. Grimme, J. Chem. Theory Comput., 2021, 17, 1701-1714
     DOI: 10.1021/acs.jctc.0c01306
   
   with help from (in alphabetical order)
   P. Atkinson, C. Bannwarth, F. Bohle, G. Brandenburg, E. Caldeweyher
   M. Checinski, S. Dohm, S. Ehlert, S. Ehrlich, I. Gerasimov, C. Hölzer
   A. Katbashev, J. Koopman, C. Lavigne, S. Lehtola, F. März, M. Müller,
   F. Musil, H. Neugebauer, J. Pisarek, C. Plett, P. Pracht, F. Pultar,
   J. Seibert, P. Shushkov, S. Spicher, M. Stahn, M. Steiner, T. Strunk,
   J. Stückrath, T. Rose, and J. Unsleber
   
 * started run on 2023/01/24 at 15:44:50.872     

           -------------------------------------------------
          |                Calculation Setup                |
           -------------------------------------------------

          program call               : xtb init.xyz --opt -c 1 -u 0 -P 16 --alpb water
          hostname                   : gpg-woodward
          coordinate file            : init.xyz
          omp threads                :                    16

   ID    Z sym.   atoms
    1    7 N      1
    2    6 C      2-11
    3   16 S      12, 13
    4    1 H      14-25

           -------------------------------------------------
          |                 G F N 2 - x T B                 |
           -------------------------------------------------

        Reference                      10.1021/acs.jctc.8b01176
      * Hamiltonian:
        H0-scaling (s, p, d)           1.850000    2.230000    2.230000
        zeta-weighting                 0.500000
      * Dispersion:
        s8                             2.700000
        a1                             0.520000
        a2                             5.000000
        s9                             5.000000
      * Repulsion:
        kExp                           1.500000    1.000000
        rExp                           1.000000
      * Coulomb:
        alpha                          2.000000
        third order                    shell-resolved
        anisotropic                    true
        a3                             3.000000
        a5                             4.000000
        cn-shift                       1.200000
        cn-exp                         4.000000
        max-rad                        5.000000

      * Solvation model:               ALPB
        Solvent                        water
        Parameter file                 internal GFN2-xTB/ALPB
        Dielectric constant                8.0200E+01
        Reference state                gsolv [1 M gas/solution]
        Free energy shift                  1.0808E-03 Eh       6.7819E-01 kcal/mol
        Temperature                        2.9815E+02 K
        Density                            1.0000E+00 kg/L
        Solvent mass                       1.8000E+01 g/mol
        Interaction kernel             P16
        Born radius scaling (c1)           1.4744E+00
        Born radii integrator          GBOBC
        Born offset                        0.0000E+00 a0       0.0000E+00 AA
        H-bond correction              true
        Ion screening                  false
        Surface tension                    1.0000E-05 Eh       1.5569E+01 dyn/cm
        Grid points                               230 per atom

          ...................................................
          :                      SETUP                      :
          :.................................................:
          :  # basis functions                  76          :
          :  # atomic orbitals                  74          :
          :  # shells                           40          :
          :  # electrons                        68          :
          :  max. iterations                   250          :
          :  Hamiltonian                  GFN2-xTB          :
          :  restarted?                      false          :
          :  GBSA solvation                   true          :
          :  PC potential                    false          :
          :  electronic temp.          300.0000000     K    :
          :  accuracy                    1.0000000          :
          :  -> integral cutoff          0.2500000E+02      :
          :  -> integral neglect         0.1000000E-07      :
          :  -> SCF convergence          0.1000000E-05 Eh   :
          :  -> wf. convergence          0.1000000E-03 e    :
          :  Broyden damping             0.4000000          :
          ...................................................

 iter      E             dE          RMSdq      gap      omega  full diag
   1    -37.0269840 -0.370270E+02  0.402E+00    2.82       0.0  T
   2    -37.1056655 -0.786814E-01  0.243E+00    2.82       1.0  T
   3    -37.1060129 -0.347457E-03  0.123E+00    2.83       1.0  T
   4    -37.1097309 -0.371801E-02  0.750E-01    2.82       1.0  T
   5    -37.1147327 -0.500178E-02  0.276E-01    2.81       1.0  T
   6    -37.1148710 -0.138276E-03  0.173E-01    2.81       1.0  T
   7    -37.1150467 -0.175685E-03  0.726E-02    2.80       1.0  T
   8    -37.1150663 -0.195981E-04  0.340E-02    2.80       1.0  T
   9    -37.1150690 -0.269231E-05  0.186E-02    2.80       1.1  T
  10    -37.1150719 -0.293383E-05  0.897E-03    2.80       2.2  T
  11    -37.1150723 -0.379587E-06  0.407E-03    2.80       4.9  T
  12    -37.1150723 -0.596941E-07  0.151E-03    2.80      13.3  T
  13    -37.1150723 -0.970275E-08  0.872E-04    2.80      22.9  T
  14    -37.1150724 -0.244686E-08  0.202E-04    2.80      98.8  T

   *** convergence criteria satisfied after 14 iterations ***

         #    Occupation            Energy/Eh            Energy/eV
      -------------------------------------------------------------
         1        2.0000           -0.7403734             -20.1466
       ...           ...                  ...                  ...
        28        2.0000           -0.4540881             -12.3564
        29        2.0000           -0.4495491             -12.2329
        30        2.0000           -0.4449277             -12.1071
        31        2.0000           -0.4138401             -11.2612
        32        2.0000           -0.4029439             -10.9647
        33        2.0000           -0.4011332             -10.9154
        34        2.0000           -0.3735564             -10.1650 (HOMO)
        35                         -0.2705393              -7.3617 (LUMO)
        36                         -0.2313377              -6.2950
        37                         -0.2115234              -5.7558
        38                         -0.1973780              -5.3709
        39                         -0.1867881              -5.0828
       ...                                ...                  ...
        74                          0.6822614              18.5653
      -------------------------------------------------------------
                  HL-Gap            0.1030172 Eh            2.8032 eV
             Fermi-level           -0.3220479 Eh           -8.7634 eV

 SCC (total)                   0 d,  0 h,  0 min,  0.126 sec
 SCC setup                      ...        0 min,  0.001 sec (  0.854%)
 Dispersion                     ...        0 min,  0.001 sec (  0.455%)
 classical contributions        ...        0 min,  0.000 sec (  0.171%)
 integral evaluation            ...        0 min,  0.005 sec (  4.052%)
 iterations                     ...        0 min,  0.112 sec ( 89.106%)
 molecular gradient             ...        0 min,  0.006 sec (  4.523%)
 printout                       ...        0 min,  0.001 sec (  0.600%)

         :::::::::::::::::::::::::::::::::::::::::::::::::::::
         ::                     SUMMARY                     ::
         :::::::::::::::::::::::::::::::::::::::::::::::::::::
         :: total energy             -36.594278455991 Eh    ::
         :: total w/o Gsasa/hb       -36.585946669590 Eh    ::
         :: gradient norm              0.052276072203 Eh/a0 ::
         :: HOMO-LUMO gap              2.803239955046 eV    ::
         ::.................................................::
         :: SCC energy               -37.115072350082 Eh    ::
         :: -> isotropic ES            0.130333167804 Eh    ::
         :: -> anisotropic ES         -0.028055407175 Eh    ::
         :: -> anisotropic XC          0.021408252485 Eh    ::
         :: -> dispersion             -0.024865349551 Eh    ::
         :: -> Gsolv                  -0.119098796686 Eh    ::
         ::    -> Gelec               -0.110767010285 Eh    ::
         ::    -> Gsasa                0.000892606230 Eh    ::
         ::    -> Ghb                 -0.010305152330 Eh    ::
         ::    -> Gshift               0.001080759698 Eh    ::
         :: repulsion energy           0.520836534523 Eh    ::
         :: add. restraining           0.000000000000 Eh    ::
         :: total charge               1.000000000000 e     ::
         :::::::::::::::::::::::::::::::::::::::::::::::::::::

      ----------------------------------------------------------- 
     |                   =====================                   |
     |                        A N C O P T                        |
     |                   =====================                   |
     |               Approximate Normal Coordinate               |
     |                Rational Function Optimizer                |
      ----------------------------------------------------------- 

          ...................................................
          :                      SETUP                      :
          :.................................................:
          :   optimization level            normal          :
          :   max. optcycles                   200          :
          :   ANC micro-cycles                  20          :
          :   degrees of freedom                69          :
          :.................................................:
          :   RF solver                   davidson          :
          :   write xtbopt.log                true          :
          :   linear?                        false          :
          :   energy convergence         0.5000000E-05 Eh   :
          :   grad. convergence          0.1000000E-02 Eh/α :
          :   maximium RF displ.         1.0000000          :
          :   Hlow (freq-cutoff)         0.1000000E-01      :
          :   Hmax (freq-cutoff)         5.0000000          :
          :   S6 in model hess.         20.0000000          :
          ...................................................

generating ANC from model Hessian ...
Using Lindh-Hessian (1995)
 Shifting diagonal of input Hessian by    9.3301020836931772E-003
 Lowest  eigenvalues of input Hessian
    0.000000    0.000000    0.000000    0.000000    0.000000    0.000000
    0.010000    0.010696    0.011506    0.012587    0.013300    0.015131
    0.020857    0.022796    0.024472    0.026194    0.027308    0.031987
 Highest eigenvalues
    1.636269    1.659669    1.777230    1.801512    1.843560    1.919348


........................................................................
.............................. CYCLE    1 ..............................
........................................................................
   1    -37.1150724 -0.371151E+02  0.118E-04    2.80       0.0  T
   2    -37.1150724 -0.398828E-10  0.780E-05    2.80     256.3  T
   3    -37.1150724 -0.160156E-10  0.554E-05    2.80     360.9  T
     SCC iter.                  ...        0 min,  0.013 sec
     gradient                   ...        0 min,  0.004 sec
 * total energy  :   -36.5942785 Eh     change       -0.2711502E-09 Eh
   gradient norm :     0.0522761 Eh/α   predicted     0.0000000E+00 (-100.00%)
   displ. norm   :     0.1986942 α      lambda       -0.4937140E-02
   maximum displ.:     0.0715163 α      in ANC's #19, #4, #13, ...

........................................................................
.............................. CYCLE    2 ..............................
........................................................................
   1    -37.1394374 -0.371394E+02  0.176E-01    2.79       0.0  T
   2    -37.1394818 -0.443926E-04  0.101E-01    2.80       1.0  T
   3    -37.1394736  0.816487E-05  0.412E-02    2.80       1.0  T
   4    -37.1394855 -0.118671E-04  0.221E-02    2.80       1.0  T
   5    -37.1394900 -0.457067E-05  0.719E-03    2.80       2.8  T
   6    -37.1394900 -0.169805E-07  0.399E-03    2.80       5.0  T
   7    -37.1394902 -0.151814E-06  0.179E-03    2.80      11.2  T
   8    -37.1394902 -0.393712E-08  0.781E-04    2.80      25.6  T
   9    -37.1394902 -0.300358E-08  0.414E-04    2.80      48.3  T
     SCC iter.                  ...        0 min,  0.032 sec
     gradient                   ...        0 min,  0.003 sec
 * total energy  :   -36.5975823 Eh     change       -0.3303873E-02 Eh
   gradient norm :     0.0237919 Eh/α   predicted    -0.2566310E-02 ( -22.32%)
   displ. norm   :     0.2076563 α      lambda       -0.1426279E-02
   maximum displ.:     0.1478910 α      in ANC's #4, #7, #5, ...

........................................................................
.............................. CYCLE    3 ..............................
........................................................................
   1    -37.1493762 -0.371494E+02  0.133E-01    2.76       0.0  T
   2    -37.1494058 -0.296110E-04  0.730E-02    2.77       1.0  T
   3    -37.1494020  0.384938E-05  0.324E-02    2.77       1.0  T
   4    -37.1494084 -0.642095E-05  0.173E-02    2.77       1.2  T
   5    -37.1494111 -0.266159E-05  0.596E-03    2.77       3.4  T
   6    -37.1494111 -0.103625E-07  0.342E-03    2.77       5.8  T
   7    -37.1494112 -0.110137E-06  0.158E-03    2.77      12.7  T
   8    -37.1494112 -0.303691E-08  0.711E-04    2.77      28.1  T
   9    -37.1494112 -0.284365E-08  0.376E-04    2.77      53.1  T
     SCC iter.                  ...        0 min,  0.032 sec
     gradient                   ...        0 min,  0.003 sec
 * total energy  :   -36.5984971 Eh     change       -0.9147567E-03 Eh
   gradient norm :     0.0078101 Eh/α   predicted    -0.7441944E-03 ( -18.65%)
   displ. norm   :     0.2319841 α      lambda       -0.5316288E-03
   maximum displ.:     0.1951653 α      in ANC's #4, #1, #5, ...

........................................................................
.............................. CYCLE    4 ..............................
........................................................................
   1    -37.1492656 -0.371493E+02  0.118E-01    2.73       0.0  T
   2    -37.1492751 -0.952363E-05  0.649E-02    2.73       1.0  T
   3    -37.1492714  0.365009E-05  0.221E-02    2.73       1.0  T
   4    -37.1492758 -0.436375E-05  0.102E-02    2.73       2.0  T
   5    -37.1492769 -0.105194E-05  0.354E-03    2.73       5.7  T
   6    -37.1492769 -0.544637E-08  0.203E-03    2.73       9.9  T
   7    -37.1492769 -0.355358E-07  0.105E-03    2.73      19.1  T
   8    -37.1492769 -0.163467E-08  0.443E-04    2.73      45.1  T
   9    -37.1492769 -0.114380E-08  0.231E-04    2.73      86.4  T
     SCC iter.                  ...        0 min,  0.032 sec
     gradient                   ...        0 min,  0.003 sec
 * total energy  :   -36.5989126 Eh     change       -0.4155186E-03 Eh
   gradient norm :     0.0055803 Eh/α   predicted    -0.2801682E-03 ( -32.57%)
   displ. norm   :     0.2843826 α      lambda       -0.4632689E-03
   maximum displ.:     0.2298095 α      in ANC's #4, #1, #6, ...

........................................................................
.............................. CYCLE    5 ..............................
........................................................................
   1    -37.1458287 -0.371458E+02  0.133E-01    2.69       0.0  T
   2    -37.1458337 -0.500888E-05  0.743E-02    2.70       1.0  T
   3    -37.1458318  0.199721E-05  0.165E-02    2.70       1.2  T
   4    -37.1458340 -0.229377E-05  0.838E-03    2.70       2.4  T
   5    -37.1458348 -0.713479E-06  0.274E-03    2.70       7.3  T
   6    -37.1458348 -0.880586E-08  0.140E-03    2.70      14.3  T
   7    -37.1458348 -0.120565E-07  0.830E-04    2.70      24.1  T
   8    -37.1458348 -0.147450E-08  0.318E-04    2.70      63.0  T
     SCC iter.                  ...        0 min,  0.028 sec
     gradient                   ...        0 min,  0.003 sec
 * total energy  :   -36.5992842 Eh     change       -0.3715673E-03 Eh
   gradient norm :     0.0085279 Eh/α   predicted    -0.2503683E-03 ( -32.62%)
   displ. norm   :     0.2765321 α      lambda       -0.3703896E-03
   maximum displ.:     0.2059373 α      in ANC's #4, #1, #3, ...

........................................................................
.............................. CYCLE    6 ..............................
........................................................................
   1    -37.1430930 -0.371431E+02  0.119E-01    2.67       0.0  T
   2    -37.1430949 -0.191821E-05  0.678E-02    2.67       1.0  T
   3    -37.1430950 -0.780211E-07  0.857E-03    2.67       2.3  T
   4    -37.1430951 -0.115245E-06  0.526E-03    2.67       3.8  T
   5    -37.1430954 -0.283750E-06  0.170E-03    2.67      11.8  T
   6    -37.1430954 -0.136946E-07  0.797E-04    2.67      25.1  T
   7    -37.1430954 -0.867914E-09  0.523E-04    2.67      38.2  T
     SCC iter.                  ...        0 min,  0.025 sec
     gradient                   ...        0 min,  0.003 sec
 * total energy  :   -36.5996009 Eh     change       -0.3167713E-03 Eh
   gradient norm :     0.0098316 Eh/α   predicted    -0.1993625E-03 ( -37.06%)
   displ. norm   :     0.4132146 α      lambda       -0.5130739E-03
   maximum displ.:     0.2923332 α      in ANC's #4, #1, #3, ...

........................................................................
.............................. CYCLE    7 ..............................
........................................................................
   1    -37.1404943 -0.371405E+02  0.169E-01    2.64       0.0  T
   2    -37.1404974 -0.317577E-05  0.963E-02    2.64       1.0  T
   3    -37.1404963  0.117630E-05  0.147E-02    2.64       1.4  T
   4    -37.1404980 -0.177084E-05  0.782E-03    2.64       2.6  T
   5    -37.1404986 -0.546969E-06  0.221E-03    2.64       9.0  T
   6    -37.1404986 -0.271965E-07  0.124E-03    2.64      16.2  T
   7    -37.1404986 -0.608943E-08  0.727E-04    2.64      27.5  T
   8    -37.1404986 -0.192790E-08  0.178E-04    2.64     112.2  T
     SCC iter.                  ...        0 min,  0.028 sec
     gradient                   ...        0 min,  0.004 sec
 * total energy  :   -36.6000173 Eh     change       -0.4163442E-03 Eh
   gradient norm :     0.0102967 Eh/α   predicted    -0.3003399E-03 ( -27.86%)
   displ. norm   :     0.4831252 α      lambda       -0.5267278E-03
   maximum displ.:     0.3301256 α      in ANC's #4, #1, #3, ...

........................................................................
.............................. CYCLE    8 ..............................
........................................................................
   1    -37.1395034 -0.371395E+02  0.190E-01    2.62       0.0  T
   2    -37.1395076 -0.417696E-05  0.108E-01    2.62       1.0  T
   3    -37.1395020  0.565158E-05  0.228E-02    2.62       1.0  T
   4    -37.1395092 -0.722764E-05  0.887E-03    2.62       2.3  T
   5    -37.1395096 -0.376725E-06  0.277E-03    2.62       7.2  T
   6    -37.1395096 -0.594679E-07  0.146E-03    2.62      13.7  T
   7    -37.1395096 -0.764258E-08  0.870E-04    2.62      23.0  T
   8    -37.1395096 -0.248466E-08  0.219E-04    2.62      91.4  T
     SCC iter.                  ...        0 min,  0.028 sec
     gradient                   ...        0 min,  0.003 sec
 * total energy  :   -36.6004144 Eh     change       -0.3971269E-03 Eh
   gradient norm :     0.0095635 Eh/α   predicted    -0.3248404E-03 ( -18.20%)
   displ. norm   :     0.3932894 α      lambda       -0.4214079E-03
   maximum displ.:     0.2465805 α      in ANC's #4, #1, #3, ...

........................................................................
.............................. CYCLE    9 ..............................
........................................................................
   1    -37.1428769 -0.371429E+02  0.151E-01    2.62       0.0  T
   2    -37.1428802 -0.333472E-05  0.859E-02    2.62       1.0  T
   3    -37.1428723  0.785895E-05  0.245E-02    2.62       1.0  T
   4    -37.1428819 -0.959974E-05  0.736E-03    2.62       2.7  T
   5    -37.1428821 -0.124140E-06  0.275E-03    2.62       7.3  T
   6    -37.1428821 -0.790770E-07  0.125E-03    2.62      16.0  T
   7    -37.1428822 -0.616791E-08  0.752E-04    2.62      26.6  T
   8    -37.1428822 -0.119061E-08  0.228E-04    2.62      87.6  T
     SCC iter.                  ...        0 min,  0.028 sec
     gradient                   ...        0 min,  0.003 sec
 * total energy  :   -36.6007274 Eh     change       -0.3129357E-03 Eh
   gradient norm :     0.0057427 Eh/α   predicted    -0.2432945E-03 ( -22.25%)
   displ. norm   :     0.3683730 α      lambda       -0.2712350E-03
   maximum displ.:     0.2105769 α      in ANC's #4, #1, #3, ...

........................................................................
.............................. CYCLE   10 ..............................
........................................................................
   1    -37.1451570 -0.371452E+02  0.145E-01    2.60       0.0  T
   2    -37.1451598 -0.279384E-05  0.819E-02    2.60       1.0  T
   3    -37.1451570  0.282622E-05  0.182E-02    2.60       1.1  T
   4    -37.1451607 -0.372205E-05  0.781E-03    2.60       2.6  T
   5    -37.1451610 -0.327365E-06  0.173E-03    2.60      11.5  T
   6    -37.1451610 -0.103593E-07  0.108E-03    2.60      18.5  T
   7    -37.1451610 -0.350328E-08  0.636E-04    2.60      31.4  T
   8    -37.1451610 -0.190090E-08  0.212E-04    2.60      94.6  T
     SCC iter.                  ...        0 min,  0.028 sec
     gradient                   ...        0 min,  0.003 sec
 * total energy  :   -36.6009177 Eh     change       -0.1903401E-03 Eh
   gradient norm :     0.0042587 Eh/α   predicted    -0.1540272E-03 ( -19.08%)
   displ. norm   :     0.2417292 α      lambda       -0.1710137E-03
   maximum displ.:     0.1442192 α      in ANC's #1, #3, #4, ...

........................................................................
.............................. CYCLE   11 ..............................
........................................................................
   1    -37.1505021 -0.371505E+02  0.996E-02    2.61       0.0  T
   2    -37.1505041 -0.193553E-05  0.573E-02    2.61       1.0  T
   3    -37.1505012  0.286060E-05  0.147E-02    2.61       1.4  T
   4    -37.1505048 -0.360892E-05  0.461E-03    2.62       4.3  T
   5    -37.1505049 -0.495314E-07  0.202E-03    2.62       9.9  T
   6    -37.1505049 -0.343224E-07  0.893E-04    2.62      22.4  T
   7    -37.1505049 -0.457751E-08  0.497E-04    2.62      40.3  T
     SCC iter.                  ...        0 min,  0.025 sec
     gradient                   ...        0 min,  0.004 sec
 * total energy  :   -36.6010047 Eh     change       -0.8696320E-04 Eh
   gradient norm :     0.0045428 Eh/α   predicted    -0.9050485E-04 (   4.07%)
   displ. norm   :     0.3583005 α      lambda       -0.1296363E-03
   maximum displ.:     0.1957325 α      in ANC's #1, #4, #3, ...

........................................................................
.............................. CYCLE   12 ..............................
........................................................................
   1    -37.1465240 -0.371465E+02  0.148E-01    2.58       0.0  T
   2    -37.1465267 -0.265663E-05  0.834E-02    2.58       1.0  T
   3    -37.1465262  0.484234E-06  0.134E-02    2.58       1.5  T
   4    -37.1465272 -0.105172E-05  0.702E-03    2.58       2.8  T
   5    -37.1465276 -0.401577E-06  0.182E-03    2.58      11.0  T
   6    -37.1465277 -0.259518E-07  0.109E-03    2.58      18.3  T
   7    -37.1465277 -0.333097E-08  0.413E-04    2.58      48.5  T
   8    -37.1465277 -0.825587E-09  0.178E-04    2.58     112.6  T
     SCC iter.                  ...        0 min,  0.028 sec
     gradient                   ...        0 min,  0.003 sec
 * total energy  :   -36.6010611 Eh     change       -0.5640028E-04 Eh
   gradient norm :     0.0049180 Eh/α   predicted    -0.7314134E-04 (  29.68%)
   displ. norm   :     0.0551947 α      lambda       -0.6368433E-04
   maximum displ.:     0.0327320 α      in ANC's #3, #6, #4, ...

........................................................................
.............................. CYCLE   13 ..............................
........................................................................
   1    -37.1483890 -0.371484E+02  0.224E-02    2.59       0.0  T
   2    -37.1483894 -0.341055E-06  0.121E-02    2.59       1.6  T
   3    -37.1483891  0.244601E-06  0.519E-03    2.60       3.9  T
   4    -37.1483895 -0.315385E-06  0.193E-03    2.60      10.3  T
   5    -37.1483895 -0.301195E-07  0.609E-04    2.60      32.8  T
   6    -37.1483895 -0.132930E-08  0.303E-04    2.60      65.9  T
     SCC iter.                  ...        0 min,  0.021 sec
     gradient                   ...        0 min,  0.003 sec
 * total energy  :   -36.6011094 Eh     change       -0.4839376E-04 Eh
   gradient norm :     0.0027599 Eh/α   predicted    -0.3194294E-04 ( -33.99%)
   displ. norm   :     0.2295361 α      lambda       -0.1071046E-03
   maximum displ.:     0.1753001 α      in ANC's #3, #6, #1, ...

........................................................................
.............................. CYCLE   14 ..............................
........................................................................
   1    -37.1489149 -0.371489E+02  0.884E-02    2.60       0.0  T
   2    -37.1489161 -0.113665E-05  0.500E-02    2.60       1.0  T
   3    -37.1489149  0.115576E-05  0.111E-02    2.60       1.8  T
   4    -37.1489164 -0.149148E-05  0.429E-03    2.60       4.7  T
   5    -37.1489165 -0.975162E-07  0.139E-03    2.60      14.3  T
   6    -37.1489165 -0.212993E-07  0.525E-04    2.60      38.1  T
   7    -37.1489165 -0.165337E-08  0.289E-04    2.60      69.3  T
     SCC iter.                  ...        0 min,  0.025 sec
     gradient                   ...        0 min,  0.004 sec
 * total energy  :   -36.6011755 Eh     change       -0.6605389E-04 Eh
   gradient norm :     0.0024725 Eh/α   predicted    -0.5638354E-04 ( -14.64%)
   displ. norm   :     0.2151450 α      lambda       -0.4680292E-04
   maximum displ.:     0.1511367 α      in ANC's #3, #6, #1, ...

........................................................................
.............................. CYCLE   15 ..............................
........................................................................
   1    -37.1479695 -0.371480E+02  0.810E-02    2.60       0.0  T
   2    -37.1479703 -0.777646E-06  0.459E-02    2.60       1.0  T
   3    -37.1479704 -0.131654E-06  0.552E-03    2.60       3.6  T
   4    -37.1479704  0.853167E-08  0.302E-03    2.60       6.6  T
   5    -37.1479705 -0.109282E-06  0.811E-04    2.60      24.7  T
   6    -37.1479705 -0.561148E-08  0.356E-04    2.60      56.1  T
     SCC iter.                  ...        0 min,  0.021 sec
     gradient                   ...        0 min,  0.003 sec
 * total energy  :   -36.6012045 Eh     change       -0.2902259E-04 Eh
   gradient norm :     0.0024575 Eh/α   predicted    -0.2450209E-04 ( -15.58%)
   displ. norm   :     0.1061794 α      lambda       -0.2653079E-04
   maximum displ.:     0.0818868 α      in ANC's #3, #6, #1, ...

........................................................................
.............................. CYCLE   16 ..............................
........................................................................
   1    -37.1480124 -0.371480E+02  0.387E-02    2.60       0.0  T
   2    -37.1480125 -0.191074E-06  0.222E-02    2.60       1.0  T
   3    -37.1480124  0.949230E-07  0.359E-03    2.60       5.6  T
   4    -37.1480126 -0.146799E-06  0.171E-03    2.60      11.7  T
   5    -37.1480126 -0.158809E-07  0.555E-04    2.60      36.1  T
   6    -37.1480126 -0.325720E-08  0.231E-04    2.60      86.7  T
     SCC iter.                  ...        0 min,  0.021 sec
     gradient                   ...        0 min,  0.003 sec
 * total energy  :   -36.6012224 Eh     change       -0.1791358E-04 Eh
   gradient norm :     0.0016227 Eh/α   predicted    -0.1341524E-04 ( -25.11%)
   displ. norm   :     0.0781704 α      lambda       -0.1514780E-04
   maximum displ.:     0.0620791 α      in ANC's #3, #10, #2, ...

........................................................................
.............................. CYCLE   17 ..............................
........................................................................
   1    -37.1489651 -0.371490E+02  0.295E-02    2.60       0.0  T
   2    -37.1489654 -0.287715E-06  0.172E-02    2.60       1.2  T
   3    -37.1489648  0.545200E-06  0.623E-03    2.60       3.2  T
   4    -37.1489655 -0.662015E-06  0.156E-03    2.60      12.9  T
   5    -37.1489655 -0.153318E-07  0.707E-04    2.60      28.3  T
   6    -37.1489655 -0.181728E-08  0.404E-04    2.60      49.5  T
     SCC iter.                  ...        0 min,  0.021 sec
     gradient                   ...        0 min,  0.003 sec
 * total energy  :   -36.6012289 Eh     change       -0.6499032E-05 Eh
   gradient norm :     0.0017370 Eh/α   predicted    -0.7600897E-05 (  16.95%)
   displ. norm   :     0.0207266 α      lambda       -0.6477858E-05
   maximum displ.:     0.0121406 α      in ANC's #4, #1, #8, ...

........................................................................
.............................. CYCLE   18 ..............................
........................................................................
   1    -37.1484830 -0.371485E+02  0.108E-02    2.59       0.0  T
   2    -37.1484830 -0.310435E-07  0.623E-03    2.59       3.2  T
   3    -37.1484829  0.637922E-07  0.234E-03    2.59       8.5  T
   4    -37.1484830 -0.778388E-07  0.574E-04    2.59      34.9  T
   5    -37.1484830 -0.114488E-08  0.251E-04    2.59      79.6  T
     SCC iter.                  ...        0 min,  0.018 sec
     gradient                   ...        0 min,  0.003 sec
 * total energy  :   -36.6012323 Eh     change       -0.3321878E-05 Eh
   gradient norm :     0.0011171 Eh/α   predicted    -0.3243099E-05 (  -2.37%)
   displ. norm   :     0.0386494 α      lambda       -0.3626702E-05
   maximum displ.:     0.0256200 α      in ANC's #3, #6, #1, ...

........................................................................
.............................. CYCLE   19 ..............................
........................................................................
   1    -37.1484632 -0.371485E+02  0.166E-02    2.59       0.0  T
   2    -37.1484632 -0.317372E-07  0.965E-03    2.59       2.1  T
   3    -37.1484631  0.136381E-06  0.302E-03    2.59       6.6  T
   4    -37.1484632 -0.160794E-06  0.669E-04    2.59      29.9  T
   5    -37.1484632 -0.714039E-09  0.262E-04    2.59      76.3  T
     SCC iter.                  ...        0 min,  0.018 sec
     gradient                   ...        0 min,  0.003 sec
 * total energy  :   -36.6012344 Eh     change       -0.2119367E-05 Eh
   gradient norm :     0.0006749 Eh/α   predicted    -0.1815654E-05 ( -14.33%)
   displ. norm   :     0.0156067 α      lambda       -0.2089261E-05
   maximum displ.:     0.0096949 α      in ANC's #6, #2, #5, ...

   *** GEOMETRY OPTIMIZATION CONVERGED AFTER 19 ITERATIONS ***

------------------------------------------------------------------------
 total energy gain   :        -0.0069559 Eh       -4.3649 kcal/mol
 total RMSD          :         0.7299725 a0        0.3863 Å
 total power (kW/mol):        -0.9611985 (step)  -29.9634 (real)
------------------------------------------------------------------------

 ANCopt (total)                0 d,  0 h,  0 min,  0.610 sec
 optimizer setup                ...        0 min,  0.000 sec (  0.021%)
 model hessian                  ...        0 min,  0.011 sec (  1.822%)
 ANC generation                 ...        0 min,  0.002 sec (  0.358%)
 coordinate transformation      ...        0 min,  0.000 sec (  0.069%)
 single point calculation       ...        0 min,  0.589 sec ( 96.673%)
 optimization log               ...        0 min,  0.002 sec (  0.284%)
 hessian update                 ...        0 min,  0.001 sec (  0.116%)
 rational function              ...        0 min,  0.002 sec (  0.348%)

================
 final structure:
================
25
 xtb: 6.5.1 (fef0646)
N            2.93084408609617       -3.34923686296438        2.11387832324479
C            2.56748131497297       -2.91922345064713        0.74623013563111
C            2.97643342521396       -1.46370996891934        0.50565433421372
C            4.45512148750405       -1.28749703780934        0.40902520945910
C            5.19633366871646       -0.93256060699743       -0.67704822977015
C            6.57968197005560       -0.86639750195256       -0.41865285969027
C            6.91134168580797       -1.17280711881148        0.87563966633464
C            8.19897394136826       -1.22694221667652        1.49293788676884
C            9.42451337866924       -0.95088155140156        0.94328391662112
C           10.48474099752462       -1.11505382546768        1.85579745022169
C           10.07100519423450       -1.51151402871569        3.08811976537514
S            8.37033688949722       -1.69466205316671        3.16371016616122
S            5.49127466479880       -1.52964003268254        1.79334698823569
H            2.67923517699263       -4.33114111626003        2.26863431514534
H            2.45501988586081       -2.76662303965060        2.81230599123445
H            3.94524236043686       -3.23587429649318        2.25597741279162
H            1.48989548093198       -3.01008122216488        0.61587268668983
H            3.06607474174966       -3.56255567615164        0.02202148948656
H            2.58681289503834       -0.83521503673507        1.30738277331964
H            2.53474577836102       -1.12468608211135       -0.43036556901838
H            4.77528781847021       -0.72005879631709       -1.64320718413975
H            7.31225709301290       -0.60250543572849       -1.15955345614494
H            9.56354568989251       -0.64012945044623       -0.07582879459119
H           11.51629539337310       -0.94279905506319        1.60568796596385
H           10.65860498142080       -1.70866453666591        3.96216961645689

 Bond Distances (Angstroems)
 ---------------------------
N1-C2=1.4790         N1-H14=1.0254        N1-H15=1.0265        N1-H16=1.0306        C2-N1=1.4790         C2-C3=1.5309         
C2-H17=1.0892        C2-H18=1.0895        C3-C2=1.5309         C3-C4=1.4923         C3-H19=1.0907        C3-H20=1.0891        
C4-C3=1.4923         C4-C5=1.3620         C4-S13=1.7460        C5-C4=1.3620         C5-C6=1.4088         C5-H21=1.0751        
C6-C5=1.4088         C6-C7=1.3708         C6-H22=1.0748        C7-C6=1.3708         C7-C8=1.4290         C7-S13=1.7280        
C8-C7=1.4290         C8-C9=1.3712         C8-S12=1.7434        C9-C8=1.3712         C9-C10=1.4084        C9-H23=1.0745        
C10-C9=1.4084        C10-C11=1.3590       C10-H24=1.0753       C11-C10=1.3590       C11-S12=1.7122       C11-H25=1.0715       
S12-C8=1.7434        S12-C11=1.7122       S13-C4=1.7460        S13-C7=1.7280        H14-N1=1.0254        H15-N1=1.0265        
H16-N1=1.0306        H17-C2=1.0892        H18-C2=1.0895        H19-C3=1.0907        H20-C3=1.0891        H21-C5=1.0751        
H22-C6=1.0748        H23-C9=1.0745        H24-C10=1.0753       H25-C11=1.0715       
 C  H  Rav=1.0811 sigma=0.0077  Rmin=1.0715  Rmax=1.0907     9
 C  C  Rav=1.4147 sigma=0.0572  Rmin=1.3590  Rmax=1.5309     9
 N  H  Rav=1.0275 sigma=0.0022  Rmin=1.0254  Rmax=1.0306     3
 N  C  Rav=1.4790 sigma=0.0000  Rmin=1.4790  Rmax=1.4790     1
 S  C  Rav=1.7324 sigma=0.0136  Rmin=1.7122  Rmax=1.7460     4

 selected bond angles (degree)
 --------------------
H14-N1-C2=110.96               H15-N1-C2=110.50               H15-N1-H14=109.09              H16-N1-C2=109.72               
H16-N1-H14=109.03              H16-N1-H15=107.46              C3-C2-N1=110.86                H17-C2-N1=109.24               
H17-C2-C3=108.95               H18-C2-N1=109.30               H18-C2-C3=109.55               H18-C2-H17=108.90              
C4-C3-C2=112.78                H19-C3-C2=109.69               H19-C3-C4=109.48               H20-C3-C2=108.83               
H20-C3-C4=108.03               H20-C3-H19=107.91              C5-C4-C3=128.44                S13-C4-C3=121.35               
S13-C4-C5=110.21               C6-C5-C4=113.60                H21-C5-C4=123.71               H21-C5-C6=122.69               
C7-C6-C5=113.59                H22-C6-C5=123.67               H22-C6-C7=122.74               C8-C7-C6=129.37                
S13-C7-C6=110.41               S13-C7-C8=120.22               C9-C8-C7=128.65                S12-C8-C7=120.84               
S12-C8-C9=110.51               C10-C9-C8=112.93               H23-C9-C8=123.65               H23-C9-C10=123.42              
C11-C10-C9=113.10              H24-C10-C9=123.56              H24-C10-C11=123.34             

 selected dihedral angles (degree)
 ---------------------------------
C3-C2-N1-H14=181.45           C3-C2-N1-H15= 60.30           C3-C2-N1-H16=301.99           H17-C2-N1-H14= 61.37          
H17-C2-N1-H15=300.23          H17-C2-N1-H16=181.92          H18-C2-N1-H14=302.31          H18-C2-N1-H15=181.17          
H18-C2-N1-H16= 62.85          C4-C3-C2-N1= 70.53            C4-C3-C2-H17=190.78           C4-C3-C2-H18=309.82           
H19-C3-C2-N1=308.23           H19-C3-C2-H17= 68.47          H19-C3-C2-H18=187.51          H20-C3-C2-N1=190.38           
H20-C3-C2-H17=310.63          H20-C3-C2-H18= 69.67          C5-C4-C3-C2=112.62            C5-C4-C3-H19=235.05           
C5-C4-C3-H20=352.31           S13-C4-C3-C2=292.35           S13-C4-C3-H19= 54.77          S13-C4-C3-H20=172.04          
C6-C5-C4-C3=180.39            C6-C5-C4-S13=  0.64           H21-C5-C4-C3=  0.45           H21-C5-C4-S13=180.71          
C7-C6-C5-C4=  0.03            C7-C6-C5-H21=179.97           H22-C6-C5-C4=179.99           H22-C6-C5-H21=359.92          
C8-C7-C6-C5=179.14            C8-C7-C6-H22=359.18           S13-C7-C6-C5=359.30           S13-C7-C6-H22=179.35          
C9-C8-C7-C6=  1.79            C9-C8-C7-S13=181.61           S12-C8-C7-C6=181.89           S12-C8-C7-S13=  1.72          
C10-C9-C8-C7=180.13           C10-C9-C8-S12=  0.04          H23-C9-C8-C7=  0.23           H23-C9-C8-S12=180.14          
C11-C10-C9-C8=359.97          C11-C10-C9-H23=179.87         H24-C10-C9-C8=180.10          H24-C10-C9-H23=  0.00         
           -------------------------------------------------
          |                Final Singlepoint                |
           -------------------------------------------------

          ...................................................
          :                      SETUP                      :
          :.................................................:
          :  # basis functions                  76          :
          :  # atomic orbitals                  74          :
          :  # shells                           40          :
          :  # electrons                        68          :
          :  max. iterations                   250          :
          :  Hamiltonian                  GFN2-xTB          :
          :  restarted?                      false          :
          :  GBSA solvation                   true          :
          :  PC potential                    false          :
          :  electronic temp.          300.0000000     K    :
          :  accuracy                    1.0000000          :
          :  -> integral cutoff          0.2500000E+02      :
          :  -> integral neglect         0.1000000E-07      :
          :  -> SCF convergence          0.1000000E-05 Eh   :
          :  -> wf. convergence          0.1000000E-03 e    :
          :  Broyden damping             0.4000000          :
          ...................................................

 iter      E             dE          RMSdq      gap      omega  full diag
   1    -37.1484632 -0.371485E+02  0.140E-04    2.59       0.0  T
   2    -37.1484632 -0.333955E-10  0.102E-04    2.59     195.7  T
   3    -37.1484632 -0.708411E-11  0.795E-05    2.59     251.7  T

   *** convergence criteria satisfied after 3 iterations ***

         #    Occupation            Energy/Eh            Energy/eV
      -------------------------------------------------------------
         1        2.0000           -0.7402701             -20.1438
       ...           ...                  ...                  ...
        28        2.0000           -0.4518258             -12.2948
        29        2.0000           -0.4487480             -12.2111
        30        2.0000           -0.4482328             -12.1970
        31        2.0000           -0.4222189             -11.4892
        32        2.0000           -0.4050388             -11.0217
        33        2.0000           -0.4007879             -10.9060
        34        2.0000           -0.3720746             -10.1247 (HOMO)
        35                         -0.2767509              -7.5308 (LUMO)
        36                         -0.2281012              -6.2069
        37                         -0.2228446              -6.0639
        38                         -0.1957553              -5.3268
        39                         -0.1826589              -4.9704
       ...                                ...                  ...
        74                          0.7034621              19.1422
      -------------------------------------------------------------
                  HL-Gap            0.0953237 Eh            2.5939 eV
             Fermi-level           -0.3244128 Eh           -8.8277 eV

 SCC (total)                   0 d,  0 h,  0 min,  0.017 sec
 SCC setup                      ...        0 min,  0.000 sec (  1.193%)
 Dispersion                     ...        0 min,  0.000 sec (  1.328%)
 classical contributions        ...        0 min,  0.000 sec (  0.225%)
 integral evaluation            ...        0 min,  0.001 sec (  8.906%)
 iterations                     ...        0 min,  0.011 sec ( 64.415%)
 molecular gradient             ...        0 min,  0.003 sec ( 19.762%)
 printout                       ...        0 min,  0.001 sec (  3.393%)

         :::::::::::::::::::::::::::::::::::::::::::::::::::::
         ::                     SUMMARY                     ::
         :::::::::::::::::::::::::::::::::::::::::::::::::::::
         :: total energy             -36.601234378774 Eh    ::
         :: total w/o Gsasa/hb       -36.592640938311 Eh    ::
         :: gradient norm              0.000675882070 Eh/a0 ::
         :: HOMO-LUMO gap              2.593889769945 eV    ::
         ::.................................................::
         :: SCC energy               -37.148463224477 Eh    ::
         :: -> isotropic ES            0.131321751826 Eh    ::
         :: -> anisotropic ES         -0.034188547084 Eh    ::
         :: -> anisotropic XC          0.020739118202 Eh    ::
         :: -> dispersion             -0.024867040058 Eh    ::
         :: -> Gsolv                  -0.120185399003 Eh    ::
         ::    -> Gelec               -0.111591958540 Eh    ::
         ::    -> Gsasa                0.000608845811 Eh    ::
         ::    -> Ghb                 -0.010283045973 Eh    ::
         ::    -> Gshift               0.001080759698 Eh    ::
         :: repulsion energy           0.547277383064 Eh    ::
         :: add. restraining           0.000000000000 Eh    ::
         :: total charge               1.000000000000 e     ::
         :::::::::::::::::::::::::::::::::::::::::::::::::::::

           -------------------------------------------------
          |                Property Printout                |
           -------------------------------------------------

    * Orbital Energies and Occupations

         #    Occupation            Energy/Eh            Energy/eV
      -------------------------------------------------------------
         1        2.0000           -0.7402701             -20.1438
       ...           ...                  ...                  ...
        22        2.0000           -0.4864228             -13.2362
        23        2.0000           -0.4787292             -13.0269
        24        2.0000           -0.4748228             -12.9206
        25        2.0000           -0.4693597             -12.7719
        26        2.0000           -0.4657849             -12.6747
        27        2.0000           -0.4561109             -12.4114
        28        2.0000           -0.4518258             -12.2948
        29        2.0000           -0.4487480             -12.2111
        30        2.0000           -0.4482328             -12.1970
        31        2.0000           -0.4222189             -11.4892
        32        2.0000           -0.4050388             -11.0217
        33        2.0000           -0.4007879             -10.9060
        34        2.0000           -0.3720746             -10.1247 (HOMO)
        35                         -0.2767509              -7.5308 (LUMO)
        36                         -0.2281012              -6.2069
        37                         -0.2228446              -6.0639
        38                         -0.1957553              -5.3268
        39                         -0.1826589              -4.9704
        40                         -0.1521262              -4.1396
        41                         -0.1316335              -3.5819
        42                         -0.1234683              -3.3597
        43                         -0.0377645              -1.0276
        44                         -0.0125177              -0.3406
        45                         -0.0082963              -0.2258
       ...                                ...                  ...
        74                          0.7034621              19.1422
      -------------------------------------------------------------
                  HL-Gap            0.0953237 Eh            2.5939 eV
             Fermi-level           -0.3244128 Eh           -8.8277 eV

     #   Z          covCN         q      C6AA      α(0)
     1   7 N        3.485    -0.164    24.529     7.356
     2   6 C        3.732    -0.041    21.409     6.604
     3   6 C        3.822    -0.096    22.315     6.722
     4   6 C        2.983     0.026    27.413     8.588
     5   6 C        3.111    -0.061    29.353     8.876
     6   6 C        3.122    -0.055    29.163     8.844
     7   6 C        3.016     0.007    27.839     8.655
     8   6 C        3.030     0.013    27.695     8.632
     9   6 C        3.110    -0.060    29.338     8.874
    10   6 C        3.120    -0.049    29.020     8.823
    11   6 C        2.937    -0.029    28.720     8.789
    12  16 S        2.374    -0.026   142.121    20.065
    13  16 S        2.410    -0.022   141.975    20.054
    14   1 H        0.859     0.321     0.654     1.267
    15   1 H        0.859     0.315     0.671     1.283
    16   1 H        0.859     0.304     0.702     1.312
    17   1 H        0.925     0.126     1.567     1.958
    18   1 H        0.925     0.117     1.642     2.004
    19   1 H        0.924     0.106     1.733     2.059
    20   1 H        0.925     0.095     1.830     2.115
    21   1 H        0.926     0.050     2.319     2.381
    22   1 H        0.926     0.021     2.725     2.581
    23   1 H        0.926     0.032     2.556     2.500
    24   1 H        0.926     0.030     2.587     2.515
    25   1 H        0.926     0.040     2.446     2.446

 Mol. C6AA /au·bohr⁶  :       9288.483738
 Mol. C8AA /au·bohr⁸  :     274442.396476
 Mol. α(0) /au        :        155.303831


Wiberg/Mayer (AO) data.
largest (>0.10) Wiberg bond orders for each atom

 ---------------------------------------------------------------------------
     #   Z sym  total        # sym  WBO       # sym  WBO       # sym  WBO
 ---------------------------------------------------------------------------
     1   7 N    3.649 --     2 C    0.973    15 H    0.885    14 H    0.883
                            16 H    0.873
     2   6 C    3.926 --     3 C    0.995     1 N    0.973    18 H    0.965
                            17 H    0.961
     3   6 C    3.983 --     4 C    1.025     2 C    0.995    20 H    0.959
                            19 H    0.951
     4   6 C    3.931 --     5 C    1.580    13 S    1.148     3 C    1.025
     5   6 C    3.986 --     4 C    1.580     6 C    1.295    21 H    0.962
     6   6 C    3.987 --     7 C    1.517     5 C    1.295    22 H    0.964
     7   6 C    3.957 --     6 C    1.517     8 C    1.149    13 S    1.121
     8   6 C    3.950 --     9 C    1.509     7 C    1.149    12 S    1.136
                            11 C    0.102
     9   6 C    3.984 --     8 C    1.509    10 C    1.297    23 H    0.965
    10   6 C    3.989 --    11 C    1.610     9 C    1.297    24 H    0.965
    11   6 C    3.936 --    10 C    1.610    12 S    1.191    25 H    0.972
                             8 C    0.102
    12  16 S    2.609 --    11 C    1.191     8 C    1.136
    13  16 S    2.591 --     4 C    1.148     7 C    1.121
    14   1 H    0.897 --     1 N    0.883
    15   1 H    0.901 --     1 N    0.885
    16   1 H    0.908 --     1 N    0.873
    17   1 H    0.983 --     2 C    0.961
    18   1 H    0.986 --     2 C    0.965
    19   1 H    0.987 --     3 C    0.951
    20   1 H    0.991 --     3 C    0.959
    21   1 H    0.997 --     5 C    0.962
    22   1 H    0.999 --     6 C    0.964
    23   1 H    0.999 --     9 C    0.965
    24   1 H    0.998 --    10 C    0.965
    25   1 H    0.998 --    11 C    0.972
 ---------------------------------------------------------------------------

Topologies differ in total number of bonds
Writing topology from bond orders to xtbtopo.mol

molecular dipole:
                 x           y           z       tot (Debye)
 q only:        4.503      -6.257       3.577
   full:        5.824      -5.809       3.244      22.476
molecular quadrupole (traceless):
                xx          xy          yy          xz          yz          zz
 q only:      -14.568     -47.647      25.203      26.600     -35.731     -10.635
  q+dip:       22.397     -45.279       4.027      26.518     -33.558     -26.424
   full:       21.660     -45.492       5.655      27.015     -33.049     -27.315

           -------------------------------------------------
          |                Geometry Summary                 |
           -------------------------------------------------

      molecular mass/u    :      210.3389260
   center of mass at/Å    :        6.4263263      -1.5948952       1.4554356
  moments of inertia/u·Å² :        0.3228289E+03   0.1495864E+04   0.1761224E+04
rotational constants/cm⁻¹ :        0.5221848E-01   0.1126950E-01   0.9571546E-02

 * 25 selected distances

     #   Z          #   Z                                           value/Å
     1   7 N        2   6 C                                       1.4789882
     2   6 C        3   6 C                                       1.5308947
     4   6 C        5   6 C                                       1.3619586
     5   6 C        6   6 C                                       1.4088288
     6   6 C        7   6 C                                       1.3707948
     7   6 C        8   6 C                                       1.4289804
     8   6 C        9   6 C                                       1.3712317
     9   6 C       10   6 C                                       1.4084447
    10   6 C       11   6 C                                       1.3590352
     8   6 C       12  16 S                                       1.7434471
    11   6 C       12  16 S                                       1.7121712
     4   6 C       13  16 S                                       1.7460223 (max)
     7   6 C       13  16 S                                       1.7280357
     1   7 N       14   1 H                                       1.0253744 (min)
     1   7 N       15   1 H                                       1.0264740
     1   7 N       16   1 H                                       1.0305568
     2   6 C       17   1 H                                       1.0892381
     2   6 C       18   1 H                                       1.0894724
     3   6 C       19   1 H                                       1.0906781
     3   6 C       20   1 H                                       1.0891091
     5   6 C       21   1 H                                       1.0751279
     6   6 C       22   1 H                                       1.0748206
     9   6 C       23   1 H                                       1.0744709
    10   6 C       24   1 H                                       1.0753284
    11   6 C       25   1 H                                       1.0714967

 * 5 distinct bonds (by element types)

   Z      Z             #   av. dist./Å        max./Å        min./Å
   1 H    6 C           9     1.0810825     1.0906781     1.0714967
   6 C    6 C           8     1.4050211     1.5308947     1.3590352
   1 H    7 N           3     1.0274684     1.0305568     1.0253744
   6 C    7 N           1     1.4789882     1.4789882     1.4789882
   6 C   16 S           4     1.7324191     1.7460223     1.7121712


optimized geometry written to: xtbopt.xyz


           -------------------------------------------------
          | TOTAL ENERGY              -36.601234378774 Eh   |
          | GRADIENT NORM               0.000675882070 Eh/α |
          | HOMO-LUMO GAP               2.593889769945 eV   |
           -------------------------------------------------

------------------------------------------------------------------------
 * finished run on 2023/01/24 at 15:44:51.654     
------------------------------------------------------------------------
 total:
 * wall-time:     0 d,  0 h,  0 min,  0.782 sec
 *  cpu-time:     0 d,  0 h,  1 min, 15.581 sec
 * ratio c/w:    96.697 speedup
 SCF:
 * wall-time:     0 d,  0 h,  0 min,  0.126 sec
 *  cpu-time:     0 d,  0 h,  0 min, 16.432 sec
 * ratio c/w:   130.501 speedup
 ANC optimizer:
 * wall-time:     0 d,  0 h,  0 min,  0.628 sec
 *  cpu-time:     0 d,  0 h,  0 min, 55.700 sec
 * ratio c/w:    88.679 speedup

