      -----------------------------------------------------------      
     |                   =====================                   |     
     |                           x T B                           |     
     |                   =====================                   |     
     |                         S. Grimme                         |     
     |          Mulliken Center for Theoretical Chemistry        |     
     |                    University of Bonn                     |     
      -----------------------------------------------------------      

   * xtb version 6.5.1 (fef0646) compiled by 'conda@b96dff2e9fd6' on 2023-01-04

   xtb is free software: you can redistribute it and/or modify it under
   the terms of the GNU Lesser General Public License as published by
   the Free Software Foundation, either version 3 of the License, or
   (at your option) any later version.
   
   xtb is distributed in the hope that it will be useful,
   but WITHOUT ANY WARRANTY; without even the implied warranty of
   MERCHANTABILITY or FITNESS FOR A PARTICULAR PURPOSE.  See the
   GNU Lesser General Public License for more details.
   
   Cite this work as:
   * C. Bannwarth, E. Caldeweyher, S. Ehlert, A. Hansen, P. Pracht,
     J. Seibert, S. Spicher, S. Grimme, WIREs Comput. Mol. Sci., 2020, 11,
     e01493. DOI: 10.1002/wcms.1493
   
   for GFN2-xTB:
   * C. Bannwarth, S. Ehlert and S. Grimme., J. Chem. Theory Comput., 2019,
     15, 1652-1671. DOI: 10.1021/acs.jctc.8b01176
   for GFN1-xTB:
   * S. Grimme, C. Bannwarth, P. Shushkov, J. Chem. Theory Comput., 2017,
     13, 1989-2009. DOI: 10.1021/acs.jctc.7b00118
   for GFN0-xTB:
   * P. Pracht, E. Caldeweyher, S. Ehlert, S. Grimme, ChemRxiv, 2019, preprint.
     DOI: 10.26434/chemrxiv.8326202.v1
   for GFN-FF:
   * S. Spicher and S. Grimme, Angew. Chem. Int. Ed., 2020, 59, 15665-15673.
     DOI: 10.1002/anie.202004239
   
   for ALPB and GBSA implicit solvation:
   * S. Ehlert, M. Stahn, S. Spicher, S. Grimme, J. Chem. Theory Comput.,
     2021, 17, 4250-4261. DOI: 10.1021/acs.jctc.1c00471
   
   for DFT-D4:
   * E. Caldeweyher, C. Bannwarth and S. Grimme, J. Chem. Phys., 2017,
     147, 034112. DOI: 10.1063/1.4993215
   * E. Caldeweyher, S. Ehlert, A. Hansen, H. Neugebauer, S. Spicher,
     C. Bannwarth and S. Grimme, J. Chem. Phys., 2019, 150, 154122.
     DOI: 10.1063/1.5090222
   * E. Caldeweyher, J.-M. Mewes, S. Ehlert and S. Grimme, Phys. Chem. Chem. Phys.
     2020, 22, 8499-8512. DOI: 10.1039/D0CP00502A
   
   for sTDA-xTB:
   * S. Grimme and C. Bannwarth, J. Chem. Phys., 2016, 145, 054103.
     DOI: 10.1063/1.4959605
   
   in the mass-spec context:
   * V. Asgeirsson, C. Bauer and S. Grimme, Chem. Sci., 2017, 8, 4879.
     DOI: 10.1039/c7sc00601b
   * J. Koopman and S. Grimme, ACS Omega 2019, 4, 12, 15120-15133.
     DOI: 10.1021/acsomega.9b02011
   
   for metadynamics refer to:
   * S. Grimme, J. Chem. Theory Comput., 2019, 155, 2847-2862
     DOI: 10.1021/acs.jctc.9b00143
   
   for SPH calculations refer to:
   * S. Spicher and S. Grimme, J. Chem. Theory Comput., 2021, 17, 1701-1714
     DOI: 10.1021/acs.jctc.0c01306
   
   with help from (in alphabetical order)
   P. Atkinson, C. Bannwarth, F. Bohle, G. Brandenburg, E. Caldeweyher
   M. Checinski, S. Dohm, S. Ehlert, S. Ehrlich, I. Gerasimov, C. Hölzer
   A. Katbashev, J. Koopman, C. Lavigne, S. Lehtola, F. März, M. Müller,
   F. Musil, H. Neugebauer, J. Pisarek, C. Plett, P. Pracht, F. Pultar,
   J. Seibert, P. Shushkov, S. Spicher, M. Stahn, M. Steiner, T. Strunk,
   J. Stückrath, T. Rose, and J. Unsleber
   
 * started run on 2023/01/23 at 18:50:52.783     

           -------------------------------------------------
          |                Calculation Setup                |
           -------------------------------------------------

          program call               : xtb init.xyz --opt -c 1 -u 0 -P 16 --input xtb.inp
          hostname                   : gpg-woodward
          coordinate file            : init.xyz
          omp threads                :                    16

   ID    Z sym.   atoms
    1    7 N      1
    2    6 C      2-10
    3    1 H      11-22

           -------------------------------------------------
          |                 G F N 2 - x T B                 |
           -------------------------------------------------

        Reference                      10.1021/acs.jctc.8b01176
      * Hamiltonian:
        H0-scaling (s, p, d)           1.850000    2.230000    2.230000
        zeta-weighting                 0.500000
      * Dispersion:
        s8                             2.700000
        a1                             0.520000
        a2                             5.000000
        s9                             5.000000
      * Repulsion:
        kExp                           1.500000    1.000000
        rExp                           1.000000
      * Coulomb:
        alpha                          2.000000
        third order                    shell-resolved
        anisotropic                    true
        a3                             3.000000
        a5                             4.000000
        cn-shift                       1.200000
        cn-exp                         4.000000
        max-rad                        5.000000


          ...................................................
          :                      SETUP                      :
          :.................................................:
          :  # basis functions                  52          :
          :  # atomic orbitals                  52          :
          :  # shells                           32          :
          :  # electrons                        52          :
          :  max. iterations                   250          :
          :  Hamiltonian                  GFN2-xTB          :
          :  restarted?                      false          :
          :  GBSA solvation                  false          :
          :  PC potential                    false          :
          :  electronic temp.          300.0000000     K    :
          :  accuracy                    1.0000000          :
          :  -> integral cutoff          0.2500000E+02      :
          :  -> integral neglect         0.1000000E-07      :
          :  -> SCF convergence          0.1000000E-05 Eh   :
          :  -> wf. convergence          0.1000000E-03 e    :
          :  Broyden damping             0.4000000          :
          ...................................................

 iter      E             dE          RMSdq      gap      omega  full diag
   1    -28.1929476 -0.281929E+02  0.475E+00    3.71       0.0  T
   2    -28.3082407 -0.115293E+00  0.276E+00    3.52       1.0  T
   3    -28.3098994 -0.165870E-02  0.134E+00    3.49       1.0  T
   4    -28.3061091  0.379026E-02  0.593E-01    3.27       1.0  T
   5    -28.3133645 -0.725535E-02  0.111E-01    3.38       1.0  T
   6    -28.3133641  0.397899E-06  0.480E-02    3.38       1.0  T
   7    -28.3133851 -0.210437E-04  0.158E-02    3.38       1.3  T
   8    -28.3133869 -0.177262E-05  0.745E-03    3.38       2.9  T
   9    -28.3133874 -0.524322E-06  0.354E-03    3.38       6.0  T
  10    -28.3133875 -0.122339E-06  0.143E-03    3.38      14.9  T
  11    -28.3133875 -0.934391E-08  0.615E-04    3.38      34.7  T
  12    -28.3133875 -0.328714E-08  0.239E-04    3.38      89.4  T

   *** convergence criteria satisfied after 12 iterations ***

         #    Occupation            Energy/Eh            Energy/eV
      -------------------------------------------------------------
         1        2.0000           -0.8913172             -24.2540
       ...           ...                  ...                  ...
        20        2.0000           -0.5793969             -15.7662
        21        2.0000           -0.5598201             -15.2335
        22        2.0000           -0.5500663             -14.9681
        23        2.0000           -0.5393775             -14.6772
        24        2.0000           -0.5293963             -14.4056
        25        2.0000           -0.5264237             -14.3247
        26        2.0000           -0.4979156             -13.5490 (HOMO)
        27                         -0.3735840             -10.1657 (LUMO)
        28                         -0.3535513              -9.6206
        29                         -0.3025867              -8.2338
        30                         -0.2407354              -6.5507
        31                         -0.2091984              -5.6926
       ...                                ...                  ...
        52                          0.5283479              14.3771
      -------------------------------------------------------------
                  HL-Gap            0.1243316 Eh            3.3832 eV
             Fermi-level           -0.4357498 Eh          -11.8574 eV

 SCC (total)                   0 d,  0 h,  0 min,  0.060 sec
 SCC setup                      ...        0 min,  0.001 sec (  1.285%)
 Dispersion                     ...        0 min,  0.001 sec (  1.103%)
 classical contributions        ...        0 min,  0.000 sec (  0.570%)
 integral evaluation            ...        0 min,  0.003 sec (  4.387%)
 iterations                     ...        0 min,  0.050 sec ( 83.669%)
 molecular gradient             ...        0 min,  0.005 sec (  8.413%)
 printout                       ...        0 min,  0.000 sec (  0.288%)

         :::::::::::::::::::::::::::::::::::::::::::::::::::::
         ::                     SUMMARY                     ::
         :::::::::::::::::::::::::::::::::::::::::::::::::::::
         :: total energy             -27.832128906186 Eh    ::
         :: gradient norm              0.043335913089 Eh/a0 ::
         :: HOMO-LUMO gap              3.383235623343 eV    ::
         ::.................................................::
         :: SCC energy               -28.313387543252 Eh    ::
         :: -> isotropic ES            0.103527337074 Eh    ::
         :: -> anisotropic ES         -0.010038481186 Eh    ::
         :: -> anisotropic XC          0.022815119009 Eh    ::
         :: -> dispersion             -0.016228440744 Eh    ::
         :: repulsion energy           0.481274074574 Eh    ::
         :: add. restraining           0.000000000000 Eh    ::
         :: total charge               1.000000000000 e     ::
         :::::::::::::::::::::::::::::::::::::::::::::::::::::

      ----------------------------------------------------------- 
     |                   =====================                   |
     |                        A N C O P T                        |
     |                   =====================                   |
     |               Approximate Normal Coordinate               |
     |                Rational Function Optimizer                |
      ----------------------------------------------------------- 

          ...................................................
          :                      SETUP                      :
          :.................................................:
          :   optimization level            normal          :
          :   max. optcycles                   200          :
          :   ANC micro-cycles                  20          :
          :   degrees of freedom                60          :
          :.................................................:
          :   RF solver                   davidson          :
          :   write xtbopt.log                true          :
          :   linear?                        false          :
          :   energy convergence         0.5000000E-05 Eh   :
          :   grad. convergence          0.1000000E-02 Eh/α :
          :   maximium RF displ.         1.0000000          :
          :   Hlow (freq-cutoff)         0.1000000E-01      :
          :   Hmax (freq-cutoff)         5.0000000          :
          :   S6 in model hess.         20.0000000          :
          ...................................................

generating ANC from model Hessian ...
Using Lindh-Hessian (1995)
 Shifting diagonal of input Hessian by    8.8825148649301390E-003
 Lowest  eigenvalues of input Hessian
    0.000000    0.000000    0.000000    0.000000    0.000000    0.000000
    0.010000    0.011414    0.013337    0.014522    0.015199    0.019084
    0.021458    0.022912    0.026662    0.031646    0.033882    0.043480
 Highest eigenvalues
    1.504159    1.610043    1.812838    1.849424    1.919181    1.994320


........................................................................
.............................. CYCLE    1 ..............................
........................................................................
   1    -28.3133875 -0.283134E+02  0.642E-05    3.38       0.0  T
   2    -28.3133875 -0.127969E-10  0.422E-05    3.38     504.8  T
   3    -28.3133875 -0.785505E-11  0.290E-05    3.38     736.2  T
     SCC iter.                  ...        0 min,  0.015 sec
     gradient                   ...        0 min,  0.005 sec
 * total energy  :   -27.8321289 Eh     change       -0.9480416E-10 Eh
   gradient norm :     0.0433363 Eh/α   predicted     0.0000000E+00 (-100.00%)
   displ. norm   :     0.2035757 α      lambda       -0.4008351E-02
   maximum displ.:     0.0929227 α      in ANC's #4, #5, #12, ...

........................................................................
.............................. CYCLE    2 ..............................
........................................................................
   1    -28.3364136 -0.283364E+02  0.139E-01    3.41       0.0  T
   2    -28.3364230 -0.943549E-05  0.843E-02    3.40       1.0  T
   3    -28.3364102  0.128533E-04  0.303E-02    3.41       1.0  T
   4    -28.3364262 -0.160203E-04  0.494E-03    3.41       4.3  T
   5    -28.3364264 -0.182102E-06  0.218E-03    3.41       9.8  T
   6    -28.3364264  0.952997E-08  0.127E-03    3.41      16.8  T
   7    -28.3364264 -0.236983E-07  0.276E-04    3.41      77.3  T
   8    -28.3364264 -0.607315E-09  0.124E-04    3.41     172.6  T
     SCC iter.                  ...        0 min,  0.026 sec
     gradient                   ...        0 min,  0.005 sec
 * total energy  :   -27.8347223 Eh     change       -0.2593357E-02 Eh
   gradient norm :     0.0158736 Eh/α   predicted    -0.2087453E-02 ( -19.51%)
   displ. norm   :     0.1790938 α      lambda       -0.8472466E-03
   maximum displ.:     0.1145840 α      in ANC's #4, #5, #1, ...

........................................................................
.............................. CYCLE    3 ..............................
........................................................................
   1    -28.3447433 -0.283447E+02  0.927E-02    3.39       0.0  T
   2    -28.3447472 -0.395172E-05  0.542E-02    3.39       1.0  T
   3    -28.3447462  0.104020E-05  0.126E-02    3.40       1.7  T
   4    -28.3447477 -0.151229E-05  0.407E-03    3.40       5.2  T
   5    -28.3447479 -0.145949E-06  0.135E-03    3.40      15.8  T
   6    -28.3447479  0.586343E-09  0.833E-04    3.40      25.6  T
   7    -28.3447479 -0.697622E-08  0.233E-04    3.40      91.5  T
     SCC iter.                  ...        0 min,  0.017 sec
     gradient                   ...        0 min,  0.004 sec
 * total energy  :   -27.8352424 Eh     change       -0.5201064E-03 Eh
   gradient norm :     0.0059066 Eh/α   predicted    -0.4373623E-03 ( -15.91%)
   displ. norm   :     0.1547267 α      lambda       -0.2774743E-03
   maximum displ.:     0.1023685 α      in ANC's #4, #5, #1, ...

........................................................................
.............................. CYCLE    4 ..............................
........................................................................
   1    -28.3451862 -0.283452E+02  0.888E-02    3.37       0.0  T
   2    -28.3451884 -0.220273E-05  0.520E-02    3.37       1.0  T
   3    -28.3451846  0.378543E-05  0.162E-02    3.37       1.3  T
   4    -28.3451889 -0.430119E-05  0.371E-03    3.37       5.7  T
   5    -28.3451891 -0.159290E-06  0.128E-03    3.37      16.7  T
   6    -28.3451891 -0.132743E-07  0.683E-04    3.37      31.2  T
   7    -28.3451891 -0.427073E-08  0.185E-04    3.37     115.3  T
     SCC iter.                  ...        0 min,  0.013 sec
     gradient                   ...        0 min,  0.004 sec
 * total energy  :   -27.8354154 Eh     change       -0.1730022E-03 Eh
   gradient norm :     0.0046064 Eh/α   predicted    -0.1420654E-03 ( -17.88%)
   displ. norm   :     0.1579533 α      lambda       -0.1697019E-03
   maximum displ.:     0.1022867 α      in ANC's #4, #1, #5, ...

........................................................................
.............................. CYCLE    5 ..............................
........................................................................
   1    -28.3435398 -0.283435E+02  0.923E-02    3.35       0.0  T
   2    -28.3435410 -0.121689E-05  0.538E-02    3.36       1.0  T
   3    -28.3435377  0.332997E-05  0.145E-02    3.35       1.5  T
   4    -28.3435415 -0.379264E-05  0.251E-03    3.36       8.5  T
   5    -28.3435416 -0.723618E-07  0.109E-03    3.36      19.5  T
   6    -28.3435416 -0.100053E-07  0.506E-04    3.36      42.1  T
   7    -28.3435416 -0.187007E-08  0.146E-04    3.36     146.1  T
     SCC iter.                  ...        0 min,  0.008 sec
     gradient                   ...        0 min,  0.003 sec
 * total energy  :   -27.8355050 Eh     change       -0.8963070E-04 Eh
   gradient norm :     0.0039990 Eh/α   predicted    -0.8696825E-04 (  -2.97%)
   displ. norm   :     0.0643519 α      lambda       -0.5408044E-04
   maximum displ.:     0.0427507 α      in ANC's #1, #3, #4, ...

........................................................................
.............................. CYCLE    6 ..............................
........................................................................
   1    -28.3429773 -0.283430E+02  0.423E-02    3.35       0.0  T
   2    -28.3429774 -0.159207E-06  0.250E-02    3.35       1.0  T
   3    -28.3429766  0.875049E-06  0.717E-03    3.35       3.0  T
   4    -28.3429775 -0.985111E-06  0.967E-04    3.35      22.0  T
   5    -28.3429775 -0.108436E-07  0.411E-04    3.35      51.9  T
     SCC iter.                  ...        0 min,  0.006 sec
     gradient                   ...        0 min,  0.003 sec
 * total energy  :   -27.8355453 Eh     change       -0.4032739E-04 Eh
   gradient norm :     0.0025908 Eh/α   predicted    -0.2715435E-04 ( -32.67%)
   displ. norm   :     0.0966438 α      lambda       -0.5506672E-04
   maximum displ.:     0.0706635 α      in ANC's #1, #3, #5, ...

........................................................................
.............................. CYCLE    7 ..............................
........................................................................
   1    -28.3429568 -0.283430E+02  0.610E-02    3.35       0.0  T
   2    -28.3429572 -0.345391E-06  0.358E-02    3.35       1.0  T
   3    -28.3429557  0.149072E-05  0.933E-03    3.35       2.3  T
   4    -28.3429573 -0.167129E-05  0.139E-03    3.35      15.3  T
   5    -28.3429574 -0.233013E-07  0.614E-04    3.35      34.7  T
   6    -28.3429574 -0.331944E-08  0.240E-04    3.35      88.9  T
     SCC iter.                  ...        0 min,  0.007 sec
     gradient                   ...        0 min,  0.003 sec
 * total energy  :   -27.8355863 Eh     change       -0.4100752E-04 Eh
   gradient norm :     0.0021564 Eh/α   predicted    -0.2779385E-04 ( -32.22%)
   displ. norm   :     0.1135228 α      lambda       -0.4342917E-04
   maximum displ.:     0.0826117 α      in ANC's #1, #3, #5, ...

........................................................................
.............................. CYCLE    8 ..............................
........................................................................
   1    -28.3431691 -0.283432E+02  0.727E-02    3.35       0.0  T
   2    -28.3431694 -0.320753E-06  0.426E-02    3.35       1.0  T
   3    -28.3431674  0.204471E-05  0.107E-02    3.35       2.0  T
   4    -28.3431696 -0.227531E-05  0.117E-03    3.35      18.3  T
   5    -28.3431697 -0.154635E-07  0.536E-04    3.35      39.8  T
   6    -28.3431697 -0.238242E-08  0.226E-04    3.35      94.1  T
     SCC iter.                  ...        0 min,  0.007 sec
     gradient                   ...        0 min,  0.003 sec
 * total energy  :   -27.8356218 Eh     change       -0.3550582E-04 Eh
   gradient norm :     0.0023491 Eh/α   predicted    -0.2199755E-04 ( -38.05%)
   displ. norm   :     0.1376935 α      lambda       -0.4668473E-04
   maximum displ.:     0.0976029 α      in ANC's #1, #3, #5, ...

........................................................................
.............................. CYCLE    9 ..............................
........................................................................
   1    -28.3434113 -0.283434E+02  0.887E-02    3.34       0.0  T
   2    -28.3434116 -0.343755E-06  0.520E-02    3.34       1.0  T
   3    -28.3434086  0.303837E-05  0.129E-02    3.34       1.7  T
   4    -28.3434120 -0.337412E-05  0.110E-03    3.34      19.4  T
   5    -28.3434120 -0.127467E-07  0.539E-04    3.34      39.6  T
   6    -28.3434120 -0.227929E-08  0.244E-04    3.34      87.4  T
     SCC iter.                  ...        0 min,  0.007 sec
     gradient                   ...        0 min,  0.003 sec
 * total energy  :   -27.8356608 Eh     change       -0.3896748E-04 Eh
   gradient norm :     0.0021708 Eh/α   predicted    -0.2378975E-04 ( -38.95%)
   displ. norm   :     0.1497273 α      lambda       -0.4502621E-04
   maximum displ.:     0.1057931 α      in ANC's #1, #3, #5, ...

........................................................................
.............................. CYCLE   10 ..............................
........................................................................
   1    -28.3435569 -0.283436E+02  0.945E-02    3.33       0.0  T
   2    -28.3435572 -0.301636E-06  0.554E-02    3.33       1.0  T
   3    -28.3435536  0.352852E-05  0.137E-02    3.33       1.6  T
   4    -28.3435575 -0.391699E-05  0.107E-03    3.33      19.9  T
   5    -28.3435576 -0.155006E-07  0.509E-04    3.33      41.9  T
   6    -28.3435576 -0.128741E-08  0.196E-04    3.33     109.0  T
     SCC iter.                  ...        0 min,  0.007 sec
     gradient                   ...        0 min,  0.003 sec
 * total energy  :   -27.8356979 Eh     change       -0.3712964E-04 Eh
   gradient norm :     0.0020333 Eh/α   predicted    -0.2301951E-04 ( -38.00%)
   displ. norm   :     0.1722229 α      lambda       -0.4147065E-04
   maximum displ.:     0.1209125 α      in ANC's #1, #3, #5, ...

........................................................................
.............................. CYCLE   11 ..............................
........................................................................
   1    -28.3434182 -0.283434E+02  0.106E-01    3.32       0.0  T
   2    -28.3434186 -0.410186E-06  0.623E-02    3.32       1.0  T
   3    -28.3434140  0.459790E-05  0.155E-02    3.32       1.4  T
   4    -28.3434192 -0.511026E-05  0.134E-03    3.32      15.9  T
   5    -28.3434192 -0.272753E-07  0.566E-04    3.32      37.7  T
   6    -28.3434192 -0.123667E-08  0.194E-04    3.32     110.2  T
     SCC iter.                  ...        0 min,  0.006 sec
     gradient                   ...        0 min,  0.002 sec
 * total energy  :   -27.8357300 Eh     change       -0.3204610E-04 Eh
   gradient norm :     0.0021197 Eh/α   predicted    -0.2135360E-04 ( -33.37%)
   displ. norm   :     0.1877642 α      lambda       -0.3159064E-04
   maximum displ.:     0.1324266 α      in ANC's #1, #3, #5, ...

........................................................................
.............................. CYCLE   12 ..............................
........................................................................
   1    -28.3431395 -0.283431E+02  0.114E-01    3.31       0.0  T
   2    -28.3431401 -0.562245E-06  0.666E-02    3.31       1.0  T
   3    -28.3431350  0.509438E-05  0.162E-02    3.31       1.3  T
   4    -28.3431407 -0.567750E-05  0.161E-03    3.31      13.2  T
   5    -28.3431407 -0.401462E-07  0.621E-04    3.31      34.3  T
   6    -28.3431407 -0.215724E-08  0.252E-04    3.31      84.7  T
     SCC iter.                  ...        0 min,  0.006 sec
     gradient                   ...        0 min,  0.002 sec
 * total energy  :   -27.8357509 Eh     change       -0.2094462E-04 Eh
   gradient norm :     0.0020978 Eh/α   predicted    -0.1635372E-04 ( -21.92%)
   displ. norm   :     0.0983275 α      lambda       -0.1265984E-04
   maximum displ.:     0.0697556 α      in ANC's #1, #3, #5, ...

........................................................................
.............................. CYCLE   13 ..............................
........................................................................
   1    -28.3434181 -0.283434E+02  0.576E-02    3.31       0.0  T
   2    -28.3434183 -0.219159E-06  0.338E-02    3.31       1.0  T
   3    -28.3434172  0.104371E-05  0.707E-03    3.31       3.0  T
   4    -28.3434184 -0.117801E-05  0.106E-03    3.31      20.2  T
   5    -28.3434184 -0.154867E-07  0.365E-04    3.31      58.4  T
   6    -28.3434184 -0.124180E-08  0.163E-04    3.31     130.5  T
     SCC iter.                  ...        0 min,  0.006 sec
     gradient                   ...        0 min,  0.002 sec
 * total energy  :   -27.8357593 Eh     change       -0.8373796E-05 Eh
   gradient norm :     0.0010907 Eh/α   predicted    -0.6393345E-05 ( -23.65%)
   displ. norm   :     0.1329947 α      lambda       -0.6132197E-05
   maximum displ.:     0.0914547 α      in ANC's #3, #1, #5, ...

........................................................................
.............................. CYCLE   14 ..............................
........................................................................
   1    -28.3430576 -0.283431E+02  0.858E-02    3.30       0.0  T
   2    -28.3430579 -0.373650E-06  0.503E-02    3.30       1.0  T
   3    -28.3430558  0.209007E-05  0.104E-02    3.30       2.1  T
   4    -28.3430582 -0.235071E-05  0.134E-03    3.30      15.9  T
   5    -28.3430582 -0.261893E-07  0.492E-04    3.30      43.3  T
   6    -28.3430582 -0.184211E-08  0.214E-04    3.30      99.5  T
     SCC iter.                  ...        0 min,  0.006 sec
     gradient                   ...        0 min,  0.003 sec
 * total energy  :   -27.8357629 Eh     change       -0.3572258E-05 Eh
   gradient norm :     0.0013902 Eh/α   predicted    -0.3092913E-05 ( -13.42%)
   displ. norm   :     0.0148763 α      lambda       -0.4422005E-05
   maximum displ.:     0.0082424 α      in ANC's #4, #1, #5, ...

........................................................................
.............................. CYCLE   15 ..............................
........................................................................
   1    -28.3440228 -0.283440E+02  0.967E-03    3.31       0.0  T
   2    -28.3440228 -0.124318E-07  0.560E-03    3.30       3.8  T
   3    -28.3440227  0.124395E-06  0.309E-03    3.31       6.9  T
   4    -28.3440228 -0.143360E-06  0.265E-04    3.31      80.5  T
   5    -28.3440228 -0.563105E-09  0.169E-04    3.31     125.8  T
     SCC iter.                  ...        0 min,  0.005 sec
     gradient                   ...        0 min,  0.003 sec
 * total energy  :   -27.8357642 Eh     change       -0.1354217E-05 Eh
   gradient norm :     0.0013071 Eh/α   predicted    -0.2214565E-05 (  63.53%)
   displ. norm   :     0.0131419 α      lambda       -0.2715758E-05
   maximum displ.:     0.0081612 α      in ANC's #3, #2, #7, ...

........................................................................
.............................. CYCLE   16 ..............................
........................................................................
   1    -28.3436117 -0.283436E+02  0.107E-02    3.30       0.0  T
   2    -28.3436118 -0.271733E-07  0.626E-03    3.30       3.4  T
   3    -28.3436117  0.374259E-07  0.166E-03    3.30      12.9  T
   4    -28.3436118 -0.419785E-07  0.383E-04    3.30      55.6  T
   5    -28.3436118 -0.208425E-08  0.124E-04    3.30     171.7  T
     SCC iter.                  ...        0 min,  0.005 sec
     gradient                   ...        0 min,  0.003 sec
 * total energy  :   -27.8357666 Eh     change       -0.2402559E-05 Eh
   gradient norm :     0.0006462 Eh/α   predicted    -0.1361079E-05 ( -43.35%)
   displ. norm   :     0.0266333 α      lambda       -0.1691085E-05
   maximum displ.:     0.0214234 α      in ANC's #3, #2, #1, ...

   *** GEOMETRY OPTIMIZATION CONVERGED AFTER 16 ITERATIONS ***

------------------------------------------------------------------------
 total energy gain   :        -0.0036377 Eh       -2.2827 kcal/mol
 total RMSD          :         0.3215575 a0        0.1702 Å
 total power (kW/mol):        -0.5969283 (step)  -37.6713 (real)
------------------------------------------------------------------------

 ANCopt (total)                0 d,  0 h,  0 min,  0.254 sec
 optimizer setup                ...        0 min,  0.000 sec (  0.048%)
 model hessian                  ...        0 min,  0.019 sec (  7.592%)
 ANC generation                 ...        0 min,  0.002 sec (  0.951%)
 coordinate transformation      ...        0 min,  0.000 sec (  0.102%)
 single point calculation       ...        0 min,  0.225 sec ( 88.853%)
 optimization log               ...        0 min,  0.002 sec (  0.749%)
 hessian update                 ...        0 min,  0.001 sec (  0.552%)
 rational function              ...        0 min,  0.001 sec (  0.571%)

================
 final structure:
================
22
 xtb: 6.5.1 (fef0646)
N            2.17664051366162        0.44983510074898       -1.31476533353586
C            2.43799498162884       -0.07970794998364        0.07863478272580
C            2.98880408632834       -1.46992632046122       -0.02252663193726
C            4.36312518870503       -1.68458162120722       -0.07803840883681
C            4.86761413383939       -2.96226162180119       -0.20291881926757
C            4.01423270082381       -4.06599405387873       -0.28286658844502
C            4.49989731642152       -5.43303740042612       -0.41218281483369
C            5.74906839004560       -5.84032486377789       -0.21738030978904
C            2.63542969030990       -3.83711433997494       -0.23881595341812
C            2.12850614710461       -2.56109197051256       -0.10840085293250
H            1.78288802800527        1.39872673506422       -1.29751144948870
H            1.52230051588242       -0.18147056538215       -1.79546871474371
H            3.05808011360308        0.45759279330214       -1.84454114633072
H            1.49318354238071       -0.06733842487831        0.62311445501333
H            3.14459952793491        0.59198540711104        0.56672401336878
H            5.04244730742175       -0.84712379951233       -0.00646792355763
H            5.93491500027234       -3.10453428131755       -0.24561160094137
H            3.74028724963595       -6.16047402227792       -0.66891228539026
H            6.54522357331644       -5.17520229661324        0.07058418124994
H            6.01829260937585       -6.87607855714536       -0.32651148008345
H            1.95783236297773       -4.67516224787021       -0.29612835894426
H            1.05920702032494       -2.41246569920572       -0.05554875988205

 Bond Distances (Angstroems)
 ---------------------------
N1-C2=1.5134         N1-H11=1.0275        N1-H12=1.0285        N1-H13=1.0284        C2-N1=1.5134         C2-C3=1.4988         
C2-H14=1.0905        C2-H15=1.0903        C3-C2=1.4988         C3-C4=1.3921         C3-C10=1.3922        C4-C3=1.3921         
C4-C5=1.3793         C4-H16=1.0807        C5-C4=1.3793         C5-C6=1.3975         C5-H17=1.0776        C6-C5=1.3975         
C6-C7=1.4565         C6-C9=1.3984         C7-C6=1.4565         C7-C8=1.3283         C7-H18=1.0826        C8-C7=1.3283         
C8-H19=1.0766        C8-H20=1.0757        C9-C6=1.3984         C9-C10=1.3792        C9-H21=1.0792        C10-C3=1.3922        
C10-C9=1.3792        C10-H22=1.0809       H11-N1=1.0275        H12-N1=1.0285        H13-N1=1.0284        H14-C2=1.0905        
H15-C2=1.0903        H16-C4=1.0807        H17-C5=1.0776        H18-C7=1.0826        H19-C8=1.0766        H20-C8=1.0757        
H21-C9=1.0792        H22-C10=1.0809       
 C  H  Rav=1.0816 sigma=0.0051  Rmin=1.0757  Rmax=1.0905     9
 C  C  Rav=1.4025 sigma=0.0460  Rmin=1.3283  Rmax=1.4988     9
 N  H  Rav=1.0281 sigma=0.0005  Rmin=1.0275  Rmax=1.0285     3
 N  C  Rav=1.5134 sigma=0.0000  Rmin=1.5134  Rmax=1.5134     1

 selected bond angles (degree)
 --------------------
H11-N1-C2=111.95               H12-N1-C2=108.99               H12-N1-H11=109.32              H13-N1-C2=109.20               
H13-N1-H11=109.28              H13-N1-H12=108.01              C3-C2-N1=109.02                H14-C2-N1=107.82               
H14-C2-C3=111.26               H15-C2-N1=107.97               H15-C2-C3=111.31               H15-C2-H14=109.33              
C4-C3-C2=120.57                C10-C3-C2=120.27               C10-C3-C4=119.13               C5-C4-C3=120.50                
H16-C4-C3=119.90               H16-C4-C5=119.60               C6-C5-C4=120.89                H17-C5-C4=119.22               
H17-C5-C6=119.89               C7-C6-C5=122.87                C9-C6-C5=118.10                C9-C6-C7=119.03                
C8-C7-C6=126.04                H18-C7-C6=114.69               H18-C7-C8=119.25               H19-C8-C7=123.04               
H20-C8-C7=121.05               H20-C8-H19=115.91              C10-C9-C6=121.12               H21-C9-C6=119.36               
H21-C9-C10=119.52              C9-C10-C3=120.26               H22-C10-C3=120.04              H22-C10-C9=119.70              

 selected dihedral angles (degree)
 ---------------------------------
C3-C2-N1-H11=179.11           C3-C2-N1-H12= 58.04           C3-C2-N1-H13=300.26           H14-C2-N1-H11= 58.20          
H14-C2-N1-H12=297.13          H14-C2-N1-H13=179.35          H15-C2-N1-H11=300.18          H15-C2-N1-H12=179.11          
H15-C2-N1-H13= 61.33          C4-C3-C2-N1= 91.55            C4-C3-C2-H14=210.34           C4-C3-C2-H15=332.55           
C10-C3-C2-N1=273.76           C10-C3-C2-H14= 32.55          C10-C3-C2-H15=154.76          C5-C4-C3-C2=181.54            
C5-C4-C3-C10=359.35           H16-C4-C3-C2=  2.56           H16-C4-C3-C10=180.37          C6-C5-C4-C3=  0.31            
C6-C5-C4-H16=179.30           H17-C5-C4-C3=179.90           H17-C5-C4-H16=358.88          C7-C6-C5-C4=180.15            
C7-C6-C5-H17=  0.57           C9-C6-C5-C4=  0.29            C9-C6-C5-H17=180.71           C8-C7-C6-C5= 13.68            
C8-C7-C6-C9=193.54            H18-C7-C6-C5=192.15           H18-C7-C6-C9= 12.01           H19-C8-C7-C6=  0.42           
H19-C8-C7-H18=182.01          H20-C8-C7-C6=179.42           H20-C8-C7-H18=  1.01          C10-C9-C6-C5=359.44           
C10-C9-C6-C7=179.58           H21-C9-C6-C5=180.17           H21-C9-C6-C7=  0.31           C9-C10-C3-C2=178.20           
C9-C10-C3-C4=  0.38           H22-C10-C3-C2=357.12          H22-C10-C3-C4=179.30          C3-C10-C9-C6=  0.23           
C3-C10-C9-H21=179.50          H22-C10-C9-C6=181.30          H22-C10-C9-H21=  0.57         
           -------------------------------------------------
          |                Final Singlepoint                |
           -------------------------------------------------

          ...................................................
          :                      SETUP                      :
          :.................................................:
          :  # basis functions                  52          :
          :  # atomic orbitals                  52          :
          :  # shells                           32          :
          :  # electrons                        52          :
          :  max. iterations                   250          :
          :  Hamiltonian                  GFN2-xTB          :
          :  restarted?                      false          :
          :  GBSA solvation                  false          :
          :  PC potential                    false          :
          :  electronic temp.          300.0000000     K    :
          :  accuracy                    1.0000000          :
          :  -> integral cutoff          0.2500000E+02      :
          :  -> integral neglect         0.1000000E-07      :
          :  -> SCF convergence          0.1000000E-05 Eh   :
          :  -> wf. convergence          0.1000000E-03 e    :
          :  Broyden damping             0.4000000          :
          ...................................................

 iter      E             dE          RMSdq      gap      omega  full diag
   1    -28.3436118 -0.283436E+02  0.618E-05    3.30       0.0  T
   2    -28.3436118 -0.115961E-10  0.386E-05    3.30     552.3  T
   3    -28.3436118 -0.984457E-11  0.242E-05    3.30     882.4  T

   *** convergence criteria satisfied after 3 iterations ***

         #    Occupation            Energy/Eh            Energy/eV
      -------------------------------------------------------------
         1        2.0000           -0.8864032             -24.1203
       ...           ...                  ...                  ...
        20        2.0000           -0.5811296             -15.8133
        21        2.0000           -0.5613267             -15.2745
        22        2.0000           -0.5554143             -15.1136
        23        2.0000           -0.5446136             -14.8197
        24        2.0000           -0.5348364             -14.5536
        25        2.0000           -0.5294438             -14.4069
        26        2.0000           -0.5001809             -13.6106 (HOMO)
        27                         -0.3787969             -10.3076 (LUMO)
        28                         -0.3509586              -9.5501
        29                         -0.3019715              -8.2171
        30                         -0.2455466              -6.6817
        31                         -0.2024904              -5.5100
       ...                                ...                  ...
        52                          0.5640731              15.3492
      -------------------------------------------------------------
                  HL-Gap            0.1213840 Eh            3.3030 eV
             Fermi-level           -0.4394889 Eh          -11.9591 eV

 SCC (total)                   0 d,  0 h,  0 min,  0.007 sec
 SCC setup                      ...        0 min,  0.000 sec (  1.255%)
 Dispersion                     ...        0 min,  0.000 sec (  2.592%)
 classical contributions        ...        0 min,  0.000 sec (  0.307%)
 integral evaluation            ...        0 min,  0.001 sec ( 10.974%)
 iterations                     ...        0 min,  0.003 sec ( 47.723%)
 molecular gradient             ...        0 min,  0.002 sec ( 34.329%)
 printout                       ...        0 min,  0.000 sec (  1.643%)

         :::::::::::::::::::::::::::::::::::::::::::::::::::::
         ::                     SUMMARY                     ::
         :::::::::::::::::::::::::::::::::::::::::::::::::::::
         :: total energy             -27.835766634373 Eh    ::
         :: gradient norm              0.000646349739 Eh/a0 ::
         :: HOMO-LUMO gap              3.303026159944 eV    ::
         ::.................................................::
         :: SCC energy               -28.343611770055 Eh    ::
         :: -> isotropic ES            0.102592006085 Eh    ::
         :: -> anisotropic ES         -0.010615728641 Eh    ::
         :: -> anisotropic XC          0.021960313443 Eh    ::
         :: -> dispersion             -0.016408713750 Eh    ::
         :: repulsion energy           0.507856853350 Eh    ::
         :: add. restraining           0.000000000000 Eh    ::
         :: total charge               1.000000000000 e     ::
         :::::::::::::::::::::::::::::::::::::::::::::::::::::

           -------------------------------------------------
          |                Property Printout                |
           -------------------------------------------------

    * Orbital Energies and Occupations

         #    Occupation            Energy/Eh            Energy/eV
      -------------------------------------------------------------
         1        2.0000           -0.8864032             -24.1203
       ...           ...                  ...                  ...
        14        2.0000           -0.6520390             -17.7429
        15        2.0000           -0.6267123             -17.0537
        16        2.0000           -0.6160593             -16.7638
        17        2.0000           -0.6110940             -16.6287
        18        2.0000           -0.6087851             -16.5659
        19        2.0000           -0.6030737             -16.4105
        20        2.0000           -0.5811296             -15.8133
        21        2.0000           -0.5613267             -15.2745
        22        2.0000           -0.5554143             -15.1136
        23        2.0000           -0.5446136             -14.8197
        24        2.0000           -0.5348364             -14.5536
        25        2.0000           -0.5294438             -14.4069
        26        2.0000           -0.5001809             -13.6106 (HOMO)
        27                         -0.3787969             -10.3076 (LUMO)
        28                         -0.3509586              -9.5501
        29                         -0.3019715              -8.2171
        30                         -0.2455466              -6.6817
        31                         -0.2024904              -5.5100
        32                         -0.1487252              -4.0470
        33                         -0.0862734              -2.3476
        34                         -0.0857057              -2.3322
        35                         -0.0438777              -1.1940
        36                         -0.0166872              -0.4541
        37                          0.0040616               0.1105
       ...                                ...                  ...
        52                          0.5640731              15.3492
      -------------------------------------------------------------
                  HL-Gap            0.1213840 Eh            3.3030 eV
             Fermi-level           -0.4394889 Eh          -11.9591 eV

     #   Z          covCN         q      C6AA      α(0)
     1   7 N        3.482    -0.131    23.834     7.251
     2   6 C        3.735    -0.033    21.256     6.580
     3   6 C        2.971    -0.022    28.548     8.764
     4   6 C        2.919    -0.040    28.998     8.831
     5   6 C        2.922    -0.028    28.696     8.785
     6   6 C        2.971     0.033    27.261     8.564
     7   6 C        2.896    -0.032    28.805     8.800
     8   6 C        2.838    -0.070    29.745     8.938
     9   6 C        2.926    -0.029    28.735     8.791
    10   6 C        2.919    -0.041    29.021     8.834
    11   1 H        0.859     0.266     0.826     1.424
    12   1 H        0.859     0.270     0.809     1.409
    13   1 H        0.859     0.270     0.811     1.411
    14   1 H        0.924     0.103     1.755     2.072
    15   1 H        0.924     0.103     1.757     2.073
    16   1 H        0.926     0.042     2.426     2.436
    17   1 H        0.926     0.063     2.165     2.301
    18   1 H        0.925     0.054     2.268     2.355
    19   1 H        0.926     0.058     2.226     2.333
    20   1 H        0.926     0.066     2.126     2.280
    21   1 H        0.926     0.060     2.200     2.320
    22   1 H        0.926     0.040     2.448     2.447

 Mol. C6AA /au·bohr⁶  :       4651.560565
 Mol. C8AA /au·bohr⁸  :     111082.208487
 Mol. α(0) /au        :        108.996209


Wiberg/Mayer (AO) data.
largest (>0.10) Wiberg bond orders for each atom

 ---------------------------------------------------------------------------
     #   Z sym  total        # sym  WBO       # sym  WBO       # sym  WBO
 ---------------------------------------------------------------------------
     1   7 N    3.671 --    11 H    0.914    13 H    0.912    12 H    0.911
                             2 C    0.898
     2   6 C    3.881 --     3 C    1.009    15 H    0.967    14 H    0.966
                             1 N    0.898
     3   6 C    3.969 --    10 C    1.391     4 C    1.390     2 C    1.009
     4   6 C    3.991 --     5 C    1.470     3 C    1.390    16 H    0.968
     5   6 C    3.990 --     4 C    1.470     6 C    1.366    17 H    0.963
     6   6 C    3.986 --     9 C    1.366     5 C    1.366     7 C    1.097
     7   6 C    3.989 --     8 C    1.893     6 C    1.097    18 H    0.962
     8   6 C    3.982 --     7 C    1.893    20 H    0.975    19 H    0.971
     9   6 C    3.990 --    10 C    1.469     6 C    1.366    21 H    0.966
    10   6 C    3.991 --     9 C    1.469     3 C    1.391    22 H    0.968
    11   1 H    0.928 --     1 N    0.914
    12   1 H    0.927 --     1 N    0.911
    13   1 H    0.927 --     1 N    0.912
    14   1 H    0.989 --     2 C    0.966
    15   1 H    0.989 --     2 C    0.967
    16   1 H    0.998 --     4 C    0.968
    17   1 H    0.996 --     5 C    0.963
    18   1 H    0.997 --     7 C    0.962
    19   1 H    0.997 --     8 C    0.971
    20   1 H    0.995 --     8 C    0.975
    21   1 H    0.996 --     9 C    0.966
    22   1 H    0.998 --    10 C    0.968
 ---------------------------------------------------------------------------

Topologies differ in total number of bonds
Writing topology from bond orders to xtbtopo.mol

molecular dipole:
                 x           y           z       tot (Debye)
 q only:        4.886      -0.754      -2.048
   full:        4.790      -0.549      -2.198      13.467
molecular quadrupole (traceless):
                xx          xy          yy          xz          yz          zz
 q only:       18.909     -15.970      -0.137     -12.925      -1.129     -18.772
  q+dip:       21.628     -13.358       1.384     -13.436      -0.692     -23.012
   full:       19.260     -13.618      -0.122     -13.562      -1.497     -19.137

           -------------------------------------------------
          |                Geometry Summary                 |
           -------------------------------------------------

      molecular mass/u    :      134.1986153
   center of mass at/Å    :        3.5521418      -2.6563170      -0.3097170
  moments of inertia/u·Å² :        0.1259471E+03   0.7416788E+03   0.8193178E+03
rotational constants/cm⁻¹ :        0.1338469E+00   0.2272902E-01   0.2057521E-01

 * 20 selected distances

     #   Z          #   Z                                           value/Å
     1   7 N        2   6 C                                       1.5133692 (max)
     3   6 C        4   6 C                                       1.3920910
     4   6 C        5   6 C                                       1.3793371
     5   6 C        6   6 C                                       1.3974538
     7   6 C        8   6 C                                       1.3282544
     6   6 C        9   6 C                                       1.3983649
     3   6 C       10   6 C                                       1.3921673
     9   6 C       10   6 C                                       1.3792074
     1   7 N       11   1 H                                       1.0274893 (min)
     1   7 N       12   1 H                                       1.0284861
     1   7 N       13   1 H                                       1.0284253
     2   6 C       14   1 H                                       1.0905411
     2   6 C       15   1 H                                       1.0902721
     4   6 C       16   1 H                                       1.0807112
     5   6 C       17   1 H                                       1.0775878
     7   6 C       18   1 H                                       1.0826272
     8   6 C       19   1 H                                       1.0766498
     8   6 C       20   1 H                                       1.0757217
     9   6 C       21   1 H                                       1.0792346
    10   6 C       22   1 H                                       1.0808718

 * 4 distinct bonds (by element types)

   Z      Z             #   av. dist./Å        max./Å        min./Å
   1 H    6 C           9     1.0815797     1.0905411     1.0757217
   6 C    6 C           7     1.3809823     1.3983649     1.3282544
   1 H    7 N           3     1.0281336     1.0284861     1.0274893
   6 C    7 N           1     1.5133692     1.5133692     1.5133692


optimized geometry written to: xtbopt.xyz


           -------------------------------------------------
          | TOTAL ENERGY              -27.835766634373 Eh   |
          | GRADIENT NORM               0.000646349739 Eh/α |
          | HOMO-LUMO GAP               3.303026159944 eV   |
           -------------------------------------------------

------------------------------------------------------------------------
 * finished run on 2023/01/23 at 18:50:53.132     
------------------------------------------------------------------------
 total:
 * wall-time:     0 d,  0 h,  0 min,  0.349 sec
 *  cpu-time:     0 d,  0 h,  0 min, 29.843 sec
 * ratio c/w:    85.567 speedup
 SCF:
 * wall-time:     0 d,  0 h,  0 min,  0.060 sec
 *  cpu-time:     0 d,  0 h,  0 min,  7.577 sec
 * ratio c/w:   125.975 speedup
 ANC optimizer:
 * wall-time:     0 d,  0 h,  0 min,  0.262 sec
 *  cpu-time:     0 d,  0 h,  0 min, 19.057 sec
 * ratio c/w:    72.785 speedup

