      -----------------------------------------------------------      
     |                   =====================                   |     
     |                           x T B                           |     
     |                   =====================                   |     
     |                         S. Grimme                         |     
     |          Mulliken Center for Theoretical Chemistry        |     
     |                    University of Bonn                     |     
      -----------------------------------------------------------      

   * xtb version 6.5.1 (fef0646) compiled by 'conda@b96dff2e9fd6' on 2023-01-04

   xtb is free software: you can redistribute it and/or modify it under
   the terms of the GNU Lesser General Public License as published by
   the Free Software Foundation, either version 3 of the License, or
   (at your option) any later version.
   
   xtb is distributed in the hope that it will be useful,
   but WITHOUT ANY WARRANTY; without even the implied warranty of
   MERCHANTABILITY or FITNESS FOR A PARTICULAR PURPOSE.  See the
   GNU Lesser General Public License for more details.
   
   Cite this work as:
   * C. Bannwarth, E. Caldeweyher, S. Ehlert, A. Hansen, P. Pracht,
     J. Seibert, S. Spicher, S. Grimme, WIREs Comput. Mol. Sci., 2020, 11,
     e01493. DOI: 10.1002/wcms.1493
   
   for GFN2-xTB:
   * C. Bannwarth, S. Ehlert and S. Grimme., J. Chem. Theory Comput., 2019,
     15, 1652-1671. DOI: 10.1021/acs.jctc.8b01176
   for GFN1-xTB:
   * S. Grimme, C. Bannwarth, P. Shushkov, J. Chem. Theory Comput., 2017,
     13, 1989-2009. DOI: 10.1021/acs.jctc.7b00118
   for GFN0-xTB:
   * P. Pracht, E. Caldeweyher, S. Ehlert, S. Grimme, ChemRxiv, 2019, preprint.
     DOI: 10.26434/chemrxiv.8326202.v1
   for GFN-FF:
   * S. Spicher and S. Grimme, Angew. Chem. Int. Ed., 2020, 59, 15665-15673.
     DOI: 10.1002/anie.202004239
   
   for ALPB and GBSA implicit solvation:
   * S. Ehlert, M. Stahn, S. Spicher, S. Grimme, J. Chem. Theory Comput.,
     2021, 17, 4250-4261. DOI: 10.1021/acs.jctc.1c00471
   
   for DFT-D4:
   * E. Caldeweyher, C. Bannwarth and S. Grimme, J. Chem. Phys., 2017,
     147, 034112. DOI: 10.1063/1.4993215
   * E. Caldeweyher, S. Ehlert, A. Hansen, H. Neugebauer, S. Spicher,
     C. Bannwarth and S. Grimme, J. Chem. Phys., 2019, 150, 154122.
     DOI: 10.1063/1.5090222
   * E. Caldeweyher, J.-M. Mewes, S. Ehlert and S. Grimme, Phys. Chem. Chem. Phys.
     2020, 22, 8499-8512. DOI: 10.1039/D0CP00502A
   
   for sTDA-xTB:
   * S. Grimme and C. Bannwarth, J. Chem. Phys., 2016, 145, 054103.
     DOI: 10.1063/1.4959605
   
   in the mass-spec context:
   * V. Asgeirsson, C. Bauer and S. Grimme, Chem. Sci., 2017, 8, 4879.
     DOI: 10.1039/c7sc00601b
   * J. Koopman and S. Grimme, ACS Omega 2019, 4, 12, 15120-15133.
     DOI: 10.1021/acsomega.9b02011
   
   for metadynamics refer to:
   * S. Grimme, J. Chem. Theory Comput., 2019, 155, 2847-2862
     DOI: 10.1021/acs.jctc.9b00143
   
   for SPH calculations refer to:
   * S. Spicher and S. Grimme, J. Chem. Theory Comput., 2021, 17, 1701-1714
     DOI: 10.1021/acs.jctc.0c01306
   
   with help from (in alphabetical order)
   P. Atkinson, C. Bannwarth, F. Bohle, G. Brandenburg, E. Caldeweyher
   M. Checinski, S. Dohm, S. Ehlert, S. Ehrlich, I. Gerasimov, C. Hölzer
   A. Katbashev, J. Koopman, C. Lavigne, S. Lehtola, F. März, M. Müller,
   F. Musil, H. Neugebauer, J. Pisarek, C. Plett, P. Pracht, F. Pultar,
   J. Seibert, P. Shushkov, S. Spicher, M. Stahn, M. Steiner, T. Strunk,
   J. Stückrath, T. Rose, and J. Unsleber
   
 * started run on 2023/01/23 at 14:12:37.439     

           -------------------------------------------------
          |                Calculation Setup                |
           -------------------------------------------------

          program call               : xtb init.xyz --opt -c 0 -u 0 -P 16
          hostname                   : gpg-woodward
          coordinate file            : init.xyz
          omp threads                :                    16

   ID    Z sym.   atoms
    1    7 N      1
    2    6 C      2-5
    3   17 Cl     6
    4    1 H      7-18

molecular fragmentation (1/2 indicates fragments):
111112111111111111
# atoms in fragment 1/2:    17     1
 fragment masses (1/2) :       74.14       35.45
CMA distance (Bohr)    :   7.512
constraining FC (au)   :  0.0500

           -------------------------------------------------
          |                 G F N 2 - x T B                 |
           -------------------------------------------------

        Reference                      10.1021/acs.jctc.8b01176
      * Hamiltonian:
        H0-scaling (s, p, d)           1.850000    2.230000    2.230000
        zeta-weighting                 0.500000
      * Dispersion:
        s8                             2.700000
        a1                             0.520000
        a2                             5.000000
        s9                             5.000000
      * Repulsion:
        kExp                           1.500000    1.000000
        rExp                           1.000000
      * Coulomb:
        alpha                          2.000000
        third order                    shell-resolved
        anisotropic                    true
        a3                             3.000000
        a5                             4.000000
        cn-shift                       1.200000
        cn-exp                         4.000000
        max-rad                        5.000000


          ...................................................
          :                      SETUP                      :
          :.................................................:
          :  # basis functions                  42          :
          :  # atomic orbitals                  41          :
          :  # shells                           25          :
          :  # electrons                        40          :
          :  max. iterations                   250          :
          :  Hamiltonian                  GFN2-xTB          :
          :  restarted?                      false          :
          :  GBSA solvation                  false          :
          :  PC potential                    false          :
          :  electronic temp.          300.0000000     K    :
          :  accuracy                    1.0000000          :
          :  -> integral cutoff          0.2500000E+02      :
          :  -> integral neglect         0.1000000E-07      :
          :  -> SCF convergence          0.1000000E-05 Eh   :
          :  -> wf. convergence          0.1000000E-03 e    :
          :  Broyden damping             0.4000000          :
          ...................................................

 iter      E             dE          RMSdq      gap      omega  full diag
   1    -22.2362735 -0.222363E+02  0.376E+00   11.05       0.0  T
   2    -22.3692663 -0.132993E+00  0.201E+00    8.09       1.0  T
   3    -22.3729270 -0.366078E-02  0.127E+00    7.23       1.0  T
   4    -22.3746716 -0.174450E-02  0.362E-01    6.63       1.0  T
   5    -22.3751925 -0.520979E-03  0.196E-01    6.72       1.0  T
   6    -22.3753996 -0.207035E-03  0.113E-01    6.77       1.0  T
   7    -22.3754842 -0.846673E-04  0.261E-02    6.80       1.0  T
   8    -22.3754853 -0.105532E-05  0.875E-03    6.78       2.7  T
   9    -22.3754855 -0.163232E-06  0.243E-03    6.77       9.7  T
  10    -22.3754855 -0.220132E-07  0.962E-04    6.78      24.5  T
  11    -22.3754855 -0.202794E-08  0.430E-04    6.78      54.8  T

   *** convergence criteria satisfied after 11 iterations ***

         #    Occupation            Energy/Eh            Energy/eV
      -------------------------------------------------------------
         1        2.0000           -0.9423966             -25.6439
       ...           ...                  ...                  ...
        14        2.0000           -0.4722358             -12.8502
        15        2.0000           -0.4694401             -12.7741
        16        2.0000           -0.4577782             -12.4568
        17        2.0000           -0.4453846             -12.1195
        18        2.0000           -0.3440734              -9.3627
        19        2.0000           -0.3330256              -9.0621
        20        2.0000           -0.3329487              -9.0600 (HOMO)
        21                         -0.0839632              -2.2848 (LUMO)
        22                          0.0401667               1.0930
        23                          0.0494513               1.3456
        24                          0.0674880               1.8364
        25                          0.0810809               2.2063
       ...                                ...                  ...
        41                          0.2783310               7.5738
      -------------------------------------------------------------
                  HL-Gap            0.2489855 Eh            6.7752 eV
             Fermi-level           -0.2084559 Eh           -5.6724 eV

 SCC (total)                   0 d,  0 h,  0 min,  0.017 sec
 SCC setup                      ...        0 min,  0.000 sec (  1.116%)
 Dispersion                     ...        0 min,  0.000 sec (  1.448%)
 classical contributions        ...        0 min,  0.000 sec (  0.441%)
 integral evaluation            ...        0 min,  0.001 sec (  6.216%)
 iterations                     ...        0 min,  0.013 sec ( 77.727%)
 molecular gradient             ...        0 min,  0.002 sec ( 10.513%)
 printout                       ...        0 min,  0.000 sec (  1.046%)

         :::::::::::::::::::::::::::::::::::::::::::::::::::::
         ::                     SUMMARY                     ::
         :::::::::::::::::::::::::::::::::::::::::::::::::::::
         :: total energy             -22.130576851120 Eh    ::
         :: gradient norm              0.048543058847 Eh/a0 ::
         :: HOMO-LUMO gap              6.775240254551 eV    ::
         ::.................................................::
         :: SCC energy               -22.375485474103 Eh    ::
         :: -> isotropic ES            0.095603324658 Eh    ::
         :: -> anisotropic ES         -0.019611700191 Eh    ::
         :: -> anisotropic XC          0.001698195346 Eh    ::
         :: -> dispersion             -0.009288041499 Eh    ::
         :: repulsion energy           0.244880197365 Eh    ::
         :: add. restraining           0.000000000000 Eh    ::
         :: total charge              -0.000000000000 e     ::
         :::::::::::::::::::::::::::::::::::::::::::::::::::::

      ----------------------------------------------------------- 
     |                   =====================                   |
     |                        A N C O P T                        |
     |                   =====================                   |
     |               Approximate Normal Coordinate               |
     |                Rational Function Optimizer                |
      ----------------------------------------------------------- 

          ...................................................
          :                      SETUP                      :
          :.................................................:
          :   optimization level            normal          :
          :   max. optcycles                   200          :
          :   ANC micro-cycles                  20          :
          :   degrees of freedom                48          :
          :.................................................:
          :   RF solver                   davidson          :
          :   write xtbopt.log                true          :
          :   linear?                        false          :
          :   energy convergence         0.5000000E-05 Eh   :
          :   grad. convergence          0.1000000E-02 Eh/α :
          :   maximium RF displ.         1.0000000          :
          :   Hlow (freq-cutoff)         0.1000000E-01      :
          :   Hmax (freq-cutoff)         5.0000000          :
          :   S6 in model hess.         20.0000000          :
          ...................................................

generating ANC from model Hessian ...
Using Lindh-Hessian (1995)
 Shifting diagonal of input Hessian by    9.6557212798112930E-003
 Lowest  eigenvalues of input Hessian
    0.000000    0.000000    0.000000    0.000000    0.000000    0.000000
    0.010000    0.010864    0.013143    0.014165    0.014312    0.020523
    0.024574    0.025576    0.027989    0.039299    0.049552    0.054788
 Highest eigenvalues
    1.198899    1.214649    1.264188    1.284155    1.471492    1.517914


........................................................................
.............................. CYCLE    1 ..............................
........................................................................
   1    -22.3754855 -0.223755E+02  0.289E-04    6.78       0.0  T
   2    -22.3754855 -0.174733E-09  0.235E-04    6.78     100.2  T
   3    -22.3754855 -0.291607E-09  0.898E-05    6.78     262.4  T
     SCC iter.                  ...        0 min,  0.004 sec
     gradient                   ...        0 min,  0.002 sec
 * total energy  :   -22.1305769 Eh     change       -0.1033555E-08 Eh
   gradient norm :     0.0485469 Eh/α   predicted     0.0000000E+00 (-100.00%)
   displ. norm   :     0.4589232 α      lambda       -0.1591198E-01
   maximum displ.:     0.4099028 α      in ANC's #10, #7, #31, ...

........................................................................
.............................. CYCLE    2 ..............................
........................................................................
   1    -22.3844524 -0.223845E+02  0.487E-01    7.34       0.0  T
   2    -22.3850606 -0.608153E-03  0.289E-01    7.59       1.0  T
   3    -22.3851214 -0.608173E-04  0.106E-01    7.75       1.0  T
   4    -22.3851393 -0.178878E-04  0.473E-02    7.78       1.0  T
   5    -22.3851477 -0.840507E-05  0.313E-02    7.77       1.0  T
   6    -22.3851540 -0.630955E-05  0.153E-02    7.76       1.5  T
   7    -22.3851558 -0.183350E-05  0.296E-03    7.76       8.0  T
   8    -22.3851559 -0.442899E-07  0.109E-03    7.76      21.7  T
   9    -22.3851559 -0.267792E-08  0.247E-04    7.76      95.6  T
  10    -22.3851559 -0.206875E-09  0.959E-05    7.76     245.7  T
     SCC iter.                  ...        0 min,  0.011 sec
     gradient                   ...        0 min,  0.002 sec
 * total energy  :   -22.1394522 Eh     change       -0.8875387E-02 Eh
   gradient norm :     0.0482181 Eh/α   predicted    -0.9631601E-02 (   8.52%)
   displ. norm   :     0.3009545 α      lambda       -0.5252164E-02
   maximum displ.:     0.1774172 α      in ANC's #2, #5, #4, ...

........................................................................
.............................. CYCLE    3 ..............................
........................................................................
   1    -22.3875566 -0.223876E+02  0.186E-01    7.70       0.0  T
   2    -22.3876126 -0.560082E-04  0.112E-01    7.79       1.0  T
   3    -22.3876204 -0.778046E-05  0.341E-02    7.86       1.0  T
   4    -22.3876229 -0.253312E-05  0.179E-02    7.87       1.3  T
   5    -22.3876238 -0.882647E-06  0.132E-02    7.87       1.8  T
   6    -22.3876248 -0.986550E-06  0.509E-03    7.87       4.6  T
   7    -22.3876249 -0.106065E-06  0.166E-03    7.87      14.2  T
   8    -22.3876249 -0.104056E-07  0.284E-04    7.87      83.1  T
   9    -22.3876249 -0.123478E-09  0.101E-04    7.87     233.5  T
     SCC iter.                  ...        0 min,  0.010 sec
     gradient                   ...        0 min,  0.002 sec
 * total energy  :   -22.1434167 Eh     change       -0.3964454E-02 Eh
   gradient norm :     0.0341762 Eh/α   predicted    -0.2863935E-02 ( -27.76%)
   displ. norm   :     0.3643498 α      lambda       -0.4681721E-02
   maximum displ.:     0.1716388 α      in ANC's #2, #4, #5, ...

........................................................................
.............................. CYCLE    4 ..............................
........................................................................
   1    -22.3878840 -0.223879E+02  0.311E-01    7.98       0.0  T
   2    -22.3882562 -0.372124E-03  0.182E-01    8.20       1.0  T
   3    -22.3882942 -0.380177E-04  0.785E-02    8.32       1.0  T
   4    -22.3883066 -0.123818E-04  0.389E-02    8.37       1.0  T
   5    -22.3883113 -0.473416E-05  0.290E-02    8.36       1.0  T
   6    -22.3883172 -0.593188E-05  0.116E-02    8.36       2.0  T
   7    -22.3883182 -0.947722E-06  0.363E-03    8.36       6.5  T
   8    -22.3883183 -0.830361E-07  0.167E-03    8.35      14.1  T
   9    -22.3883183 -0.107587E-07  0.113E-03    8.35      20.9  T
  10    -22.3883183 -0.675159E-08  0.668E-04    8.35      35.3  T
  11    -22.3883183 -0.307969E-08  0.158E-04    8.35     149.3  T
     SCC iter.                  ...        0 min,  0.012 sec
     gradient                   ...        0 min,  0.002 sec
 * total energy  :   -22.1466793 Eh     change       -0.3262621E-02 Eh
   gradient norm :     0.0279011 Eh/α   predicted    -0.2651614E-02 ( -18.73%)
   displ. norm   :     0.2231015 α      lambda       -0.2909020E-02
   maximum displ.:     0.0969870 α      in ANC's #4, #31, #30, ...

........................................................................
.............................. CYCLE    5 ..............................
........................................................................
   1    -22.3902271 -0.223902E+02  0.297E-01    8.56       0.0  T
   2    -22.3906115 -0.384432E-03  0.167E-01    8.76       1.0  T
   3    -22.3906492 -0.377131E-04  0.739E-02    8.86       1.0  T
   4    -22.3906610 -0.117829E-04  0.364E-02    8.89       1.0  T
   5    -22.3906657 -0.468015E-05  0.274E-02    8.89       1.0  T
   6    -22.3906719 -0.626196E-05  0.123E-02    8.88       1.9  T
   7    -22.3906734 -0.143055E-05  0.387E-03    8.87       6.1  T
   8    -22.3906735 -0.112744E-06  0.111E-03    8.87      21.2  T
   9    -22.3906735 -0.331845E-08  0.595E-04    8.87      39.6  T
  10    -22.3906735 -0.108189E-08  0.370E-04    8.87      63.6  T
     SCC iter.                  ...        0 min,  0.011 sec
     gradient                   ...        0 min,  0.002 sec
 * total energy  :   -22.1490088 Eh     change       -0.2329441E-02 Eh
   gradient norm :     0.0208311 Eh/α   predicted    -0.1526904E-02 ( -34.45%)
   displ. norm   :     0.3256915 α      lambda       -0.3507067E-02
   maximum displ.:     0.1424143 α      in ANC's #4, #31, #30, ...

........................................................................
.............................. CYCLE    6 ..............................
........................................................................
   1    -22.3934184 -0.223934E+02  0.386E-01    9.17       0.0  T
   2    -22.3940561 -0.637713E-03  0.214E-01    9.34       1.0  T
   3    -22.3941270 -0.709257E-04  0.976E-02    9.42       1.0  T
   4    -22.3941498 -0.227893E-04  0.494E-02    9.43       1.0  T
   5    -22.3941598 -0.997034E-05  0.371E-02    9.42       1.0  T
   6    -22.3941725 -0.127166E-04  0.184E-02    9.41       1.3  T
   7    -22.3941762 -0.364493E-05  0.578E-03    9.39       4.1  T
   8    -22.3941764 -0.256614E-06  0.158E-03    9.39      14.9  T
   9    -22.3941764 -0.523647E-08  0.776E-04    9.39      30.4  T
  10    -22.3941764 -0.174414E-08  0.463E-04    9.39      50.9  T
     SCC iter.                  ...        0 min,  0.011 sec
     gradient                   ...        0 min,  0.002 sec
 * total energy  :   -22.1510652 Eh     change       -0.2056425E-02 Eh
   gradient norm :     0.0124130 Eh/α   predicted    -0.1939543E-02 (  -5.68%)
   displ. norm   :     0.1461137 α      lambda       -0.1080930E-02
   maximum displ.:     0.0878448 α      in ANC's #10, #4, #2, ...

........................................................................
.............................. CYCLE    7 ..............................
........................................................................
   1    -22.3929013 -0.223929E+02  0.106E-01    9.02       0.0  T
   2    -22.3929160 -0.146517E-04  0.635E-02    9.04       1.0  T
   3    -22.3929209 -0.490863E-05  0.205E-02    9.06       1.1  T
   4    -22.3929222 -0.129349E-05  0.130E-02    9.06       1.8  T
   5    -22.3929232 -0.101284E-05  0.924E-03    9.07       2.6  T
   6    -22.3929239 -0.720925E-06  0.534E-03    9.07       4.4  T
   7    -22.3929242 -0.311039E-06  0.947E-04    9.08      24.9  T
   8    -22.3929242 -0.570493E-08  0.566E-04    9.08      41.6  T
     SCC iter.                  ...        0 min,  0.008 sec
     gradient                   ...        0 min,  0.001 sec
 * total energy  :   -22.1515454 Eh     change       -0.4801808E-03 Eh
   gradient norm :     0.0090601 Eh/α   predicted    -0.5520028E-03 (  14.96%)
   displ. norm   :     0.1030280 α      lambda       -0.4214587E-03
   maximum displ.:     0.0446723 α      in ANC's #1, #4, #10, ...

........................................................................
.............................. CYCLE    8 ..............................
........................................................................
   1    -22.3937490 -0.223937E+02  0.904E-02    9.19       0.0  T
   2    -22.3937708 -0.217933E-04  0.526E-02    9.20       1.0  T
   3    -22.3937741 -0.329461E-05  0.220E-02    9.21       1.1  T
   4    -22.3937753 -0.124346E-05  0.122E-02    9.21       1.9  T
   5    -22.3937761 -0.818691E-06  0.753E-03    9.21       3.1  T
   6    -22.3937767 -0.519317E-06  0.337E-03    9.20       7.0  T
   7    -22.3937768 -0.103445E-06  0.131E-03    9.20      18.0  T
   8    -22.3937768 -0.102903E-07  0.894E-04    9.20      26.4  T
   9    -22.3937768 -0.513136E-08  0.471E-04    9.20      50.1  T
     SCC iter.                  ...        0 min,  0.009 sec
     gradient                   ...        0 min,  0.001 sec
 * total energy  :   -22.1518073 Eh     change       -0.2619277E-03 Eh
   gradient norm :     0.0046189 Eh/α   predicted    -0.2129652E-03 ( -18.69%)
   displ. norm   :     0.0658540 α      lambda       -0.1168336E-03
   maximum displ.:     0.0317770 α      in ANC's #7, #9, #1, ...

........................................................................
.............................. CYCLE    9 ..............................
........................................................................
   1    -22.3940271 -0.223940E+02  0.391E-02    9.19       0.0  T
   2    -22.3940275 -0.363366E-06  0.234E-02    9.19       1.0  T
   3    -22.3940278 -0.279857E-06  0.480E-03    9.19       4.9  T
   4    -22.3940278 -0.602825E-07  0.373E-03    9.19       6.3  T
   5    -22.3940279 -0.752975E-07  0.160E-03    9.19      14.7  T
   6    -22.3940279 -0.149542E-07  0.484E-04    9.19      48.7  T
   7    -22.3940279 -0.481901E-09  0.118E-04    9.19     199.1  T
     SCC iter.                  ...        0 min,  0.007 sec
     gradient                   ...        0 min,  0.001 sec
 * total energy  :   -22.1518902 Eh     change       -0.8287532E-04 Eh
   gradient norm :     0.0030770 Eh/α   predicted    -0.5866886E-04 ( -29.21%)
   displ. norm   :     0.0831219 α      lambda       -0.8263008E-04
   maximum displ.:     0.0470698 α      in ANC's #7, #9, #2, ...

........................................................................
.............................. CYCLE   10 ..............................
........................................................................
   1    -22.3939549 -0.223940E+02  0.267E-02    9.18       0.0  T
   2    -22.3939550 -0.146975E-06  0.157E-02    9.18       1.5  T
   3    -22.3939551 -0.583067E-07  0.214E-03    9.18      11.0  T
   4    -22.3939551 -0.136848E-07  0.160E-03    9.18      14.7  T
   5    -22.3939551 -0.115633E-07  0.823E-04    9.18      28.6  T
   6    -22.3939551 -0.353229E-08  0.393E-04    9.18      60.0  T
     SCC iter.                  ...        0 min,  0.006 sec
     gradient                   ...        0 min,  0.001 sec
 * total energy  :   -22.1519504 Eh     change       -0.6021067E-04 Eh
   gradient norm :     0.0024312 Eh/α   predicted    -0.4159892E-04 ( -30.91%)
   displ. norm   :     0.1304345 α      lambda       -0.8569761E-04
   maximum displ.:     0.0780391 α      in ANC's #2, #7, #9, ...

........................................................................
.............................. CYCLE   11 ..............................
........................................................................
   1    -22.3936941 -0.223937E+02  0.333E-02    9.18       0.0  T
   2    -22.3936943 -0.212824E-06  0.197E-02    9.18       1.2  T
   3    -22.3936944 -0.656340E-07  0.239E-03    9.18       9.8  T
   4    -22.3936944 -0.194800E-07  0.165E-03    9.18      14.3  T
   5    -22.3936944 -0.984783E-08  0.904E-04    9.18      26.1  T
   6    -22.3936944 -0.414142E-08  0.461E-04    9.18      51.2  T
     SCC iter.                  ...        0 min,  0.006 sec
     gradient                   ...        0 min,  0.001 sec
 * total energy  :   -22.1520141 Eh     change       -0.6371727E-04 Eh
   gradient norm :     0.0027468 Eh/α   predicted    -0.4357605E-04 ( -31.61%)
   displ. norm   :     0.1822287 α      lambda       -0.9599811E-04
   maximum displ.:     0.1322510 α      in ANC's #2, #7, #5, ...

........................................................................
.............................. CYCLE   12 ..............................
........................................................................
   1    -22.3932631 -0.223933E+02  0.547E-02    9.16       0.0  T
   2    -22.3932637 -0.561571E-06  0.330E-02    9.16       1.0  T
   3    -22.3932641 -0.457876E-06  0.621E-03    9.17       3.8  T
   4    -22.3932642 -0.960499E-07  0.487E-03    9.17       4.8  T
   5    -22.3932644 -0.125321E-06  0.211E-03    9.17      11.2  T
   6    -22.3932644 -0.251891E-07  0.672E-04    9.17      35.1  T
   7    -22.3932644 -0.134467E-08  0.146E-04    9.17     161.7  T
     SCC iter.                  ...        0 min,  0.007 sec
     gradient                   ...        0 min,  0.001 sec
 * total energy  :   -22.1520808 Eh     change       -0.6674788E-04 Eh
   gradient norm :     0.0029470 Eh/α   predicted    -0.4959431E-04 ( -25.70%)
   displ. norm   :     0.1370168 α      lambda       -0.6376120E-04
   maximum displ.:     0.1132852 α      in ANC's #2, #7, #4, ...

........................................................................
.............................. CYCLE   13 ..............................
........................................................................
   1    -22.3934394 -0.223934E+02  0.509E-02    9.16       0.0  T
   2    -22.3934399 -0.470781E-06  0.309E-02    9.16       1.0  T
   3    -22.3934404 -0.538305E-06  0.664E-03    9.16       3.5  T
   4    -22.3934406 -0.139016E-06  0.467E-03    9.16       5.0  T
   5    -22.3934407 -0.130589E-06  0.160E-03    9.16      14.8  T
   6    -22.3934407 -0.136945E-07  0.539E-04    9.16      43.7  T
   7    -22.3934407 -0.679513E-09  0.147E-04    9.16     160.2  T
     SCC iter.                  ...        0 min,  0.007 sec
     gradient                   ...        0 min,  0.001 sec
 * total energy  :   -22.1521229 Eh     change       -0.4203826E-04 Eh
   gradient norm :     0.0016029 Eh/α   predicted    -0.3247900E-04 ( -22.74%)
   displ. norm   :     0.0993643 α      lambda       -0.2136533E-04
   maximum displ.:     0.0859556 α      in ANC's #2, #7, #1, ...

........................................................................
.............................. CYCLE   14 ..............................
........................................................................
   1    -22.3941284 -0.223941E+02  0.381E-02    9.18       0.0  T
   2    -22.3941287 -0.261593E-06  0.231E-02    9.17       1.0  T
   3    -22.3941290 -0.286148E-06  0.486E-03    9.17       4.9  T
   4    -22.3941290 -0.705857E-07  0.349E-03    9.17       6.7  T
   5    -22.3941291 -0.725805E-07  0.110E-03    9.17      21.5  T
   6    -22.3941291 -0.622610E-08  0.380E-04    9.17      62.1  T
   7    -22.3941291 -0.299071E-09  0.899E-05    9.17     262.1  T
     SCC iter.                  ...        0 min,  0.007 sec
     gradient                   ...        0 min,  0.001 sec
 * total energy  :   -22.1521393 Eh     change       -0.1646068E-04 Eh
   gradient norm :     0.0013985 Eh/α   predicted    -0.1072969E-04 ( -34.82%)
   displ. norm   :     0.0543568 α      lambda       -0.9147367E-05
   maximum displ.:     0.0433720 α      in ANC's #2, #5, #7, ...

........................................................................
.............................. CYCLE   15 ..............................
........................................................................
   1    -22.3940568 -0.223941E+02  0.141E-02    9.18       0.0  T
   2    -22.3940568 -0.346665E-07  0.838E-03    9.18       2.8  T
   3    -22.3940568 -0.170000E-07  0.120E-03    9.17      19.6  T
   4    -22.3940568 -0.372156E-08  0.884E-04    9.18      26.7  T
   5    -22.3940568 -0.323345E-08  0.509E-04    9.18      46.3  T
     SCC iter.                  ...        0 min,  0.005 sec
     gradient                   ...        0 min,  0.001 sec
 * total energy  :   -22.1521514 Eh     change       -0.1203462E-04 Eh
   gradient norm :     0.0012587 Eh/α   predicted    -0.4579240E-05 ( -61.95%)
   displ. norm   :     0.2610313 α      lambda       -0.4610651E-04
   maximum displ.:     0.1958380 α      in ANC's #2, #5, #4, ...

........................................................................
.............................. CYCLE   16 ..............................
........................................................................
   1    -22.3937865 -0.223938E+02  0.657E-02    9.18       0.0  T
   2    -22.3937869 -0.356607E-06  0.391E-02    9.18       1.0  T
   3    -22.3937872 -0.267107E-06  0.456E-03    9.18       5.2  T
   4    -22.3937872 -0.517677E-07  0.336E-03    9.18       7.0  T
   5    -22.3937873 -0.536949E-07  0.170E-03    9.18      13.9  T
   6    -22.3937873 -0.162368E-07  0.698E-04    9.18      33.8  T
   7    -22.3937873 -0.190251E-08  0.125E-04    9.18     187.8  T
     SCC iter.                  ...        0 min,  0.007 sec
     gradient                   ...        0 min,  0.001 sec
 * total energy  :   -22.1521938 Eh     change       -0.4240572E-04 Eh
   gradient norm :     0.0017836 Eh/α   predicted    -0.2375145E-04 ( -43.99%)
   displ. norm   :     0.1628731 α      lambda       -0.1639136E-04
   maximum displ.:     0.1340732 α      in ANC's #2, #5, #4, ...

........................................................................
.............................. CYCLE   17 ..............................
........................................................................
   1    -22.3933202 -0.223933E+02  0.477E-02    9.15       0.0  T
   2    -22.3933205 -0.284596E-06  0.286E-02    9.15       1.0  T
   3    -22.3933208 -0.284808E-06  0.484E-03    9.15       4.9  T
   4    -22.3933208 -0.717066E-07  0.350E-03    9.15       6.7  T
   5    -22.3933209 -0.704495E-07  0.143E-03    9.16      16.5  T
   6    -22.3933209 -0.127782E-07  0.503E-04    9.16      46.8  T
   7    -22.3933209 -0.827015E-09  0.176E-04    9.16     134.2  T
     SCC iter.                  ...        0 min,  0.006 sec
     gradient                   ...        0 min,  0.001 sec
 * total energy  :   -22.1522093 Eh     change       -0.1552250E-04 Eh
   gradient norm :     0.0017884 Eh/α   predicted    -0.8291746E-05 ( -46.58%)
   displ. norm   :     0.0965778 α      lambda       -0.1592392E-04
   maximum displ.:     0.0580784 α      in ANC's #2, #4, #5, ...

........................................................................
.............................. CYCLE   18 ..............................
........................................................................
   1    -22.3943407 -0.223943E+02  0.299E-02    9.18       0.0  T
   2    -22.3943410 -0.252761E-06  0.176E-02    9.18       1.3  T
   3    -22.3943411 -0.828247E-07  0.263E-03    9.18       9.0  T
   4    -22.3943411 -0.175551E-07  0.194E-03    9.18      12.2  T
   5    -22.3943411 -0.195673E-07  0.114E-03    9.18      20.7  T
   6    -22.3943411 -0.920307E-08  0.540E-04    9.18      43.7  T
   7    -22.3943411 -0.183026E-08  0.223E-04    9.18     105.7  T
     SCC iter.                  ...        0 min,  0.006 sec
     gradient                   ...        0 min,  0.001 sec
 * total energy  :   -22.1522181 Eh     change       -0.8779106E-05 Eh
   gradient norm :     0.0008875 Eh/α   predicted    -0.7994786E-05 (  -8.93%)
   displ. norm   :     0.0733108 α      lambda       -0.5885565E-05
   maximum displ.:     0.0602885 α      in ANC's #2, #4, #7, ...

........................................................................
.............................. CYCLE   19 ..............................
........................................................................
   1    -22.3939456 -0.223939E+02  0.240E-02    9.16       0.0  T
   2    -22.3939457 -0.119128E-06  0.144E-02    9.16       1.6  T
   3    -22.3939458 -0.962946E-07  0.280E-03    9.16       8.4  T
   4    -22.3939458 -0.213170E-07  0.215E-03    9.16      11.0  T
   5    -22.3939459 -0.273727E-07  0.879E-04    9.16      26.8  T
   6    -22.3939459 -0.470405E-08  0.336E-04    9.16      70.1  T
     SCC iter.                  ...        0 min,  0.005 sec
     gradient                   ...        0 min,  0.001 sec
 * total energy  :   -22.1522225 Eh     change       -0.4384193E-05 Eh
   gradient norm :     0.0004978 Eh/α   predicted    -0.2948318E-05 ( -32.75%)
   displ. norm   :     0.0273093 α      lambda       -0.1743412E-05
   maximum displ.:     0.0207751 α      in ANC's #5, #2, #1, ...

   *** GEOMETRY OPTIMIZATION CONVERGED AFTER 19 ITERATIONS ***

------------------------------------------------------------------------
 total energy gain   :        -0.0216456 Eh      -13.5828 kcal/mol
 total RMSD          :         0.4237081 a0        0.2242 Å
 total power (kW/mol):        -2.9910818 (step) -270.3160 (real)
------------------------------------------------------------------------

 ANCopt (total)                0 d,  0 h,  0 min,  0.210 sec
 optimizer setup                ...        0 min,  0.000 sec (  0.062%)
 model hessian                  ...        0 min,  0.006 sec (  2.952%)
 ANC generation                 ...        0 min,  0.001 sec (  0.498%)
 coordinate transformation      ...        0 min,  0.000 sec (  0.210%)
 single point calculation       ...        0 min,  0.195 sec ( 92.535%)
 optimization log               ...        0 min,  0.002 sec (  0.886%)
 hessian update                 ...        0 min,  0.001 sec (  0.253%)
 rational function              ...        0 min,  0.003 sec (  1.597%)

================
 final structure:
================
18
 xtb: 6.5.1 (fef0646)
N            1.11669452591302        0.25983807402321       -0.39896175756235
C            2.57562214094903        0.35399876919754       -0.35288546368326
C            3.02377182237572        0.83515117661533        1.02328724282570
C            4.54462956513808        0.86036519624003        1.15288499606016
C            4.97721528111092        1.34137823381639        2.53233120167316
Cl           0.15514984747539       -1.63110986802876        1.62525207846801
H            0.79572683087877       -0.06630416132127       -1.30372226285579
H            0.69245388622972        1.16144842071131       -0.20581498772460
H            0.61699666615444       -0.74551800737035        0.68113991907533
H            2.96921490713877        1.02763212246051       -1.12792060020088
H            2.97367878788463       -0.64623949879551       -0.53945050982954
H            2.60241881756835        0.17005806954892        1.77748907310479
H            2.62855474046661        1.83809797994907        1.20202229076292
H            4.96569778674367        1.51826485648093        0.38840948791616
H            4.93680681811684       -0.14373565228300        0.97890153551192
H            4.61458560801274        2.35043000965980        2.71676277805002
H            6.06127181331244        1.34561511060278        2.61400818517134
H            4.57610015453068        0.68748916849297        3.30316679323696

 Bond Distances (Angstroems)
 ---------------------------
N1-C2=1.4627         N1-H7=1.0139         N1-H8=1.0150         C2-N1=1.4627         C2-C3=1.5252         C2-H10=1.0997        
C2-H11=1.0926        C3-C2=1.5252         C3-C4=1.5266         C3-H12=1.0903        C3-H13=1.0927        C4-C3=1.5266         
C4-C5=1.5236         C4-H14=1.0930        C4-H15=1.0919        C5-C4=1.5236         C5-H16=1.0880        C5-H17=1.0871        
C5-H18=1.0875        Cl6-H9=1.3744        H7-N1=1.0139         H8-N1=1.0150         H9-Cl6=1.3744        H10-C2=1.0997        
H11-C2=1.0926        H12-C3=1.0903        H13-C3=1.0927        H14-C4=1.0930        H15-C4=1.0919        H16-C5=1.0880        
H17-C5=1.0871        H18-C5=1.0875        
 C  H  Rav=1.0914 sigma=0.0037  Rmin=1.0871  Rmax=1.0997     9
 C  C  Rav=1.5251 sigma=0.0012  Rmin=1.5236  Rmax=1.5266     3
 N  H  Rav=1.0144 sigma=0.0005  Rmin=1.0139  Rmax=1.0150     2
 N  C  Rav=1.4627 sigma=0.0000  Rmin=1.4627  Rmax=1.4627     1
 Cl H  Rav=1.3744 sigma=0.0000  Rmin=1.3744  Rmax=1.3744     1

 selected bond angles (degree)
 --------------------
H7-N1-C2=111.38                H8-N1-C2=110.72                H8-N1-H7=108.86                C3-C2-N1=109.99                
H10-C2-N1=111.98               H10-C2-C3=109.72               H11-C2-N1=107.40               H11-C2-C3=109.62               
H11-C2-H10=108.06              C4-C3-C2=112.00                H12-C3-C2=108.55               H12-C3-C4=109.66               
H13-C3-C2=109.32               H13-C3-C4=109.35               H13-C3-H12=107.88              C5-C4-C3=111.40                
H14-C4-C3=109.53               H14-C4-C5=109.50               H15-C4-C3=109.21               H15-C4-C5=109.43               
H15-C4-H14=107.68              H16-C5-C4=110.59               H17-C5-C4=110.63               H17-C5-H16=108.42              
H18-C5-C4=110.32               H18-C5-H16=108.33              H18-C5-H17=108.47              

 selected dihedral angles (degree)
 ---------------------------------
C3-C2-N1-H7=180.48            C3-C2-N1-H8= 59.20            H10-C2-N1-H7= 58.20           H10-C2-N1-H8=296.93           
H11-C2-N1-H7=299.72           H11-C2-N1-H8=178.45           C4-C3-C2-N1=176.16            C4-C3-C2-H10=299.76           
C4-C3-C2-H11= 58.28           H12-C3-C2-N1= 54.95           H12-C3-C2-H10=178.55          H12-C3-C2-H11=297.07          
H13-C3-C2-N1=297.51           H13-C3-C2-H10= 61.11          H13-C3-C2-H11=179.63          C5-C4-C3-C2=180.06            
C5-C4-C3-H12=300.63           C5-C4-C3-H13= 58.72           H14-C4-C3-C2= 58.76           H14-C4-C3-H12=179.33          
H14-C4-C3-H13=297.42          H15-C4-C3-C2=301.05           H15-C4-C3-H12= 61.62          H15-C4-C3-H13=179.72          
H16-C5-C4-C3=299.61           H16-C5-C4-H14= 60.93          H16-C5-C4-H15=178.75          H17-C5-C4-C3=179.47           
H17-C5-C4-H14=300.79          H17-C5-C4-H15= 58.60          H18-C5-C4-C3= 59.44           H18-C5-C4-H14=180.76          
H18-C5-C4-H15=298.57          

 CMA Distance (Angstroems)
 ---------------------------
R(CMA):  3.9234
           -------------------------------------------------
          |                Final Singlepoint                |
           -------------------------------------------------

          ...................................................
          :                      SETUP                      :
          :.................................................:
          :  # basis functions                  42          :
          :  # atomic orbitals                  41          :
          :  # shells                           25          :
          :  # electrons                        40          :
          :  max. iterations                   250          :
          :  Hamiltonian                  GFN2-xTB          :
          :  restarted?                      false          :
          :  GBSA solvation                  false          :
          :  PC potential                    false          :
          :  electronic temp.          300.0000000     K    :
          :  accuracy                    1.0000000          :
          :  -> integral cutoff          0.2500000E+02      :
          :  -> integral neglect         0.1000000E-07      :
          :  -> SCF convergence          0.1000000E-05 Eh   :
          :  -> wf. convergence          0.1000000E-03 e    :
          :  Broyden damping             0.4000000          :
          ...................................................

 iter      E             dE          RMSdq      gap      omega  full diag
   1    -22.3939459 -0.223939E+02  0.140E-04    9.16       0.0  T
   2    -22.3939459 -0.515001E-10  0.119E-04    9.16     198.2  T
   3    -22.3939459 -0.119918E-09  0.652E-05    9.16     361.7  T

   *** convergence criteria satisfied after 3 iterations ***

         #    Occupation            Energy/Eh            Energy/eV
      -------------------------------------------------------------
         1        2.0000           -1.0158636             -27.6431
       ...           ...                  ...                  ...
        14        2.0000           -0.4559319             -12.4065
        15        2.0000           -0.4497842             -12.2392
        16        2.0000           -0.4433922             -12.0653
        17        2.0000           -0.4322990             -11.7635
        18        2.0000           -0.3983879             -10.8407
        19        2.0000           -0.3929692             -10.6932
        20        2.0000           -0.3929319             -10.6922 (HOMO)
        21                         -0.0561522              -1.5280 (LUMO)
        22                          0.0124252               0.3381
        23                          0.0682706               1.8577
        24                          0.0686849               1.8690
        25                          0.0742465               2.0203
       ...                                ...                  ...
        41                          0.3014164               8.2020
      -------------------------------------------------------------
                  HL-Gap            0.3367797 Eh            9.1642 eV
             Fermi-level           -0.2245420 Eh           -6.1101 eV

 SCC (total)                   0 d,  0 h,  0 min,  0.004 sec
 SCC setup                      ...        0 min,  0.000 sec (  1.829%)
 Dispersion                     ...        0 min,  0.000 sec (  2.643%)
 classical contributions        ...        0 min,  0.000 sec (  0.627%)
 integral evaluation            ...        0 min,  0.001 sec ( 12.426%)
 iterations                     ...        0 min,  0.002 sec ( 56.467%)
 molecular gradient             ...        0 min,  0.001 sec ( 22.095%)
 printout                       ...        0 min,  0.000 sec (  1.631%)

         :::::::::::::::::::::::::::::::::::::::::::::::::::::
         ::                     SUMMARY                     ::
         :::::::::::::::::::::::::::::::::::::::::::::::::::::
         :: total energy             -22.152222466364 Eh    ::
         :: gradient norm              0.000497184495 Eh/a0 ::
         :: HOMO-LUMO gap              9.164242802413 eV    ::
         ::.................................................::
         :: SCC energy               -22.393945878570 Eh    ::
         :: -> isotropic ES            0.028575776861 Eh    ::
         :: -> anisotropic ES         -0.002920934344 Eh    ::
         :: -> anisotropic XC          0.009021132077 Eh    ::
         :: -> dispersion             -0.009765832601 Eh    ::
         :: repulsion energy           0.241689645569 Eh    ::
         :: add. restraining           0.000000000000 Eh    ::
         :: total charge               0.000000000000 e     ::
         :::::::::::::::::::::::::::::::::::::::::::::::::::::

           -------------------------------------------------
          |                Property Printout                |
           -------------------------------------------------

    * Orbital Energies and Occupations

         #    Occupation            Energy/Eh            Energy/eV
      -------------------------------------------------------------
         1        2.0000           -1.0158636             -27.6431
       ...           ...                  ...                  ...
         8        2.0000           -0.5438525             -14.7990
         9        2.0000           -0.5261284             -14.3167
        10        2.0000           -0.5120076             -13.9324
        11        2.0000           -0.4944940             -13.4559
        12        2.0000           -0.4849719             -13.1968
        13        2.0000           -0.4760203             -12.9532
        14        2.0000           -0.4559319             -12.4065
        15        2.0000           -0.4497842             -12.2392
        16        2.0000           -0.4433922             -12.0653
        17        2.0000           -0.4322990             -11.7635
        18        2.0000           -0.3983879             -10.8407
        19        2.0000           -0.3929692             -10.6932
        20        2.0000           -0.3929319             -10.6922 (HOMO)
        21                         -0.0561522              -1.5280 (LUMO)
        22                          0.0124252               0.3381
        23                          0.0682706               1.8577
        24                          0.0686849               1.8690
        25                          0.0742465               2.0203
        26                          0.0744536               2.0260
        27                          0.0765030               2.0818
        28                          0.0966295               2.6294
        29                          0.1144720               3.1149
        30                          0.1209732               3.2918
        31                          0.1421129               3.8671
       ...                                ...                  ...
        41                          0.3014164               8.2020
      -------------------------------------------------------------
                  HL-Gap            0.3367797 Eh            9.1642 eV
             Fermi-level           -0.2245420 Eh           -6.1101 eV

     #   Z          covCN         q      C6AA      α(0)
     1   7 N        2.697    -0.305    27.850     7.838
     2   6 C        3.732     0.007    20.546     6.470
     3   6 C        3.804    -0.075    21.921     6.665
     4   6 C        3.801    -0.054    21.547     6.609
     5   6 C        3.753    -0.105    22.570     6.775
     6  17 Cl       0.837    -0.487   115.209    16.420
     7   1 H        0.860     0.166     1.300     1.786
     8   1 H        0.860     0.167     1.290     1.779
     9   1 H        0.903     0.332     0.623     1.235
    10   1 H        0.923     0.023     2.685     2.563
    11   1 H        0.924     0.051     2.302     2.373
    12   1 H        0.924     0.063     2.163     2.300
    13   1 H        0.924     0.038     2.478     2.461
    14   1 H        0.924     0.030     2.591     2.517
    15   1 H        0.924     0.035     2.516     2.481
    16   1 H        0.925     0.036     2.503     2.474
    17   1 H        0.925     0.037     2.487     2.466
    18   1 H        0.925     0.041     2.434     2.440

 Mol. C6AA /au·bohr⁶  :       2676.060007
 Mol. C8AA /au·bohr⁸  :      64322.678636
 Mol. α(0) /au        :         77.652786


Wiberg/Mayer (AO) data.
largest (>0.10) Wiberg bond orders for each atom

 ---------------------------------------------------------------------------
     #   Z sym  total        # sym  WBO       # sym  WBO       # sym  WBO
 ---------------------------------------------------------------------------
     1   7 N    3.241 --     2 C    1.004     7 H    0.959     8 H    0.958
                             9 H    0.208
     2   6 C    3.973 --     3 C    1.006     1 N    1.004    11 H    0.974
                            10 H    0.973
     3   6 C    3.993 --     4 C    1.007     2 C    1.006    13 H    0.976
                            12 H    0.973
     4   6 C    3.998 --     5 C    1.019     3 C    1.007    14 H    0.978
                            15 H    0.978
     5   6 C    3.996 --     4 C    1.019    16 H    0.988    18 H    0.987
                            17 H    0.987
     6  17 Cl   0.766 --     9 H    0.677
     7   1 H    0.972 --     1 N    0.959
     8   1 H    0.972 --     1 N    0.958
     9   1 H    0.890 --     6 Cl   0.677     1 N    0.208
    10   1 H    0.999 --     2 C    0.973
    11   1 H    0.997 --     2 C    0.974
    12   1 H    0.996 --     3 C    0.973
    13   1 H    0.999 --     3 C    0.976
    14   1 H    0.999 --     4 C    0.978
    15   1 H    0.999 --     4 C    0.978
    16   1 H    0.999 --     5 C    0.988
    17   1 H    0.998 --     5 C    0.987
    18   1 H    0.998 --     5 C    0.987
 ---------------------------------------------------------------------------

Topologies differ in total number of bonds
Writing topology from bond orders to xtbtopo.mol

molecular dipole:
                 x           y           z       tot (Debye)
 q only:        0.840       1.280      -1.176
   full:        0.662       1.227      -1.208       4.690
molecular quadrupole (traceless):
                xx          xy          yy          xz          yz          zz
 q only:        7.214       0.623      -4.259       1.328       6.498      -2.954
  q+dip:        3.797       1.380      -1.644      -1.123       3.217      -2.153
   full:        4.275       1.560      -2.301      -0.836       3.422      -1.974

           -------------------------------------------------
          |                Geometry Summary                 |
           -------------------------------------------------

      molecular mass/u    :      109.5978734
   center of mass at/Å    :        2.2034885      -0.0446754       1.0485081
  moments of inertia/u·Å² :        0.1432124E+03   0.5259505E+03   0.6372690E+03
rotational constants/cm⁻¹ :        0.1177107E+00   0.3205175E-01   0.2645293E-01

 * 15 selected distances

     #   Z          #   Z                                           value/Å
     1   7 N        2   6 C                                       1.4626891
     2   6 C        3   6 C                                       1.5251877
     3   6 C        4   6 C                                       1.5265779 (max)
     4   6 C        5   6 C                                       1.5236063
     1   7 N        7   1 H                                       1.0138939 (min)
     1   7 N        8   1 H                                       1.0149814
     2   6 C       10   1 H                                       1.0997167
     2   6 C       11   1 H                                       1.0925806
     3   6 C       12   1 H                                       1.0902788
     3   6 C       13   1 H                                       1.0927238
     4   6 C       14   1 H                                       1.0929563
     4   6 C       15   1 H                                       1.0919212
     5   6 C       16   1 H                                       1.0879802
     5   6 C       17   1 H                                       1.0871375
     5   6 C       18   1 H                                       1.0874980

 * 4 distinct bonds (by element types)

   Z      Z             #   av. dist./Å        max./Å        min./Å
   1 H    6 C           9     1.0914215     1.0997167     1.0871375
   6 C    6 C           3     1.5251240     1.5265779     1.5236063
   1 H    7 N           2     1.0144376     1.0149814     1.0138939
   6 C    7 N           1     1.4626891     1.4626891     1.4626891


optimized geometry written to: xtbopt.xyz


           -------------------------------------------------
          | TOTAL ENERGY              -22.152222466364 Eh   |
          | GRADIENT NORM               0.000497184495 Eh/α |
          | HOMO-LUMO GAP               9.164242802413 eV   |
           -------------------------------------------------

------------------------------------------------------------------------
 * finished run on 2023/01/23 at 14:12:37.693     
------------------------------------------------------------------------
 total:
 * wall-time:     0 d,  0 h,  0 min,  0.253 sec
 *  cpu-time:     0 d,  0 h,  0 min, 25.128 sec
 * ratio c/w:    99.140 speedup
 SCF:
 * wall-time:     0 d,  0 h,  0 min,  0.017 sec
 *  cpu-time:     0 d,  0 h,  0 min,  2.410 sec
 * ratio c/w:   141.866 speedup
 ANC optimizer:
 * wall-time:     0 d,  0 h,  0 min,  0.215 sec
 *  cpu-time:     0 d,  0 h,  0 min, 20.017 sec
 * ratio c/w:    92.941 speedup

