20
 energy: -20.443899224040 gnorm: 0.000425941285 xtb: 6.5.1 (fef0646)
N            0.86402755889513       -0.01236480396880       -0.01631147365468
C            2.34752107259785       -0.02324097040608       -0.02847273761358
C            2.87176477655853       -0.69139451096586       -1.29449232213187
C            4.39994599123989       -0.70103265881725       -1.31349847715512
C            4.94460698174034       -1.36694541723491       -2.57598617429334
C            6.46868665498658       -1.37635949631418       -2.59501924257110
H            0.50928092245815        0.44080826525719        0.83353898627015
H            0.50442693486638       -0.97348234982565       -0.05356660463172
H            0.50900368477239        0.49600099250428       -0.83487761482642
H            2.70888505106320       -0.56231718762611        0.84701042672175
H            2.71365950459408        1.00196907460918        0.02247339328477
H            2.51878318074699       -0.15783493845446       -2.17796599802140
H            2.51855420152449       -1.72172857391998       -1.35333418647466
H            4.77881148040465       -1.23673312028060       -0.44100543912363
H            4.77819379028413        0.32182389929283       -1.26351003764624
H            4.58077401379938       -0.83527610418647       -3.45794865251188
H            4.58136125900964       -2.39528649957315       -2.63483232612786
H            6.86088758274165       -0.36199148678607       -2.56225713538490
H            6.83822254742003       -1.85374512030284       -3.49976715875103
H            6.86150281029654       -1.92139899300105       -1.73918722535724
