 Entering Gaussian System
 *********************************************
 Gaussian 98:
 frequency output generated by the xtb code
 *********************************************
                         Standard orientation:
 --------------------------------------------------------------------
  Center     Atomic     Atomic              Coordinates (Angstroms)
  Number     Number      Type              X           Y           Z
 --------------------------------------------------------------------
    1          7             0       -3.710289   -0.047560    0.316143
    2          6             0       -2.247569   -0.146657    0.595548
    3          6             0       -1.387941    0.169136   -0.624956
    4          6             0        0.085389    0.088699   -0.350460
    5          6             0        0.778612   -1.117445   -0.507221
    6          6             0        2.141283   -1.196542   -0.233155
    7          6             0        2.830071   -0.071874    0.207200
    8          6             0        2.153967    1.131309    0.374931
    9          6             0        0.791377    1.210166    0.100975
   10          1             0       -4.275248   -0.268476    1.150105
   11          1             0       -3.991916   -0.699570   -0.430565
   12          1             0       -3.967826    0.902721    0.010232
   13          1             0       -2.013693   -1.153508    0.961899
   14          1             0       -1.987172    0.532663    1.416066
   15          1             0       -1.632988    1.168727   -0.999656
   16          1             0       -1.642848   -0.513454   -1.442594
   17          1             0        0.248667   -1.990883   -0.849557
   18          1             0        2.664588   -2.131145   -0.364546
   19          1             0        3.887191   -0.132470    0.417517
   20          1             0        2.687153    2.005537    0.715727
   21          1             0        0.271262    2.144769    0.231225
 --------------------------------------------------------------------
     1 basis functions        1 primitive gaussians
     1 alpha electrons        1 beta electrons

 Harmonic frequencies (cm**-1), IR intensities (km*mol⁻¹),
 Raman scattering activities (A**4/amu), Raman depolarization ratios,
 reduced masses (AMU), force constants (mDyne/A) and normal coordinates:
                      1                      2                      3
                        a                      a                      a 
 Frequencies --    57.9806               100.6447               117.5183
 Red. masses --     8.5873                 7.3795                10.1521
 Frc consts  --     0.0000                 0.0000                 0.0000
 IR Inten    --     3.7687                10.9835                12.5398
 Raman Activ --     0.0000                 0.0000                 0.0000
 Depolar     --     0.0000                 0.0000                 0.0000
 Atom AN      X      Y      Z        X      Y      Z        X      Y      Z
   1   7     0.00   0.28   0.07     0.01   0.45   0.13    -0.21   0.10  -0.36
   2   6     0.00   0.26   0.07    -0.00  -0.47  -0.13    -0.28  -0.03   0.09
   3   6    -0.00  -0.37  -0.10    -0.00  -0.14  -0.04     0.02  -0.08   0.28
   4   6    -0.00  -0.20  -0.05    -0.00  -0.08  -0.02     0.01  -0.09   0.33
   5   6     0.18  -0.07  -0.21     0.07  -0.04   0.04     0.05  -0.05   0.20
   6   6     0.18   0.09  -0.18     0.07   0.05   0.07     0.13   0.04  -0.14
   7   6     0.00   0.12   0.03    -0.00   0.11   0.03     0.17   0.09  -0.35
   8   6    -0.19  -0.01   0.20    -0.07   0.08  -0.04     0.12   0.03  -0.14
   9   6    -0.18  -0.17   0.15    -0.07  -0.02  -0.06     0.05  -0.06   0.20
  10   1     0.00   0.18   0.05     0.00   0.04   0.01    -0.13   0.04  -0.15
  11   1    -0.02  -0.00   0.10    -0.12   0.30  -0.08    -0.01   0.04  -0.12
  12   1     0.02   0.05  -0.09     0.13   0.21   0.22    -0.01   0.04  -0.11
  13   1    -0.02   0.11   0.15    -0.13  -0.22  -0.20    -0.13  -0.02   0.04
  14   1     0.03   0.17  -0.07     0.12  -0.30   0.06    -0.13  -0.02   0.05
  15   1    -0.00  -0.16  -0.17    -0.02  -0.02   0.06     0.03  -0.02   0.07
  16   1     0.00  -0.22   0.07     0.02   0.01  -0.06     0.03  -0.02   0.07
  17   1     0.09  -0.03  -0.11     0.04  -0.03   0.02     0.01  -0.03   0.10
  18   1     0.10   0.05  -0.09     0.04   0.02   0.04     0.04   0.02  -0.08
  19   1     0.00   0.07   0.02    -0.00   0.05   0.02     0.07   0.05  -0.19
  20   1    -0.10   0.00   0.11    -0.04   0.04  -0.02     0.04   0.02  -0.08
  21   1    -0.10  -0.08   0.08    -0.04  -0.01  -0.04     0.01  -0.03   0.10
                      4                      5                      6
                        a                      a                      a 
 Frequencies --   209.2543               262.7499               299.8965
 Red. masses --     1.7979                 9.4571                10.3063
 Frc consts  --     0.0000                 0.0000                 0.0000
 IR Inten    --     0.1796                 1.4910                13.6260
 Raman Activ --     0.0000                 0.0000                 0.0000
 Depolar     --     0.0000                 0.0000                 0.0000
 Atom AN      X      Y      Z        X      Y      Z        X      Y      Z
   1   7    -0.00   0.04   0.01     0.05  -0.04   0.16    -0.54  -0.07   0.28
   2   6    -0.00  -0.23  -0.07     0.15   0.10  -0.35    -0.32   0.07  -0.23
   3   6     0.00   0.05   0.01     0.07   0.10  -0.37    -0.03   0.04  -0.12
   4   6     0.00   0.05   0.02    -0.04  -0.03   0.12     0.05  -0.01   0.00
   5   6    -0.02   0.04   0.00    -0.11  -0.09   0.34     0.19   0.05  -0.06
   6   6    -0.03   0.01  -0.00    -0.05  -0.02   0.06     0.19   0.03   0.01
   7   6     0.00  -0.01  -0.01     0.03   0.09  -0.35     0.22  -0.03   0.14
   8   6     0.03   0.00   0.01    -0.05  -0.01   0.06     0.19  -0.04  -0.01
   9   6     0.02   0.03   0.02    -0.11  -0.08   0.34     0.18  -0.03  -0.08
  10   1     0.01   0.55   0.15     0.12  -0.04   0.11    -0.01  -0.05   0.16
  11   1    -0.16  -0.34   0.37    -0.05  -0.02   0.07    -0.23  -0.03   0.12
  12   1     0.15  -0.10  -0.49    -0.06  -0.02   0.08    -0.23  -0.03   0.12
  13   1    -0.03  -0.09  -0.08     0.09   0.03  -0.11    -0.08   0.02  -0.07
  14   1     0.03  -0.12   0.02     0.09   0.03  -0.12    -0.08   0.02  -0.07
  15   1    -0.01   0.04   0.08     0.06   0.03  -0.12     0.02   0.01  -0.05
  16   1     0.01   0.07  -0.05     0.06   0.03  -0.12     0.02   0.02  -0.05
  17   1    -0.01   0.02  -0.00    -0.05  -0.04   0.15     0.08   0.01  -0.04
  18   1    -0.01  -0.00  -0.00    -0.01  -0.01   0.02     0.04   0.00  -0.01
  19   1     0.00  -0.01  -0.01     0.04   0.06  -0.24     0.06  -0.02   0.07
  20   1     0.01  -0.00   0.00    -0.01  -0.00   0.02     0.04   0.00  -0.01
  21   1     0.01   0.01   0.01    -0.05  -0.04   0.15     0.07   0.01  -0.04
                      7                      8                      9
                        a                      a                      a 
 Frequencies --   329.8318               385.0738               477.9385
 Red. masses --     8.0452                 8.7146                 9.4752
 Frc consts  --     0.0000                 0.0000                 0.0000
 IR Inten    --     0.0610                 0.0148                 2.0783
 Raman Activ --     0.0000                 0.0000                 0.0000
 Depolar     --     0.0000                 0.0000                 0.0000
 Atom AN      X      Y      Z        X      Y      Z        X      Y      Z
   1   7     0.01  -0.01  -0.01    -0.00  -0.00  -0.00    -0.04   0.01  -0.02
   2   6     0.00   0.13   0.04     0.00   0.01   0.00    -0.07  -0.05   0.17
   3   6     0.00   0.44   0.12     0.00   0.01   0.00    -0.20  -0.00   0.01
   4   6    -0.00  -0.34  -0.09     0.00  -0.00  -0.00    -0.01   0.15  -0.58
   5   6     0.13  -0.29  -0.04     0.09   0.10  -0.40     0.05   0.08   0.03
   6   6     0.17   0.02   0.04    -0.08  -0.10   0.40     0.02   0.01   0.27
   7   6    -0.00   0.14   0.03    -0.00   0.00   0.00     0.27   0.07  -0.29
   8   6    -0.17   0.04  -0.02     0.08   0.11  -0.40     0.02  -0.14   0.23
   9   6    -0.14  -0.27  -0.10    -0.09  -0.11   0.39     0.05  -0.09  -0.02
  10   1     0.00   0.00  -0.00    -0.00  -0.00  -0.00    -0.07   0.01  -0.04
  11   1     0.02  -0.03   0.01     0.00   0.00  -0.00     0.02   0.01  -0.02
  12   1    -0.02  -0.02  -0.03    -0.00   0.00   0.00     0.02   0.01  -0.02
  13   1     0.03   0.02  -0.05     0.00   0.00   0.00    -0.03  -0.01   0.05
  14   1    -0.03  -0.00   0.05    -0.00   0.00  -0.00    -0.03  -0.01   0.05
  15   1     0.15   0.24   0.24    -0.00   0.00   0.00    -0.12  -0.01   0.03
  16   1    -0.15   0.33  -0.09     0.00   0.00   0.00    -0.12  -0.01   0.02
  17   1     0.09  -0.12  -0.01     0.06   0.07  -0.27     0.02  -0.03   0.14
  18   1     0.10   0.03   0.03    -0.05  -0.06   0.25    -0.05  -0.05   0.23
  19   1    -0.00   0.08   0.02    -0.00   0.00   0.00     0.09   0.03  -0.13
  20   1    -0.10   0.05  -0.01     0.05   0.07  -0.25    -0.05  -0.06   0.23
  21   1    -0.09  -0.10  -0.05    -0.06  -0.07   0.27     0.02  -0.04   0.14
                     10                     11                     12
                        a                      a                      a 
 Frequencies --   563.3032               590.8893               670.3432
 Red. masses --    10.5954                11.1546                 9.2748
 Frc consts  --     0.0000                 0.0000                 0.0000
 IR Inten    --     3.3500                 0.0633                 4.6826
 Raman Activ --     0.0000                 0.0000                 0.0000
 Depolar     --     0.0000                 0.0000                 0.0000
 Atom AN      X      Y      Z        X      Y      Z        X      Y      Z
   1   7     0.18   0.01  -0.03    -0.00   0.00   0.00    -0.05   0.00   0.00
   2   6     0.06  -0.01   0.02     0.00   0.02   0.00    -0.01  -0.01   0.03
   3   6    -0.39   0.05  -0.17     0.00   0.06   0.02     0.03  -0.00   0.00
   4   6    -0.40  -0.03   0.11     0.00   0.16   0.04     0.15   0.11  -0.42
   5   6    -0.02   0.20   0.16     0.33   0.25   0.13    -0.04  -0.11   0.27
   6   6     0.08   0.25  -0.06     0.35  -0.34  -0.01     0.09   0.04  -0.36
   7   6     0.36  -0.07   0.24    -0.00  -0.18  -0.05    -0.11  -0.07   0.26
   8   6     0.07  -0.19  -0.18    -0.35  -0.30  -0.16     0.09   0.14  -0.33
   9   6    -0.03  -0.25   0.04    -0.32   0.29   0.01    -0.04  -0.03   0.29
  10   1    -0.01   0.01  -0.05     0.00  -0.00  -0.00    -0.02   0.00  -0.00
  11   1     0.09   0.01  -0.03     0.00  -0.00   0.00    -0.01   0.00  -0.00
  12   1     0.09   0.01  -0.03    -0.00  -0.00  -0.00    -0.01   0.00  -0.00
  13   1     0.06   0.00  -0.01     0.00   0.00  -0.01    -0.01  -0.00   0.01
  14   1     0.06   0.00  -0.01    -0.00  -0.00   0.01    -0.01  -0.00   0.01
  15   1    -0.12   0.02  -0.04     0.01   0.03   0.03    -0.02  -0.00   0.01
  16   1    -0.12   0.01  -0.04    -0.01   0.04  -0.01    -0.02   0.00   0.01
  17   1     0.08   0.02  -0.01     0.04   0.10   0.04    -0.07  -0.08   0.28
  18   1    -0.04   0.05  -0.14     0.05  -0.12  -0.02     0.02  -0.01   0.01
  19   1     0.10  -0.02   0.07     0.00   0.10   0.03    -0.07  -0.07   0.25
  20   1    -0.04   0.02  -0.15    -0.05  -0.12  -0.04     0.02   0.00   0.01
  21   1     0.08  -0.01  -0.02    -0.04   0.11   0.02    -0.07  -0.07   0.28
                     13                     14                     15
                        a                      a                      a 
 Frequencies --   750.3619               788.9718               820.8111
 Red. masses --     4.5760                 2.0530                 9.7153
 Frc consts  --     0.0000                 0.0000                 0.0000
 IR Inten    --    30.6551                27.0114                 5.2338
 Raman Activ --     0.0000                 0.0000                 0.0000
 Depolar     --     0.0000                 0.0000                 0.0000
 Atom AN      X      Y      Z        X      Y      Z        X      Y      Z
   1   7     0.06   0.00  -0.01    -0.00  -0.04  -0.01    -0.04   0.02  -0.08
   2   6     0.02   0.03  -0.10    -0.00  -0.20  -0.05     0.05   0.02  -0.07
   3   6     0.03  -0.02   0.06    -0.01  -0.20  -0.05     0.45  -0.07   0.26
   4   6    -0.11  -0.08   0.33     0.00   0.01   0.00     0.08   0.04  -0.17
   5   6     0.01   0.12  -0.20    -0.00   0.05  -0.00    -0.15   0.14   0.05
   6   6    -0.03   0.11  -0.07    -0.02   0.01  -0.01    -0.21   0.33   0.05
   7   6     0.11   0.04  -0.14    -0.00  -0.01  -0.00     0.23  -0.03   0.09
   8   6    -0.03  -0.06  -0.12     0.03   0.01   0.01    -0.22  -0.31  -0.11
   9   6     0.01  -0.00  -0.23     0.01   0.04   0.03    -0.15  -0.15  -0.02
  10   1     0.06  -0.01   0.02    -0.00   0.06   0.02     0.18  -0.03   0.09
  11   1    -0.01  -0.00   0.01    -0.20   0.12  -0.04    -0.14  -0.01   0.04
  12   1    -0.01  -0.00   0.01     0.21   0.08   0.09    -0.13  -0.00   0.05
  13   1     0.01   0.01  -0.03     0.07   0.14   0.47    -0.05   0.00   0.01
  14   1     0.01   0.01  -0.03    -0.06   0.36  -0.34    -0.05   0.00   0.00
  15   1     0.06   0.00  -0.00     0.02   0.10   0.36     0.14  -0.02   0.07
  16   1     0.06  -0.00  -0.00    -0.02   0.26  -0.27     0.14  -0.02   0.06
  17   1    -0.07  -0.07   0.31    -0.02   0.02   0.02    -0.01   0.04  -0.03
  18   1    -0.12  -0.08   0.35    -0.02  -0.00   0.01    -0.14   0.06  -0.08
  19   1    -0.06  -0.10   0.39    -0.00  -0.01  -0.00     0.08   0.02  -0.08
  20   1    -0.12  -0.10   0.34     0.02   0.00  -0.01    -0.14  -0.01  -0.10
  21   1    -0.07  -0.09   0.30     0.02   0.03  -0.01    -0.01  -0.02  -0.05
                     16                     17                     18
                        a                      a                      a 
 Frequencies --   869.2548               871.8644               897.1609
 Red. masses --     3.1283                 3.0295                 3.6225
 Frc consts  --     0.0000                 0.0000                 0.0000
 IR Inten    --     7.5636                10.7966                 2.1917
 Raman Activ --     0.0000                 0.0000                 0.0000
 Depolar     --     0.0000                 0.0000                 0.0000
 Atom AN      X      Y      Z        X      Y      Z        X      Y      Z
   1   7    -0.00   0.13   0.03     0.00  -0.15  -0.04    -0.10  -0.01   0.04
   2   6     0.00   0.03   0.01    -0.00  -0.02  -0.01     0.05  -0.02   0.07
   3   6     0.00  -0.18  -0.05    -0.00   0.23   0.06     0.08   0.02  -0.07
   4   6     0.00  -0.01  -0.00    -0.00   0.01   0.00     0.03   0.01  -0.02
   5   6     0.04   0.09  -0.21     0.05  -0.00  -0.19    -0.07  -0.07   0.22
   6   6     0.00   0.04  -0.10     0.04   0.00  -0.09    -0.00   0.06  -0.09
   7   6     0.00  -0.01  -0.00    -0.00   0.02   0.00     0.08   0.06  -0.23
   8   6    -0.00  -0.01   0.11    -0.04  -0.04   0.08    -0.00  -0.01  -0.11
   9   6    -0.04  -0.02   0.23    -0.05  -0.09   0.17    -0.06  -0.05   0.22
  10   1    -0.00  -0.10  -0.03     0.00   0.13   0.03    -0.13   0.02  -0.06
  11   1     0.28  -0.12   0.04    -0.34   0.14  -0.04     0.04   0.01  -0.02
  12   1    -0.29  -0.08  -0.09     0.34   0.09   0.11     0.04   0.00  -0.03
  13   1    -0.19  -0.04  -0.00     0.22   0.04  -0.02     0.02  -0.00   0.01
  14   1     0.19  -0.04  -0.02    -0.22   0.03   0.04     0.02  -0.00   0.01
  15   1     0.04   0.03   0.17    -0.07  -0.05  -0.23     0.02   0.01  -0.02
  16   1    -0.04   0.11  -0.13     0.07  -0.16   0.18     0.02   0.00  -0.02
  17   1    -0.10  -0.09   0.40    -0.06  -0.10   0.32     0.10   0.11  -0.44
  18   1    -0.07  -0.06   0.23    -0.02  -0.05   0.20    -0.07  -0.06   0.25
  19   1    -0.00  -0.02  -0.00    -0.00   0.02   0.01    -0.07  -0.10   0.38
  20   1     0.07   0.06  -0.23     0.02   0.05  -0.19    -0.07  -0.07   0.25
  21   1     0.10   0.12  -0.39     0.06   0.06  -0.33     0.09   0.12  -0.44
                     19                     20                     21
                        a                      a                      a 
 Frequencies --   903.9686               925.7028               937.1136
 Red. masses --     6.0242                 4.1884                 3.4554
 Frc consts  --     0.0000                 0.0000                 0.0000
 IR Inten    --    48.1370                 0.0051                 0.0077
 Raman Activ --     0.0000                 0.0000                 0.0000
 Depolar     --     0.0000                 0.0000                 0.0000
 Atom AN      X      Y      Z        X      Y      Z        X      Y      Z
   1   7    -0.34  -0.05   0.20    -0.00  -0.00  -0.00    -0.01   0.00  -0.01
   2   6     0.15  -0.06   0.20     0.00   0.00   0.00     0.02  -0.00   0.01
   3   6     0.24   0.07  -0.26     0.00   0.01   0.00     0.01  -0.00   0.00
   4   6     0.08  -0.02   0.06     0.00   0.00  -0.00     0.02   0.02  -0.07
   5   6    -0.03   0.01  -0.08     0.04   0.05  -0.19    -0.00   0.00   0.00
   6   6    -0.08   0.11   0.03    -0.07  -0.08   0.31    -0.04  -0.05   0.20
   7   6     0.07  -0.02   0.07     0.00   0.00  -0.00     0.07   0.09  -0.34
   8   6    -0.08  -0.11  -0.02     0.06   0.08  -0.31    -0.04  -0.05   0.20
   9   6    -0.03   0.03  -0.08    -0.04  -0.05   0.19    -0.00  -0.00   0.00
  10   1    -0.54   0.07  -0.23    -0.00   0.00   0.00     0.01  -0.00   0.01
  11   1     0.20   0.04  -0.10    -0.00  -0.00   0.00    -0.01  -0.00   0.00
  12   1     0.20   0.01  -0.11     0.00  -0.00  -0.00    -0.01  -0.00   0.00
  13   1     0.10  -0.01   0.03    -0.00  -0.00   0.00    -0.00  -0.00   0.00
  14   1     0.10  -0.01   0.03     0.00   0.00  -0.00    -0.00  -0.00   0.00
  15   1     0.12   0.02  -0.09    -0.01  -0.00  -0.00    -0.01  -0.00   0.00
  16   1     0.12   0.02  -0.08     0.01  -0.00   0.00    -0.01  -0.00   0.00
  17   1    -0.04  -0.03   0.13    -0.06  -0.07   0.27    -0.02  -0.02   0.08
  18   1    -0.03   0.04  -0.06     0.11   0.13  -0.50     0.08   0.10  -0.39
  19   1     0.04   0.02  -0.07    -0.00  -0.00   0.00    -0.13  -0.16   0.61
  20   1    -0.03   0.00  -0.07    -0.11  -0.13   0.50     0.08   0.10  -0.40
  21   1    -0.04  -0.03   0.13     0.06   0.07  -0.27    -0.02  -0.02   0.08
                     22                     23                     24
                        a                      a                      a 
 Frequencies --   980.6417               987.6047              1038.9616
 Red. masses --    10.9453                10.1597                 4.4909
 Frc consts  --     0.0000                 0.0000                 0.0000
 IR Inten    --     0.4155                25.5463                 5.0256
 Raman Activ --     0.0000                 0.0000                 0.0000
 Depolar     --     0.0000                 0.0000                 0.0000
 Atom AN      X      Y      Z        X      Y      Z        X      Y      Z
   1   7    -0.22   0.03  -0.09    -0.38   0.07  -0.25     0.00   0.14   0.04
   2   6     0.31  -0.02   0.07     0.62  -0.04   0.11    -0.00  -0.25  -0.06
   3   6     0.07  -0.01   0.03    -0.16  -0.01   0.03     0.00   0.33   0.09
   4   6    -0.13   0.00  -0.02    -0.01  -0.02   0.07     0.00   0.15   0.04
   5   6     0.18   0.46   0.16    -0.08  -0.22  -0.09    -0.04  -0.15  -0.04
   6   6     0.03  -0.14  -0.03     0.02   0.01   0.00     0.06  -0.08  -0.02
   7   6    -0.35   0.02  -0.07     0.16  -0.01   0.04     0.00   0.09   0.02
   8   6     0.04   0.13   0.04     0.02  -0.01  -0.00    -0.06  -0.08  -0.03
   9   6     0.17  -0.48  -0.09    -0.07   0.23   0.03     0.03  -0.15  -0.04
  10   1    -0.01  -0.00   0.01     0.09  -0.01   0.05     0.00  -0.06  -0.02
  11   1    -0.09   0.00  -0.00    -0.23  -0.00   0.01     0.17  -0.06   0.03
  12   1    -0.09   0.00  -0.00    -0.23   0.00   0.01    -0.18  -0.03  -0.05
  13   1     0.06  -0.01   0.02     0.12  -0.02   0.02    -0.08   0.01   0.25
  14   1     0.06  -0.00   0.02     0.11   0.00   0.04     0.09   0.13  -0.20
  15   1     0.02   0.00   0.02    -0.13  -0.01   0.05    -0.45  -0.06  -0.07
  16   1     0.02  -0.01   0.02    -0.13  -0.02   0.05     0.45  -0.09   0.03
  17   1     0.00   0.16   0.04    -0.00  -0.08  -0.00    -0.02  -0.03  -0.02
  18   1    -0.06  -0.07  -0.02     0.04   0.02   0.02     0.11   0.02   0.03
  19   1    -0.10   0.01  -0.02     0.05   0.00  -0.00     0.00   0.13   0.03
  20   1    -0.06   0.07   0.01     0.04  -0.03   0.01    -0.11   0.04  -0.02
  21   1     0.00  -0.16  -0.05    -0.00   0.07   0.04     0.02  -0.04   0.00
                     25                     26                     27
                        a                      a                      a 
 Frequencies --  1072.4125              1095.0132              1114.7808
 Red. masses --     6.8993                 8.7806                 3.9801
 Frc consts  --     0.0000                 0.0000                 0.0000
 IR Inten    --     0.0357                24.9585                 4.7136
 Raman Activ --     0.0000                 0.0000                 0.0000
 Depolar     --     0.0000                 0.0000                 0.0000
 Atom AN      X      Y      Z        X      Y      Z        X      Y      Z
   1   7    -0.00   0.00  -0.01    -0.08  -0.04   0.17     0.00   0.05   0.01
   2   6     0.01  -0.00   0.01     0.16   0.14  -0.53    -0.00  -0.09  -0.03
   3   6    -0.06   0.01  -0.02    -0.20  -0.14   0.52     0.00   0.14   0.04
   4   6     0.03  -0.00   0.01     0.01   0.02  -0.09    -0.00  -0.11  -0.03
   5   6     0.16  -0.02   0.03    -0.00  -0.01   0.01     0.23   0.08   0.07
   6   6    -0.06   0.36   0.08     0.01  -0.01   0.01    -0.11   0.14   0.01
   7   6    -0.43   0.02  -0.09    -0.01   0.00  -0.00     0.00  -0.18  -0.05
   8   6    -0.06  -0.35  -0.11     0.01   0.00   0.01     0.11   0.13   0.06
   9   6     0.16   0.01   0.03    -0.00  -0.00   0.01    -0.23   0.11  -0.02
  10   1     0.01  -0.00   0.01    -0.25   0.03  -0.11     0.00  -0.02  -0.00
  11   1    -0.01  -0.00   0.00     0.15   0.03  -0.06     0.05  -0.02   0.01
  12   1    -0.01   0.00   0.00     0.15  -0.00  -0.07    -0.05  -0.01  -0.02
  13   1     0.00  -0.00   0.00     0.16   0.05  -0.20     0.02   0.01   0.07
  14   1     0.00   0.00   0.00     0.16   0.06  -0.20    -0.01   0.04  -0.06
  15   1    -0.02   0.00   0.00    -0.01  -0.03   0.11    -0.11  -0.01  -0.04
  16   1    -0.02  -0.00   0.00    -0.01  -0.03   0.12     0.11  -0.03   0.03
  17   1     0.28  -0.15   0.03     0.02  -0.01  -0.02     0.39  -0.18   0.04
  18   1     0.23   0.23   0.11     0.01   0.00  -0.01    -0.23  -0.06  -0.07
  19   1    -0.13   0.01  -0.03    -0.00   0.00  -0.01    -0.00  -0.42  -0.11
  20   1     0.23  -0.26  -0.02     0.01   0.00  -0.01     0.23  -0.09   0.03
  21   1     0.28   0.12   0.10     0.02   0.01  -0.01    -0.39  -0.13  -0.12
                     28                     29                     30
                        a                      a                      a 
 Frequencies --  1175.7701              1189.0711              1199.6666
 Red. masses --     1.3463                 1.7987                 4.4036
 Frc consts  --     0.0000                 0.0000                 0.0000
 IR Inten    --     0.0024                 0.6571                 8.8370
 Raman Activ --     0.0000                 0.0000                 0.0000
 Depolar     --     0.0000                 0.0000                 0.0000
 Atom AN      X      Y      Z        X      Y      Z        X      Y      Z
   1   7    -0.00  -0.01  -0.00     0.00  -0.00   0.00    -0.00  -0.27  -0.07
   2   6     0.00   0.02   0.01     0.00   0.00  -0.01     0.01   0.40   0.11
   3   6    -0.00  -0.01  -0.00    -0.03   0.00  -0.00    -0.00  -0.10  -0.03
   4   6     0.00   0.08   0.02     0.08  -0.01   0.02    -0.00   0.12   0.03
   5   6     0.08  -0.01   0.02    -0.09   0.08   0.00     0.05  -0.06   0.00
   6   6     0.03   0.02   0.01     0.08   0.10   0.04    -0.05  -0.03  -0.02
   7   6    -0.00  -0.08  -0.02     0.03  -0.00   0.01     0.00   0.04   0.01
   8   6    -0.02   0.02   0.00     0.08  -0.10  -0.01     0.05  -0.03   0.00
   9   6    -0.08  -0.00  -0.02    -0.09  -0.07  -0.04    -0.05  -0.05  -0.03
  10   1    -0.00   0.00   0.00    -0.01   0.00  -0.00    -0.00   0.09   0.02
  11   1    -0.01   0.00  -0.00     0.00   0.00  -0.00    -0.23   0.08  -0.06
  12   1     0.01   0.00   0.00     0.00  -0.00  -0.00     0.23   0.03   0.09
  13   1    -0.01  -0.00  -0.01     0.00   0.00   0.00    -0.36  -0.04  -0.13
  14   1     0.01  -0.01   0.01     0.00  -0.00  -0.00     0.35  -0.11   0.09
  15   1    -0.01   0.00   0.01    -0.04  -0.01  -0.01    -0.30  -0.01   0.20
  16   1     0.01   0.01  -0.01    -0.04   0.01  -0.00     0.30   0.08  -0.18
  17   1    -0.12   0.09  -0.00    -0.43   0.28  -0.02     0.09  -0.06  -0.00
  18   1     0.39   0.20   0.14     0.37   0.21   0.14    -0.01  -0.01  -0.00
  19   1    -0.00  -0.68  -0.18     0.01   0.00   0.00     0.00   0.02   0.00
  20   1    -0.39   0.25  -0.02     0.38  -0.25   0.02     0.01  -0.01  -0.00
  21   1     0.12   0.07   0.04    -0.43  -0.22  -0.15    -0.09  -0.06  -0.03
                     31                     32                     33
                        a                      a                      a 
 Frequencies --  1223.8875              1245.3773              1272.8267
 Red. masses --     8.1998                 2.9235                 8.4493
 Frc consts  --     0.0000                 0.0000                 0.0000
 IR Inten    --     2.2188                10.4958                 0.7591
 Raman Activ --     0.0000                 0.0000                 0.0000
 Depolar     --     0.0000                 0.0000                 0.0000
 Atom AN      X      Y      Z        X      Y      Z        X      Y      Z
   1   7    -0.02   0.00   0.00     0.00   0.13   0.04     0.00  -0.00  -0.00
   2   6     0.01  -0.01   0.03     0.00   0.09   0.02     0.00   0.03   0.01
   3   6     0.27  -0.03   0.09    -0.00  -0.24  -0.07    -0.00  -0.03  -0.01
   4   6    -0.61   0.05  -0.16     0.00   0.19   0.05     0.00  -0.14  -0.04
   5   6    -0.18   0.00  -0.04     0.05  -0.06  -0.00    -0.38   0.20  -0.03
   6   6     0.14  -0.17  -0.01    -0.09  -0.06  -0.03     0.22   0.07   0.07
   7   6     0.07  -0.00   0.01     0.00   0.07   0.02    -0.00  -0.40  -0.10
   8   6     0.14   0.15   0.07     0.09  -0.07   0.00    -0.22   0.09  -0.02
   9   6    -0.18   0.02  -0.03    -0.05  -0.06  -0.03     0.38   0.16   0.12
  10   1    -0.00  -0.00   0.00    -0.00  -0.02  -0.01    -0.00   0.01   0.00
  11   1     0.00  -0.00   0.00     0.09  -0.02   0.03    -0.00   0.00  -0.00
  12   1    -0.00   0.00   0.00    -0.09  -0.00  -0.04     0.00   0.00   0.00
  13   1     0.01   0.00   0.01     0.48   0.05  -0.22     0.02   0.00  -0.02
  14   1     0.01  -0.00   0.01    -0.48  -0.05   0.22    -0.02  -0.01   0.02
  15   1     0.25   0.02  -0.01    -0.22  -0.01   0.25    -0.06  -0.01   0.03
  16   1     0.25  -0.01  -0.02     0.22   0.11  -0.22     0.05   0.01  -0.03
  17   1     0.14  -0.13  -0.00     0.08  -0.06   0.00     0.25  -0.17   0.01
  18   1     0.26   0.06   0.07     0.05   0.02   0.02     0.20   0.09   0.07
  19   1     0.02  -0.00   0.00     0.00   0.05   0.01     0.00   0.14   0.04
  20   1     0.26  -0.09   0.03    -0.05   0.03  -0.00    -0.20   0.12  -0.02
  21   1     0.14   0.11   0.06    -0.08  -0.05  -0.03    -0.25  -0.14  -0.09
                     34                     35                     36
                        a                      a                      a 
 Frequencies --  1291.4061              1291.4551              1335.0491
 Red. masses --     3.9347                 5.5047                 4.1423
 Frc consts  --     0.0000                 0.0000                 0.0000
 IR Inten    --     3.9482                 0.2998                 7.1082
 Raman Activ --     0.0000                 0.0000                 0.0000
 Depolar     --     0.0000                 0.0000                 0.0000
 Atom AN      X      Y      Z        X      Y      Z        X      Y      Z
   1   7    -0.07   0.04  -0.15     0.00   0.00   0.01     0.07  -0.02   0.08
   2   6    -0.21  -0.06   0.25     0.02   0.07   0.00     0.29   0.02  -0.09
   3   6    -0.30  -0.02   0.09     0.02   0.00  -0.01    -0.40  -0.01   0.06
   4   6     0.12  -0.02  -0.05    -0.01  -0.39  -0.10     0.09   0.01  -0.04
   5   6     0.02  -0.02   0.00    -0.08   0.04  -0.00     0.02  -0.02   0.00
   6   6     0.00   0.04   0.02     0.28   0.15   0.10    -0.01   0.02   0.01
   7   6    -0.01  -0.00  -0.00    -0.00  -0.06  -0.02    -0.01   0.00  -0.00
   8   6    -0.04  -0.02  -0.01    -0.28   0.19  -0.01    -0.00  -0.02  -0.00
   9   6     0.04   0.02   0.02     0.08   0.03   0.02     0.02   0.01   0.01
  10   1     0.17  -0.02   0.08    -0.01   0.01  -0.00    -0.06   0.01  -0.03
  11   1    -0.01  -0.05   0.01     0.00   0.01  -0.00    -0.04   0.06  -0.02
  12   1    -0.00   0.03   0.04    -0.00  -0.00  -0.00    -0.04  -0.04  -0.05
  13   1     0.41   0.02  -0.14     0.05   0.01  -0.06    -0.39  -0.04   0.16
  14   1     0.40   0.04  -0.12    -0.11  -0.03   0.08    -0.39  -0.04   0.16
  15   1     0.35   0.02  -0.16    -0.28  -0.03   0.10     0.39   0.05  -0.14
  16   1     0.39   0.06  -0.17     0.23   0.01  -0.08     0.39   0.02  -0.15
  17   1    -0.06   0.04  -0.01    -0.28   0.17  -0.02    -0.02   0.02  -0.01
  18   1    -0.05  -0.01  -0.02    -0.23  -0.11  -0.08    -0.02  -0.00  -0.01
  19   1    -0.00  -0.01  -0.01    -0.00  -0.22  -0.06    -0.00   0.00  -0.01
  20   1    -0.02   0.00  -0.01     0.23  -0.14   0.01    -0.02   0.01  -0.01
  21   1    -0.02  -0.01  -0.01     0.29   0.14   0.10    -0.03  -0.01  -0.02
                     37                     38                     39
                        a                      a                      a 
 Frequencies --  1391.9157              1419.3705              1437.3151
 Red. masses --     2.9752                 8.5163                 1.6254
 Frc consts  --     0.0000                 0.0000                 0.0000
 IR Inten    --   203.0600                 0.3021                86.9332
 Raman Activ --     0.0000                 0.0000                 0.0000
 Depolar     --     0.0000                 0.0000                 0.0000
 Atom AN      X      Y      Z        X      Y      Z        X      Y      Z
   1   7    -0.38   0.01  -0.03    -0.00  -0.00  -0.00    -0.00  -0.21  -0.05
   2   6     0.06   0.02  -0.06     0.00   0.01   0.00    -0.00  -0.03  -0.01
   3   6    -0.01   0.00  -0.01     0.00   0.07   0.02     0.00   0.00  -0.00
   4   6     0.00  -0.00   0.01    -0.00  -0.41  -0.11     0.00   0.01   0.00
   5   6    -0.01   0.01   0.00     0.24   0.12   0.08    -0.00  -0.00  -0.00
   6   6     0.00  -0.00  -0.00    -0.31   0.09  -0.04     0.00  -0.00  -0.00
   7   6     0.00  -0.00   0.00    -0.00  -0.34  -0.09     0.00   0.01   0.00
   8   6     0.00   0.00   0.00     0.31   0.05   0.08    -0.00  -0.00  -0.00
   9   6    -0.00  -0.00  -0.00    -0.24   0.15  -0.01     0.00  -0.00   0.00
  10   1     0.45  -0.09   0.30     0.00   0.01   0.00     0.02   0.71   0.20
  11   1     0.49  -0.10  -0.10     0.01   0.00  -0.01     0.31   0.17  -0.30
  12   1     0.49   0.13  -0.03    -0.00   0.00   0.01    -0.32  -0.01   0.30
  13   1    -0.09   0.01   0.09     0.01   0.00  -0.01     0.03  -0.00   0.01
  14   1    -0.09  -0.06   0.07    -0.01  -0.00   0.01    -0.03   0.01  -0.01
  15   1    -0.01   0.00  -0.00    -0.12  -0.01   0.01     0.01   0.00  -0.00
  16   1    -0.01  -0.00  -0.00     0.12  -0.01  -0.01    -0.01  -0.00   0.01
  17   1     0.00  -0.00   0.00    -0.10   0.14   0.01     0.00  -0.00  -0.00
  18   1     0.00   0.00   0.00     0.14   0.15   0.07    -0.00  -0.00  -0.00
  19   1     0.00  -0.00   0.00     0.00   0.35   0.09    -0.00  -0.01  -0.00
  20   1     0.00  -0.00   0.00    -0.14   0.16   0.01     0.00  -0.00  -0.00
  21   1     0.00   0.00   0.00     0.10   0.13   0.06    -0.00  -0.00  -0.00
                     40                     41                     42
                        a                      a                      a 
 Frequencies --  1441.4137              1459.1161              1482.7169
 Red. masses --     1.6550                 8.8892                 1.9175
 Frc consts  --     0.0000                 0.0000                 0.0000
 IR Inten    --    74.6588                 2.6118                10.3293
 Raman Activ --     0.0000                 0.0000                 0.0000
 Depolar     --     0.0000                 0.0000                 0.0000
 Atom AN      X      Y      Z        X      Y      Z        X      Y      Z
   1   7    -0.01  -0.05   0.20     0.01   0.00  -0.01    -0.01  -0.00   0.01
   2   6    -0.04  -0.01   0.06    -0.00  -0.01   0.03     0.09  -0.07   0.25
   3   6     0.02   0.01  -0.03    -0.12   0.01  -0.03     0.02   0.01  -0.03
   4   6     0.00  -0.00   0.00     0.41  -0.03   0.09    -0.04   0.00  -0.01
   5   6    -0.00   0.00   0.00    -0.16   0.25   0.03     0.01  -0.02  -0.00
   6   6    -0.00  -0.00  -0.00    -0.26  -0.24  -0.12     0.03   0.02   0.01
   7   6     0.00  -0.00   0.00     0.26  -0.01   0.05    -0.02   0.00  -0.00
   8   6    -0.00   0.00  -0.00    -0.25   0.27   0.02     0.03  -0.03  -0.00
   9   6    -0.00  -0.00  -0.00    -0.16  -0.23  -0.10     0.01   0.02   0.01
  10   1     0.21  -0.07   0.14     0.00   0.00  -0.00     0.03  -0.01   0.02
  11   1    -0.10   0.51  -0.39    -0.00  -0.01   0.01     0.06  -0.03   0.01
  12   1    -0.09  -0.23  -0.62    -0.00   0.00   0.01     0.06   0.02   0.02
  13   1     0.05  -0.01  -0.03    -0.02  -0.03  -0.06    -0.23  -0.27  -0.57
  14   1     0.05   0.02  -0.03    -0.02   0.05  -0.04    -0.22   0.52  -0.35
  15   1    -0.01   0.02   0.04    -0.03  -0.00  -0.01     0.02   0.03   0.06
  16   1    -0.00  -0.03   0.03    -0.03   0.01  -0.01     0.02  -0.05   0.04
  17   1     0.00  -0.00   0.00     0.24  -0.10   0.02    -0.03   0.01  -0.00
  18   1     0.00   0.00   0.00     0.23   0.09   0.07    -0.02  -0.01  -0.01
  19   1     0.00  -0.00   0.00     0.08  -0.00   0.01    -0.01   0.00  -0.00
  20   1     0.00  -0.00   0.00     0.23  -0.11   0.02    -0.02   0.01  -0.00
  21   1     0.00   0.00   0.00     0.24   0.07   0.07    -0.03  -0.01  -0.01
                     43                     44                     45
                        a                      a                      a 
 Frequencies --  1502.7034              1559.3994              1566.6552
 Red. masses --     1.9962                11.3893                11.4070
 Frc consts  --     0.0000                 0.0000                 0.0000
 IR Inten    --     7.4729                 1.2059                 0.1685
 Raman Activ --     0.0000                 0.0000                 0.0000
 Depolar     --     0.0000                 0.0000                 0.0000
 Atom AN      X      Y      Z        X      Y      Z        X      Y      Z
   1   7     0.00   0.00  -0.02     0.00  -0.00  -0.00     0.00   0.00  -0.00
   2   6    -0.04   0.01  -0.03    -0.00  -0.00  -0.00    -0.01  -0.00   0.01
   3   6    -0.11   0.07  -0.26    -0.00  -0.04  -0.01    -0.04   0.01  -0.02
   4   6     0.03   0.00  -0.00     0.00   0.45   0.12     0.29  -0.02   0.06
   5   6     0.01  -0.01   0.00     0.13  -0.27  -0.04    -0.43   0.15  -0.05
   6   6    -0.01   0.00  -0.00     0.13   0.29   0.10     0.42   0.09   0.11
   7   6     0.01  -0.00   0.00    -0.00  -0.54  -0.14    -0.21   0.02  -0.04
   8   6    -0.01   0.00  -0.00    -0.12   0.30   0.05     0.42  -0.15   0.05
   9   6     0.01   0.00   0.00    -0.14  -0.26  -0.10    -0.43  -0.10  -0.12
  10   1    -0.01   0.00  -0.01     0.00   0.00   0.00     0.00   0.00  -0.00
  11   1     0.00  -0.03   0.03     0.00   0.00  -0.00    -0.00  -0.00   0.00
  12   1     0.01   0.01   0.04    -0.00  -0.00   0.00    -0.00  -0.00   0.00
  13   1     0.05   0.03   0.04     0.00  -0.00   0.00     0.01   0.00   0.00
  14   1     0.05  -0.05   0.02     0.00  -0.00  -0.00     0.01  -0.01   0.00
  15   1     0.18   0.27   0.59     0.06   0.01  -0.00    -0.01   0.00   0.01
  16   1     0.18  -0.52   0.38    -0.06   0.01   0.01    -0.01  -0.01   0.01
  17   1    -0.02   0.01  -0.00    -0.08   0.01  -0.02     0.09  -0.08  -0.00
  18   1     0.00   0.00   0.00    -0.07   0.02  -0.01    -0.07  -0.07  -0.03
  19   1     0.00  -0.00   0.00     0.00   0.14   0.04    -0.06   0.00  -0.01
  20   1     0.00  -0.00  -0.00     0.07   0.02   0.02    -0.08   0.08   0.00
  21   1    -0.02  -0.01  -0.01     0.09  -0.00   0.02     0.09   0.07   0.04
                     46                     47                     48
                        a                      a                      a 
 Frequencies --  2943.1327              2963.1096              2971.6624
 Red. masses --     1.9286                 2.0113                 1.4826
 Frc consts  --     0.0000                 0.0000                 0.0000
 IR Inten    --     8.5210                 3.1103                18.1766
 Raman Activ --     0.0000                 0.0000                 0.0000
 Depolar     --     0.0000                 0.0000                 0.0000
 Atom AN      X      Y      Z        X      Y      Z        X      Y      Z
   1   7    -0.00  -0.00  -0.00     0.00   0.00   0.00     0.00   0.00  -0.00
   2   6     0.00   0.10   0.03    -0.00  -0.27  -0.07    -0.03   0.02  -0.07
   3   6    -0.00  -0.26  -0.07     0.00  -0.11  -0.03     0.07  -0.04   0.17
   4   6     0.00  -0.01  -0.00     0.00  -0.00  -0.00     0.01  -0.00   0.00
   5   6     0.00   0.00   0.00     0.00   0.00   0.00    -0.00  -0.00  -0.00
   6   6    -0.00  -0.00  -0.00    -0.00  -0.00  -0.00    -0.00   0.00  -0.00
   7   6    -0.00   0.00   0.00    -0.00   0.00   0.00    -0.00   0.00  -0.00
   8   6     0.00  -0.00  -0.00     0.00  -0.00  -0.00    -0.00  -0.00  -0.00
   9   6    -0.00   0.00  -0.00    -0.00   0.00   0.00    -0.00   0.00  -0.00
  10   1    -0.00  -0.00  -0.00    -0.00   0.00   0.00    -0.00  -0.00   0.00
  11   1     0.00   0.01   0.01    -0.00  -0.01  -0.01    -0.01  -0.01  -0.01
  12   1    -0.00   0.01  -0.00     0.00  -0.01   0.01    -0.00   0.01  -0.00
  13   1     0.06  -0.24   0.09    -0.14   0.57  -0.21     0.06  -0.27   0.08
  14   1    -0.06  -0.15  -0.19     0.15   0.38   0.47     0.06   0.18   0.20
  15   1    -0.14   0.58  -0.23    -0.06   0.24  -0.09    -0.12   0.58  -0.18
  16   1     0.14   0.37   0.47     0.06   0.15   0.18    -0.13  -0.43  -0.46
  17   1    -0.01  -0.01  -0.00    -0.00  -0.00  -0.00     0.00   0.00   0.00
  18   1     0.00   0.00   0.00    -0.00   0.00  -0.00     0.00  -0.00  -0.00
  19   1     0.00   0.00   0.00    -0.00  -0.00  -0.00     0.00  -0.00   0.00
  20   1    -0.00   0.00  -0.00     0.00   0.00   0.00     0.00   0.00   0.00
  21   1     0.01  -0.01  -0.00     0.00  -0.00   0.00     0.00  -0.00  -0.00
                     49                     50                     51
                        a                      a                      a 
 Frequencies --  2986.5346              3089.3621              3094.6279
 Red. masses --     1.5360                 1.7686                 1.8048
 Frc consts  --     0.0000                 0.0000                 0.0000
 IR Inten    --    15.4922                 0.0051                 0.6819
 Raman Activ --     0.0000                 0.0000                 0.0000
 Depolar     --     0.0000                 0.0000                 0.0000
 Atom AN      X      Y      Z        X      Y      Z        X      Y      Z
   1   7     0.00   0.00  -0.00    -0.00   0.00  -0.00    -0.00  -0.00  -0.00
   2   6     0.08  -0.05   0.18    -0.00   0.00  -0.00    -0.00  -0.00  -0.00
   3   6     0.03  -0.02   0.08     0.00  -0.00   0.00    -0.00  -0.00  -0.00
   4   6     0.00  -0.00   0.00     0.00  -0.00   0.00     0.00  -0.01  -0.00
   5   6    -0.00   0.00  -0.00     0.01   0.02   0.01    -0.04  -0.06  -0.02
   6   6     0.00  -0.00  -0.00     0.06  -0.10  -0.01    -0.09   0.15   0.02
   7   6     0.00  -0.00   0.00    -0.19   0.01  -0.04     0.01   0.00   0.00
   8   6     0.00   0.00   0.00     0.06   0.11   0.04     0.09   0.14   0.05
   9   6    -0.00  -0.00  -0.00     0.02  -0.03  -0.00     0.04  -0.07  -0.01
  10   1    -0.00  -0.00   0.01     0.00   0.00  -0.00     0.00  -0.00  -0.00
  11   1     0.00   0.01   0.01    -0.00   0.00   0.00     0.00   0.00   0.00
  12   1     0.00  -0.02   0.01    -0.00  -0.00   0.00    -0.00   0.00  -0.00
  13   1    -0.13   0.58  -0.18     0.00  -0.00   0.00     0.00   0.00  -0.00
  14   1    -0.15  -0.42  -0.45     0.00   0.00   0.00    -0.00   0.00   0.00
  15   1    -0.05   0.26  -0.08    -0.00   0.00  -0.00    -0.00   0.00  -0.00
  16   1    -0.06  -0.19  -0.21    -0.00  -0.00  -0.00     0.00   0.00   0.00
  17   1     0.00   0.00   0.00    -0.05  -0.09  -0.03     0.14   0.24   0.09
  18   1    -0.00   0.00   0.00    -0.21   0.38   0.05     0.30  -0.53  -0.07
  19   1    -0.00   0.00  -0.00     0.68  -0.04   0.13    -0.04   0.00  -0.01
  20   1    -0.00  -0.00  -0.00    -0.24  -0.39  -0.15    -0.30  -0.49  -0.19
  21   1     0.00  -0.00  -0.00    -0.06   0.11   0.01    -0.14   0.26   0.04
                     52                     53                     54
                        a                      a                      a 
 Frequencies --  3101.2140              3108.4230              3110.4209
 Red. masses --     1.8581                 1.8649                 1.8905
 Frc consts  --     0.0000                 0.0000                 0.0000
 IR Inten    --    27.5341                63.4373                 0.8146
 Raman Activ --     0.0000                 0.0000                 0.0000
 Depolar     --     0.0000                 0.0000                 0.0000
 Atom AN      X      Y      Z        X      Y      Z        X      Y      Z
   1   7     0.00   0.00  -0.00    -0.00   0.00   0.00    -0.00   0.00  -0.00
   2   6     0.00  -0.00   0.00    -0.00   0.00   0.00    -0.00  -0.00   0.00
   3   6    -0.00   0.00  -0.00     0.00   0.00   0.00     0.00  -0.00  -0.00
   4   6    -0.01   0.00  -0.00    -0.00   0.00   0.00    -0.01   0.00  -0.00
   5   6    -0.05  -0.08  -0.03     0.08   0.13   0.05    -0.09  -0.15  -0.06
   6   6    -0.05   0.10   0.01    -0.04   0.07   0.01     0.05  -0.09  -0.01
   7   6    -0.18   0.01  -0.04     0.01  -0.00   0.00     0.07  -0.00   0.01
   8   6    -0.05  -0.09  -0.03     0.05   0.08   0.03     0.04   0.08   0.03
   9   6    -0.04   0.08   0.01    -0.09   0.16   0.02    -0.07   0.13   0.02
  10   1    -0.00  -0.00   0.00     0.00   0.00  -0.00     0.00   0.00  -0.00
  11   1     0.00  -0.00  -0.00    -0.00  -0.00  -0.00     0.00   0.00   0.00
  12   1     0.00   0.00  -0.00     0.00  -0.00   0.00     0.00  -0.00   0.00
  13   1    -0.00   0.00  -0.00    -0.00  -0.00   0.00     0.00  -0.00  -0.00
  14   1    -0.00  -0.00  -0.00     0.00  -0.00  -0.00     0.00   0.00   0.00
  15   1     0.00  -0.00   0.00     0.00  -0.01   0.00     0.00  -0.00   0.00
  16   1     0.00   0.00   0.00    -0.00  -0.00  -0.01     0.00   0.00   0.00
  17   1     0.18   0.29   0.12    -0.27  -0.46  -0.18     0.30   0.50   0.20
  18   1     0.19  -0.34  -0.05     0.13  -0.23  -0.03    -0.17   0.31   0.04
  19   1     0.61  -0.03   0.12    -0.02   0.00  -0.00    -0.24   0.01  -0.05
  20   1     0.18   0.29   0.11    -0.16  -0.26  -0.10    -0.15  -0.24  -0.09
  21   1     0.17  -0.31  -0.04     0.32  -0.57  -0.08     0.25  -0.45  -0.06
                     55                     56                     57
                        a                      a                      a 
 Frequencies --  3202.4605              3206.9546              3226.5356
 Red. masses --     2.0343                 2.0260                 1.2916
 Frc consts  --     0.0000                 0.0000                 0.0000
 IR Inten    --    79.5939                83.8412                28.4570
 Raman Activ --     0.0000                 0.0000                 0.0000
 Depolar     --     0.0000                 0.0000                 0.0000
 Atom AN      X      Y      Z        X      Y      Z        X      Y      Z
   1   7     0.07   0.14  -0.23     0.03  -0.24  -0.14    -0.13  -0.01  -0.07
   2   6    -0.00   0.00  -0.01     0.00  -0.01  -0.00    -0.01   0.00  -0.01
   3   6    -0.00  -0.00   0.00    -0.00   0.00   0.00     0.00  -0.00   0.00
   4   6     0.00   0.00  -0.00     0.00  -0.00  -0.00     0.00   0.00  -0.00
   5   6     0.00   0.00   0.00     0.00   0.00   0.00     0.00   0.00   0.00
   6   6    -0.00  -0.00   0.00     0.00  -0.00  -0.00    -0.00   0.00   0.00
   7   6     0.00  -0.00   0.00     0.00   0.00   0.00    -0.00   0.00  -0.00
   8   6     0.00   0.00   0.00    -0.00   0.00   0.00    -0.00  -0.00  -0.00
   9   6     0.00  -0.00  -0.00    -0.00   0.00   0.00     0.00  -0.00  -0.00
  10   1    -0.43  -0.17   0.66    -0.15  -0.09   0.23     0.23   0.10  -0.38
  11   1     0.04   0.10   0.07     0.18   0.42   0.48     0.17   0.45   0.50
  12   1     0.13  -0.47   0.13    -0.14   0.58  -0.20     0.11  -0.50   0.15
  13   1     0.00  -0.02   0.01    -0.00   0.01  -0.00     0.00  -0.01   0.00
  14   1     0.00   0.00   0.01     0.00   0.01   0.01     0.00   0.01   0.01
  15   1    -0.00  -0.00   0.00     0.00  -0.00   0.00    -0.00   0.00  -0.00
  16   1     0.00   0.00   0.00    -0.00  -0.00  -0.00    -0.00  -0.00  -0.00
  17   1    -0.00  -0.00  -0.00    -0.00  -0.00  -0.00    -0.00  -0.00  -0.00
  18   1     0.00  -0.00   0.00    -0.00   0.00   0.00     0.00  -0.00  -0.00
  19   1    -0.00  -0.00  -0.00    -0.00   0.00   0.00     0.00  -0.00   0.00
  20   1    -0.00  -0.00   0.00    -0.00  -0.00   0.00     0.00   0.00   0.00
  21   1    -0.00   0.00   0.00     0.00  -0.00  -0.00    -0.00   0.00   0.00
