      -----------------------------------------------------------      
     |                   =====================                   |     
     |                           x T B                           |     
     |                   =====================                   |     
     |                         S. Grimme                         |     
     |          Mulliken Center for Theoretical Chemistry        |     
     |                    University of Bonn                     |     
      -----------------------------------------------------------      

   * xtb version 6.5.1 (fef0646) compiled by 'conda@b96dff2e9fd6' on 2023-01-04

   xtb is free software: you can redistribute it and/or modify it under
   the terms of the GNU Lesser General Public License as published by
   the Free Software Foundation, either version 3 of the License, or
   (at your option) any later version.
   
   xtb is distributed in the hope that it will be useful,
   but WITHOUT ANY WARRANTY; without even the implied warranty of
   MERCHANTABILITY or FITNESS FOR A PARTICULAR PURPOSE.  See the
   GNU Lesser General Public License for more details.
   
   Cite this work as:
   * C. Bannwarth, E. Caldeweyher, S. Ehlert, A. Hansen, P. Pracht,
     J. Seibert, S. Spicher, S. Grimme, WIREs Comput. Mol. Sci., 2020, 11,
     e01493. DOI: 10.1002/wcms.1493
   
   for GFN2-xTB:
   * C. Bannwarth, S. Ehlert and S. Grimme., J. Chem. Theory Comput., 2019,
     15, 1652-1671. DOI: 10.1021/acs.jctc.8b01176
   for GFN1-xTB:
   * S. Grimme, C. Bannwarth, P. Shushkov, J. Chem. Theory Comput., 2017,
     13, 1989-2009. DOI: 10.1021/acs.jctc.7b00118
   for GFN0-xTB:
   * P. Pracht, E. Caldeweyher, S. Ehlert, S. Grimme, ChemRxiv, 2019, preprint.
     DOI: 10.26434/chemrxiv.8326202.v1
   for GFN-FF:
   * S. Spicher and S. Grimme, Angew. Chem. Int. Ed., 2020, 59, 15665-15673.
     DOI: 10.1002/anie.202004239
   
   for ALPB and GBSA implicit solvation:
   * S. Ehlert, M. Stahn, S. Spicher, S. Grimme, J. Chem. Theory Comput.,
     2021, 17, 4250-4261. DOI: 10.1021/acs.jctc.1c00471
   
   for DFT-D4:
   * E. Caldeweyher, C. Bannwarth and S. Grimme, J. Chem. Phys., 2017,
     147, 034112. DOI: 10.1063/1.4993215
   * E. Caldeweyher, S. Ehlert, A. Hansen, H. Neugebauer, S. Spicher,
     C. Bannwarth and S. Grimme, J. Chem. Phys., 2019, 150, 154122.
     DOI: 10.1063/1.5090222
   * E. Caldeweyher, J.-M. Mewes, S. Ehlert and S. Grimme, Phys. Chem. Chem. Phys.
     2020, 22, 8499-8512. DOI: 10.1039/D0CP00502A
   
   for sTDA-xTB:
   * S. Grimme and C. Bannwarth, J. Chem. Phys., 2016, 145, 054103.
     DOI: 10.1063/1.4959605
   
   in the mass-spec context:
   * V. Asgeirsson, C. Bauer and S. Grimme, Chem. Sci., 2017, 8, 4879.
     DOI: 10.1039/c7sc00601b
   * J. Koopman and S. Grimme, ACS Omega 2019, 4, 12, 15120-15133.
     DOI: 10.1021/acsomega.9b02011
   
   for metadynamics refer to:
   * S. Grimme, J. Chem. Theory Comput., 2019, 155, 2847-2862
     DOI: 10.1021/acs.jctc.9b00143
   
   for SPH calculations refer to:
   * S. Spicher and S. Grimme, J. Chem. Theory Comput., 2021, 17, 1701-1714
     DOI: 10.1021/acs.jctc.0c01306
   
   with help from (in alphabetical order)
   P. Atkinson, C. Bannwarth, F. Bohle, G. Brandenburg, E. Caldeweyher
   M. Checinski, S. Dohm, S. Ehlert, S. Ehrlich, I. Gerasimov, C. Hölzer
   A. Katbashev, J. Koopman, C. Lavigne, S. Lehtola, F. März, M. Müller,
   F. Musil, H. Neugebauer, J. Pisarek, C. Plett, P. Pracht, F. Pultar,
   J. Seibert, P. Shushkov, S. Spicher, M. Stahn, M. Steiner, T. Strunk,
   J. Stückrath, T. Rose, and J. Unsleber
   
 * started run on 2023/01/24 at 14:57:50.533     

           -------------------------------------------------
          |                Calculation Setup                |
           -------------------------------------------------

          program call               : xtb init.xyz --opt -c 1 -u 0 -P 16 --alpb water
          hostname                   : gpg-woodward
          coordinate file            : init.xyz
          omp threads                :                    16

   ID    Z sym.   atoms
    1    7 N      1
    2    6 C      2-6
    3    1 H      7-20

           -------------------------------------------------
          |                 G F N 2 - x T B                 |
           -------------------------------------------------

        Reference                      10.1021/acs.jctc.8b01176
      * Hamiltonian:
        H0-scaling (s, p, d)           1.850000    2.230000    2.230000
        zeta-weighting                 0.500000
      * Dispersion:
        s8                             2.700000
        a1                             0.520000
        a2                             5.000000
        s9                             5.000000
      * Repulsion:
        kExp                           1.500000    1.000000
        rExp                           1.000000
      * Coulomb:
        alpha                          2.000000
        third order                    shell-resolved
        anisotropic                    true
        a3                             3.000000
        a5                             4.000000
        cn-shift                       1.200000
        cn-exp                         4.000000
        max-rad                        5.000000

      * Solvation model:               ALPB
        Solvent                        water
        Parameter file                 internal GFN2-xTB/ALPB
        Dielectric constant                8.0200E+01
        Reference state                gsolv [1 M gas/solution]
        Free energy shift                  1.0808E-03 Eh       6.7819E-01 kcal/mol
        Temperature                        2.9815E+02 K
        Density                            1.0000E+00 kg/L
        Solvent mass                       1.8000E+01 g/mol
        Interaction kernel             P16
        Born radius scaling (c1)           1.4744E+00
        Born radii integrator          GBOBC
        Born offset                        0.0000E+00 a0       0.0000E+00 AA
        H-bond correction              true
        Ion screening                  false
        Surface tension                    1.0000E-05 Eh       1.5569E+01 dyn/cm
        Grid points                               230 per atom

          ...................................................
          :                      SETUP                      :
          :.................................................:
          :  # basis functions                  38          :
          :  # atomic orbitals                  38          :
          :  # shells                           26          :
          :  # electrons                        38          :
          :  max. iterations                   250          :
          :  Hamiltonian                  GFN2-xTB          :
          :  restarted?                      false          :
          :  GBSA solvation                   true          :
          :  PC potential                    false          :
          :  electronic temp.          300.0000000     K    :
          :  accuracy                    1.0000000          :
          :  -> integral cutoff          0.2500000E+02      :
          :  -> integral neglect         0.1000000E-07      :
          :  -> SCF convergence          0.1000000E-05 Eh   :
          :  -> wf. convergence          0.1000000E-03 e    :
          :  Broyden damping             0.4000000          :
          ...................................................

 iter      E             dE          RMSdq      gap      omega  full diag
   1    -20.6645503 -0.206646E+02  0.318E+00   11.75       0.0  T
   2    -20.7306614 -0.661111E-01  0.171E+00   10.40       1.0  T
   3    -20.7336940 -0.303259E-02  0.934E-01    9.99       1.0  T
   4    -20.7340095 -0.315528E-03  0.132E-01    9.93       1.0  T
   5    -20.7340353 -0.257946E-04  0.736E-02    9.93       1.0  T
   6    -20.7340379 -0.257847E-05  0.130E-02    9.95       1.7  T
   7    -20.7340384 -0.438952E-06  0.628E-03    9.95       3.6  T
   8    -20.7340384 -0.212183E-07  0.274E-03    9.95       8.2  T
   9    -20.7340384 -0.813552E-08  0.230E-04    9.95      97.1  T
  10    -20.7340384 -0.778577E-10  0.136E-04    9.95     164.0  T

   *** convergence criteria satisfied after 10 iterations ***

         #    Occupation            Energy/Eh            Energy/eV
      -------------------------------------------------------------
         1        2.0000           -0.6932534             -18.8644
       ...           ...                  ...                  ...
        13        2.0000           -0.4891088             -13.3093
        14        2.0000           -0.4630419             -12.6000
        15        2.0000           -0.4602229             -12.5233
        16        2.0000           -0.4396840             -11.9644
        17        2.0000           -0.4357847             -11.8583
        18        2.0000           -0.4309152             -11.7258
        19        2.0000           -0.4199284             -11.4268 (HOMO)
        20                         -0.0542732              -1.4768 (LUMO)
        21                          0.0545102               1.4833
        22                          0.0763058               2.0764
        23                          0.0903311               2.4580
        24                          0.1059380               2.8827
       ...                                ...                  ...
        38                          0.3074732               8.3668
      -------------------------------------------------------------
                  HL-Gap            0.3656552 Eh            9.9500 eV
             Fermi-level           -0.2371008 Eh           -6.4518 eV

 SCC (total)                   0 d,  0 h,  0 min,  0.015 sec
 SCC setup                      ...        0 min,  0.000 sec (  2.294%)
 Dispersion                     ...        0 min,  0.000 sec (  1.759%)
 classical contributions        ...        0 min,  0.000 sec (  0.361%)
 integral evaluation            ...        0 min,  0.001 sec (  3.848%)
 iterations                     ...        0 min,  0.012 sec ( 78.818%)
 molecular gradient             ...        0 min,  0.002 sec ( 10.158%)
 printout                       ...        0 min,  0.000 sec (  0.847%)

         :::::::::::::::::::::::::::::::::::::::::::::::::::::
         ::                     SUMMARY                     ::
         :::::::::::::::::::::::::::::::::::::::::::::::::::::
         :: total energy             -20.442766236784 Eh    ::
         :: total w/o Gsasa/hb       -20.431925441021 Eh    ::
         :: gradient norm              0.021361429168 Eh/a0 ::
         :: HOMO-LUMO gap              9.949983986635 eV    ::
         ::.................................................::
         :: SCC energy               -20.734038380087 Eh    ::
         :: -> isotropic ES            0.124242528279 Eh    ::
         :: -> anisotropic ES         -0.010578784476 Eh    ::
         :: -> anisotropic XC          0.015626718289 Eh    ::
         :: -> dispersion             -0.009323921814 Eh    ::
         :: -> Gsolv                  -0.117041117575 Eh    ::
         ::    -> Gelec               -0.106200321812 Eh    ::
         ::    -> Gsasa               -0.000877302142 Eh    ::
         ::    -> Ghb                 -0.011044253319 Eh    ::
         ::    -> Gshift               0.001080759698 Eh    ::
         :: repulsion energy           0.291292065657 Eh    ::
         :: add. restraining           0.000000000000 Eh    ::
         :: total charge               1.000000000000 e     ::
         :::::::::::::::::::::::::::::::::::::::::::::::::::::

      ----------------------------------------------------------- 
     |                   =====================                   |
     |                        A N C O P T                        |
     |                   =====================                   |
     |               Approximate Normal Coordinate               |
     |                Rational Function Optimizer                |
      ----------------------------------------------------------- 

          ...................................................
          :                      SETUP                      :
          :.................................................:
          :   optimization level            normal          :
          :   max. optcycles                   200          :
          :   ANC micro-cycles                  20          :
          :   degrees of freedom                54          :
          :.................................................:
          :   RF solver                   davidson          :
          :   write xtbopt.log                true          :
          :   linear?                        false          :
          :   energy convergence         0.5000000E-05 Eh   :
          :   grad. convergence          0.1000000E-02 Eh/α :
          :   maximium RF displ.         1.0000000          :
          :   Hlow (freq-cutoff)         0.1000000E-01      :
          :   Hmax (freq-cutoff)         5.0000000          :
          :   S6 in model hess.         20.0000000          :
          ...................................................

generating ANC from model Hessian ...
Using Lindh-Hessian (1995)
 Shifting diagonal of input Hessian by    8.1030786000772879E-003
 Lowest  eigenvalues of input Hessian
    0.000000    0.000000    0.000000    0.000000    0.000000    0.000000
    0.010000    0.010860    0.011357    0.014655    0.018469    0.018743
    0.022623    0.023045    0.029982    0.047409    0.050517    0.055410
 Highest eigenvalues
    1.195761    1.239676    1.283170    1.402508    1.404257    1.450268


........................................................................
.............................. CYCLE    1 ..............................
........................................................................
   1    -20.7340384 -0.207340E+02  0.147E-05    9.95       0.0  T
   2    -20.7340384 -0.788702E-12  0.826E-06    9.95    2708.6  T
   3    -20.7340384 -0.106581E-12  0.441E-06    9.95    5067.6  T
     SCC iter.                  ...        0 min,  0.003 sec
     gradient                   ...        0 min,  0.002 sec
 * total energy  :   -20.4427662 Eh     change       -0.8654411E-11 Eh
   gradient norm :     0.0213615 Eh/α   predicted     0.0000000E+00 (-100.00%)
   displ. norm   :     0.1309530 α      lambda       -0.1819558E-02
   maximum displ.:     0.0729585 α      in ANC's #19, #6, #35, ...

........................................................................
.............................. CYCLE    2 ..............................
........................................................................
   1    -20.7408014 -0.207408E+02  0.166E-01    9.92       0.0  T
   2    -20.7408081 -0.676335E-05  0.970E-02    9.93       1.0  T
   3    -20.7408090 -0.821831E-06  0.769E-03    9.94       2.9  T
   4    -20.7408090 -0.803554E-07  0.298E-03    9.95       7.5  T
   5    -20.7408090 -0.392517E-08  0.137E-03    9.95      16.4  T
   6    -20.7408090 -0.143839E-08  0.195E-04    9.95     114.5  T
   7    -20.7408090 -0.708624E-10  0.112E-04    9.95     199.8  T
     SCC iter.                  ...        0 min,  0.007 sec
     gradient                   ...        0 min,  0.001 sec
 * total energy  :   -20.4437908 Eh     change       -0.1024538E-02 Eh
   gradient norm :     0.0078759 Eh/α   predicted    -0.9253821E-03 (  -9.68%)
   displ. norm   :     0.0484846 α      lambda       -0.1566878E-03
   maximum displ.:     0.0378300 α      in ANC's #7, #2, #35, ...

........................................................................
.............................. CYCLE    3 ..............................
........................................................................
   1    -20.7423342 -0.207423E+02  0.361E-02   10.00       0.0  T
   2    -20.7423356 -0.139528E-05  0.204E-02   10.00       1.1  T
   3    -20.7423357 -0.662109E-07  0.457E-03   10.00       4.9  T
   4    -20.7423357 -0.218526E-07  0.106E-03   10.00      21.2  T
   5    -20.7423357 -0.915833E-09  0.532E-04   10.00      42.0  T
   6    -20.7423357 -0.132211E-09  0.802E-05   10.00     278.9  T
     SCC iter.                  ...        0 min,  0.006 sec
     gradient                   ...        0 min,  0.002 sec
 * total energy  :   -20.4438859 Eh     change       -0.9515935E-04 Eh
   gradient norm :     0.0021529 Eh/α   predicted    -0.7939133E-04 ( -16.57%)
   displ. norm   :     0.0229534 α      lambda       -0.1888299E-04
   maximum displ.:     0.0149689 α      in ANC's #2, #7, #23, ...

........................................................................
.............................. CYCLE    4 ..............................
........................................................................
   1    -20.7426360 -0.207426E+02  0.122E-02   10.03       0.0  T
   2    -20.7426362 -0.182979E-06  0.683E-03   10.03       3.3  T
   3    -20.7426362 -0.986575E-08  0.145E-03   10.03      15.4  T
   4    -20.7426362 -0.224459E-08  0.335E-04   10.04      66.8  T
   5    -20.7426362 -0.669580E-10  0.163E-04   10.04     137.2  T
     SCC iter.                  ...        0 min,  0.005 sec
     gradient                   ...        0 min,  0.001 sec
 * total energy  :   -20.4438972 Eh     change       -0.1122522E-04 Eh
   gradient norm :     0.0005224 Eh/α   predicted    -0.9450638E-05 ( -15.81%)
   displ. norm   :     0.0210144 α      lambda       -0.2530052E-05
   maximum displ.:     0.0186009 α      in ANC's #2, #1, #9, ...

........................................................................
.............................. CYCLE    5 ..............................
........................................................................
   1    -20.7425966 -0.207426E+02  0.652E-03   10.04       0.0  T
   2    -20.7425967 -0.203794E-07  0.373E-03   10.04       6.0  T
   3    -20.7425967 -0.286254E-08  0.410E-04   10.04      54.6  T
   4    -20.7425967 -0.294715E-09  0.166E-04   10.04     135.1  T
     SCC iter.                  ...        0 min,  0.004 sec
     gradient                   ...        0 min,  0.001 sec
 * total energy  :   -20.4438992 Eh     change       -0.2064662E-05 Eh
   gradient norm :     0.0004250 Eh/α   predicted    -0.1265737E-05 ( -38.70%)
   displ. norm   :     0.0106347 α      lambda       -0.7300515E-06
   maximum displ.:     0.0090756 α      in ANC's #2, #1, #8, ...

   *** GEOMETRY OPTIMIZATION CONVERGED AFTER 5 ITERATIONS ***

------------------------------------------------------------------------
 total energy gain   :        -0.0011330 Eh       -0.7110 kcal/mol
 total RMSD          :         0.0369987 a0        0.0196 Å
 total power (kW/mol):        -0.5949315 (step)  -57.0984 (real)
------------------------------------------------------------------------

 ANCopt (total)                0 d,  0 h,  0 min,  0.052 sec
 optimizer setup                ...        0 min,  0.000 sec (  0.330%)
 model hessian                  ...        0 min,  0.008 sec ( 14.655%)
 ANC generation                 ...        0 min,  0.001 sec (  2.408%)
 coordinate transformation      ...        0 min,  0.000 sec (  0.299%)
 single point calculation       ...        0 min,  0.040 sec ( 77.566%)
 optimization log               ...        0 min,  0.001 sec (  1.639%)
 hessian update                 ...        0 min,  0.000 sec (  0.413%)
 rational function              ...        0 min,  0.000 sec (  0.874%)

================
 final structure:
================
20
 xtb: 6.5.1 (fef0646)
N            0.86402755889513       -0.01236480396880       -0.01631147365468
C            2.34752107259785       -0.02324097040608       -0.02847273761358
C            2.87176477655853       -0.69139451096586       -1.29449232213187
C            4.39994599123989       -0.70103265881725       -1.31349847715512
C            4.94460698174034       -1.36694541723491       -2.57598617429334
C            6.46868665498658       -1.37635949631418       -2.59501924257110
H            0.50928092245815        0.44080826525719        0.83353898627015
H            0.50442693486638       -0.97348234982565       -0.05356660463172
H            0.50900368477239        0.49600099250428       -0.83487761482642
H            2.70888505106320       -0.56231718762611        0.84701042672175
H            2.71365950459408        1.00196907460918        0.02247339328477
H            2.51878318074699       -0.15783493845446       -2.17796599802140
H            2.51855420152449       -1.72172857391998       -1.35333418647466
H            4.77881148040465       -1.23673312028060       -0.44100543912363
H            4.77819379028413        0.32182389929283       -1.26351003764624
H            4.58077401379938       -0.83527610418647       -3.45794865251188
H            4.58136125900964       -2.39528649957315       -2.63483232612786
H            6.86088758274165       -0.36199148678607       -2.56225713538490
H            6.83822254742003       -1.85374512030284       -3.49976715875103
H            6.86150281029654       -1.92139899300105       -1.73918722535724

 Bond Distances (Angstroems)
 ---------------------------
N1-C2=1.4836         N1-H7=1.0264         N1-H8=1.0269         N1-H9=1.0269         C2-N1=1.4836         C2-C3=1.5245         
C2-H10=1.0898        C2-H11=1.0898        C3-C2=1.5245         C3-C4=1.5283         C3-H12=1.0908        C3-H13=1.0908        
C4-C3=1.5283         C4-C5=1.5277         C4-H14=1.0917        C4-H15=1.0917        C5-C4=1.5277         C5-C6=1.5242         
C5-H16=1.0922        C5-H17=1.0922        C6-C5=1.5242         C6-H18=1.0880        C6-H19=1.0877        C6-H20=1.0880        
H7-N1=1.0264         H8-N1=1.0269         H9-N1=1.0269         H10-C2=1.0898        H11-C2=1.0898        H12-C3=1.0908        
H13-C3=1.0908        H14-C4=1.0917        H15-C4=1.0917        H16-C5=1.0922        H17-C5=1.0922        H18-C6=1.0880        
H19-C6=1.0877        H20-C6=1.0880        
 C  H  Rav=1.0902 sigma=0.0016  Rmin=1.0877  Rmax=1.0922    11
 C  C  Rav=1.5262 sigma=0.0019  Rmin=1.5242  Rmax=1.5283     4
 N  H  Rav=1.0267 sigma=0.0002  Rmin=1.0264  Rmax=1.0269     3
 N  C  Rav=1.4836 sigma=0.0000  Rmin=1.4836  Rmax=1.4836     1

 selected bond angles (degree)
 --------------------
H7-N1-C2=110.83                H8-N1-C2=110.06                H8-N1-H7=108.80                H9-N1-C2=110.05                
H9-N1-H7=108.78                H9-N1-H8=108.26                C3-C2-N1=110.72                H10-C2-N1=109.18               
H10-C2-C3=109.65               H11-C2-N1=109.19               H11-C2-C3=109.61               H11-C2-H10=108.44              
C4-C3-C2=110.91                H12-C3-C2=110.30               H12-C3-C4=108.46               H13-C3-C2=110.33               
H13-C3-C4=108.49               H13-C3-H12=108.27              C5-C4-C3=111.69                H14-C4-C3=109.89               
H14-C4-C5=108.83               H15-C4-C3=109.87               H15-C4-C5=108.83               H15-C4-H14=107.63              
C6-C5-C4=111.68                H16-C5-C4=109.66               H16-C5-C6=109.03               H17-C5-C4=109.65               
H17-C5-C6=109.03               H17-C5-H16=107.70              H18-C6-C5=110.75               H19-C6-C5=110.66               
H19-C6-H18=108.17              H20-C6-C5=110.75               H20-C6-H18=108.25              H20-C6-H19=108.17              

 selected dihedral angles (degree)
 ---------------------------------
C3-C2-N1-H7=180.25            C3-C2-N1-H8= 59.85            C3-C2-N1-H9=300.61            H10-C2-N1-H7= 59.42           
H10-C2-N1-H8=299.02           H10-C2-N1-H9=179.79           H11-C2-N1-H7=301.01           H11-C2-N1-H8=180.62           
H11-C2-N1-H9= 61.38           C4-C3-C2-N1=179.82            C4-C3-C2-H10=300.37           C4-C3-C2-H11= 59.30           
H12-C3-C2-N1= 59.64           H12-C3-C2-H10=180.19          H12-C3-C2-H11=299.12          H13-C3-C2-N1=300.07           
H13-C3-C2-H10= 60.61          H13-C3-C2-H11=179.55          C5-C4-C3-C2=180.01            C5-C4-C3-H12=301.28           
C5-C4-C3-H13= 58.68           H14-C4-C3-C2= 59.13           H14-C4-C3-H12=180.40          H14-C4-C3-H13=297.80          
H15-C4-C3-C2=300.88           H15-C4-C3-H12= 62.15          H15-C4-C3-H13=179.55          C6-C5-C4-C3=179.99            
C6-C5-C4-H14=301.49           C6-C5-C4-H15= 58.52           H16-C5-C4-C3= 59.02           H16-C5-C4-H14=180.52          
H16-C5-C4-H15=297.55          H17-C5-C4-C3=300.96           H17-C5-C4-H14= 62.46          H17-C5-C4-H15=179.49          
H18-C6-C5-C4=299.94           H18-C6-C5-H16= 61.27          H18-C6-C5-H17=178.60          H19-C6-C5-C4=179.99           
H19-C6-C5-H16=301.33          H19-C6-C5-H17= 58.66          H20-C6-C5-C4= 60.05           H20-C6-C5-H16=181.38          
H20-C6-C5-H17=298.71          
           -------------------------------------------------
          |                Final Singlepoint                |
           -------------------------------------------------

          ...................................................
          :                      SETUP                      :
          :.................................................:
          :  # basis functions                  38          :
          :  # atomic orbitals                  38          :
          :  # shells                           26          :
          :  # electrons                        38          :
          :  max. iterations                   250          :
          :  Hamiltonian                  GFN2-xTB          :
          :  restarted?                      false          :
          :  GBSA solvation                   true          :
          :  PC potential                    false          :
          :  electronic temp.          300.0000000     K    :
          :  accuracy                    1.0000000          :
          :  -> integral cutoff          0.2500000E+02      :
          :  -> integral neglect         0.1000000E-07      :
          :  -> SCF convergence          0.1000000E-05 Eh   :
          :  -> wf. convergence          0.1000000E-03 e    :
          :  Broyden damping             0.4000000          :
          ...................................................

 iter      E             dE          RMSdq      gap      omega  full diag
   1    -20.7425967 -0.207426E+02  0.467E-05   10.04       0.0  T
   2    -20.7425967 -0.336797E-11  0.280E-05   10.04     797.4  T
   3    -20.7425967 -0.252243E-12  0.110E-05   10.04    2041.8  T

   *** convergence criteria satisfied after 3 iterations ***

         #    Occupation            Energy/Eh            Energy/eV
      -------------------------------------------------------------
         1        2.0000           -0.6924319             -18.8420
       ...           ...                  ...                  ...
        13        2.0000           -0.4882961             -13.2872
        14        2.0000           -0.4633606             -12.6087
        15        2.0000           -0.4593748             -12.5002
        16        2.0000           -0.4401330             -11.9766
        17        2.0000           -0.4365711             -11.8797
        18        2.0000           -0.4313881             -11.7387
        19        2.0000           -0.4207018             -11.4479 (HOMO)
        20                         -0.0515655              -1.4032 (LUMO)
        21                          0.0465425               1.2665
        22                          0.0757404               2.0610
        23                          0.0981682               2.6713
        24                          0.1069947               2.9115
       ...                                ...                  ...
        38                          0.3143342               8.5535
      -------------------------------------------------------------
                  HL-Gap            0.3691363 Eh           10.0447 eV
             Fermi-level           -0.2361336 Eh           -6.4255 eV

 SCC (total)                   0 d,  0 h,  0 min,  0.006 sec
 SCC setup                      ...        0 min,  0.000 sec (  4.770%)
 Dispersion                     ...        0 min,  0.000 sec (  3.029%)
 classical contributions        ...        0 min,  0.000 sec (  1.418%)
 integral evaluation            ...        0 min,  0.000 sec (  7.881%)
 iterations                     ...        0 min,  0.003 sec ( 52.693%)
 molecular gradient             ...        0 min,  0.001 sec ( 24.749%)
 printout                       ...        0 min,  0.000 sec (  2.037%)

         :::::::::::::::::::::::::::::::::::::::::::::::::::::
         ::                     SUMMARY                     ::
         :::::::::::::::::::::::::::::::::::::::::::::::::::::
         :: total energy             -20.443899224040 Eh    ::
         :: total w/o Gsasa/hb       -20.432812113508 Eh    ::
         :: gradient norm              0.000425941285 Eh/a0 ::
         :: HOMO-LUMO gap             10.044710736494 eV    ::
         ::.................................................::
         :: SCC energy               -20.742596656346 Eh    ::
         :: -> isotropic ES            0.124481677492 Eh    ::
         :: -> anisotropic ES         -0.011635202436 Eh    ::
         :: -> anisotropic XC          0.015237185935 Eh    ::
         :: -> dispersion             -0.009322391983 Eh    ::
         :: -> Gsolv                  -0.117334088164 Eh    ::
         ::    -> Gelec               -0.106246977632 Eh    ::
         ::    -> Gsasa               -0.000890782551 Eh    ::
         ::    -> Ghb                 -0.011277087679 Eh    ::
         ::    -> Gshift               0.001080759698 Eh    ::
         :: repulsion energy           0.298718721097 Eh    ::
         :: add. restraining           0.000000000000 Eh    ::
         :: total charge               1.000000000000 e     ::
         :::::::::::::::::::::::::::::::::::::::::::::::::::::

           -------------------------------------------------
          |                Property Printout                |
           -------------------------------------------------

    * Orbital Energies and Occupations

         #    Occupation            Energy/Eh            Energy/eV
      -------------------------------------------------------------
         1        2.0000           -0.6924319             -18.8420
       ...           ...                  ...                  ...
         7        2.0000           -0.5683578             -15.4658
         8        2.0000           -0.5558966             -15.1267
         9        2.0000           -0.5422604             -14.7557
        10        2.0000           -0.5226664             -14.2225
        11        2.0000           -0.4963211             -13.5056
        12        2.0000           -0.4921581             -13.3923
        13        2.0000           -0.4882961             -13.2872
        14        2.0000           -0.4633606             -12.6087
        15        2.0000           -0.4593748             -12.5002
        16        2.0000           -0.4401330             -11.9766
        17        2.0000           -0.4365711             -11.8797
        18        2.0000           -0.4313881             -11.7387
        19        2.0000           -0.4207018             -11.4479 (HOMO)
        20                         -0.0515655              -1.4032 (LUMO)
        21                          0.0465425               1.2665
        22                          0.0757404               2.0610
        23                          0.0981682               2.6713
        24                          0.1069947               2.9115
        25                          0.1308202               3.5598
        26                          0.1380252               3.7559
        27                          0.1388359               3.7779
        28                          0.1621641               4.4127
        29                          0.1712302               4.6594
        30                          0.1887482               5.1361
       ...                                ...                  ...
        38                          0.3143342               8.5535
      -------------------------------------------------------------
                  HL-Gap            0.3691363 Eh           10.0447 eV
             Fermi-level           -0.2361336 Eh           -6.4255 eV

     #   Z          covCN         q      C6AA      α(0)
     1   7 N        3.485    -0.162    24.491     7.350
     2   6 C        3.733    -0.038    21.340     6.594
     3   6 C        3.803    -0.086    22.134     6.698
     4   6 C        3.804    -0.071    21.862     6.657
     5   6 C        3.801    -0.062    21.692     6.631
     6   6 C        3.752    -0.112    22.699     6.794
     7   1 H        0.859     0.316     0.667     1.279
     8   1 H        0.859     0.309     0.688     1.299
     9   1 H        0.859     0.309     0.688     1.300
    10   1 H        0.925     0.107     1.724     2.053
    11   1 H        0.925     0.107     1.724     2.054
    12   1 H        0.924     0.065     2.137     2.286
    13   1 H        0.924     0.065     2.138     2.286
    14   1 H        0.924     0.043     2.408     2.427
    15   1 H        0.924     0.043     2.408     2.427
    16   1 H        0.924     0.035     2.514     2.479
    17   1 H        0.924     0.035     2.514     2.480
    18   1 H        0.925     0.034     2.528     2.486
    19   1 H        0.925     0.028     2.617     2.530
    20   1 H        0.925     0.034     2.528     2.486

 Mol. C6AA /au·bohr⁶  :       2246.186546
 Mol. C8AA /au·bohr⁸  :      46355.175574
 Mol. α(0) /au        :         70.596121


Wiberg/Mayer (AO) data.
largest (>0.10) Wiberg bond orders for each atom

 ---------------------------------------------------------------------------
     #   Z sym  total        # sym  WBO       # sym  WBO       # sym  WBO
 ---------------------------------------------------------------------------
     1   7 N    3.653 --     2 C    0.966     8 H    0.890     9 H    0.890
                             7 H    0.887
     2   6 C    3.927 --     3 C    1.011    11 H    0.967    10 H    0.967
                             1 N    0.966
     3   6 C    3.991 --     2 C    1.011     4 C    1.004    13 H    0.973
                            12 H    0.973
     4   6 C    3.995 --     5 C    1.008     3 C    1.004    14 H    0.977
                            15 H    0.977
     5   6 C    3.996 --     6 C    1.019     4 C    1.008    17 H    0.978
                            16 H    0.978
     6   6 C    3.996 --     5 C    1.019    18 H    0.988    20 H    0.988
                            19 H    0.988
     7   1 H    0.900 --     1 N    0.887
     8   1 H    0.905 --     1 N    0.890
     9   1 H    0.905 --     1 N    0.890
    10   1 H    0.989 --     2 C    0.967
    11   1 H    0.989 --     2 C    0.967
    12   1 H    0.996 --     3 C    0.973
    13   1 H    0.996 --     3 C    0.973
    14   1 H    0.998 --     4 C    0.977
    15   1 H    0.998 --     4 C    0.977
    16   1 H    0.999 --     5 C    0.978
    17   1 H    0.999 --     5 C    0.978
    18   1 H    0.999 --     6 C    0.988
    19   1 H    0.999 --     6 C    0.988
    20   1 H    0.999 --     6 C    0.988
 ---------------------------------------------------------------------------

Topologies differ in total number of bonds
Writing topology from bond orders to xtbtopo.mol

molecular dipole:
                 x           y           z       tot (Debye)
 q only:        1.810      -0.030      -0.043
   full:        1.782      -0.051      -0.083       4.537
molecular quadrupole (traceless):
                xx          xy          yy          xz          yz          zz
 q only:        3.896       0.143      -2.046       0.316       0.143      -1.849
  q+dip:        2.392      -0.069      -0.811      -0.098      -0.561      -1.581
   full:        3.518      -0.252      -1.681      -0.438      -0.113      -1.838

           -------------------------------------------------
          |                Geometry Summary                 |
           -------------------------------------------------

      molecular mass/u    :       88.1715532
   center of mass at/Å    :        3.5883197      -0.6800630      -1.2754975
  moments of inertia/u·Å² :        0.3460846E+02   0.4494253E+03   0.4655393E+03
rotational constants/cm⁻¹ :        0.4870958E+00   0.3750931E-01   0.3621097E-01

 * 19 selected distances

     #   Z          #   Z                                           value/Å
     1   7 N        2   6 C                                       1.4835834
     2   6 C        3   6 C                                       1.5244890
     3   6 C        4   6 C                                       1.5283299 (max)
     4   6 C        5   6 C                                       1.5277339
     5   6 C        6   6 C                                       1.5242277
     1   7 N        7   1 H                                       1.0263805 (min)
     1   7 N        8   1 H                                       1.0268630
     1   7 N        9   1 H                                       1.0269024
     2   6 C       10   1 H                                       1.0897973
     2   6 C       11   1 H                                       1.0898205
     3   6 C       12   1 H                                       1.0907831
     3   6 C       13   1 H                                       1.0907835
     4   6 C       14   1 H                                       1.0916769
     4   6 C       15   1 H                                       1.0916987
     5   6 C       16   1 H                                       1.0922018
     5   6 C       17   1 H                                       1.0921978
     6   6 C       18   1 H                                       1.0880430
     6   6 C       19   1 H                                       1.0876685
     6   6 C       20   1 H                                       1.0880355

 * 4 distinct bonds (by element types)

   Z      Z             #   av. dist./Å        max./Å        min./Å
   1 H    6 C          11     1.0902460     1.0922018     1.0876685
   6 C    6 C           4     1.5261951     1.5283299     1.5242277
   1 H    7 N           3     1.0267153     1.0269024     1.0263805
   6 C    7 N           1     1.4835834     1.4835834     1.4835834


optimized geometry written to: xtbopt.xyz


           -------------------------------------------------
          | TOTAL ENERGY              -20.443899224040 Eh   |
          | GRADIENT NORM               0.000425941285 Eh/α |
          | HOMO-LUMO GAP              10.044710736494 eV   |
           -------------------------------------------------

------------------------------------------------------------------------
 * finished run on 2023/01/24 at 14:57:50.629     
------------------------------------------------------------------------
 total:
 * wall-time:     0 d,  0 h,  0 min,  0.096 sec
 *  cpu-time:     0 d,  0 h,  0 min, 13.419 sec
 * ratio c/w:   139.685 speedup
 SCF:
 * wall-time:     0 d,  0 h,  0 min,  0.016 sec
 *  cpu-time:     0 d,  0 h,  0 min,  2.204 sec
 * ratio c/w:   140.669 speedup
 ANC optimizer:
 * wall-time:     0 d,  0 h,  0 min,  0.060 sec
 *  cpu-time:     0 d,  0 h,  0 min,  8.425 sec
 * ratio c/w:   141.037 speedup

