 Entering Gaussian System
 *********************************************
 Gaussian 98:
 frequency output generated by the xtb code
 *********************************************
                         Standard orientation:
 --------------------------------------------------------------------
  Center     Atomic     Atomic              Coordinates (Angstroms)
  Number     Number      Type              X           Y           Z
 --------------------------------------------------------------------
    1          7             0        3.693377    0.220593    1.606387
    2          6             0        4.947345    0.274276    0.816602
    3          6             0        4.682668   -0.050236   -0.646066
    4          8             0        3.681470    0.815969   -1.189804
    5          6             0        2.371788    0.346096   -1.098499
    6          6             0        1.997430   -0.954623   -1.422315
    7          6             0        0.698528   -1.388386   -1.264970
    8          6             0       -0.307176   -0.556790   -0.771978
    9          6             0        0.025823    0.789989   -0.451932
   10          6             0       -0.952641    1.691625    0.056100
   11          6             0       -0.562303    2.989754    0.363297
   12          6             0        0.744729    3.419537    0.182371
   13          6             0        1.691892    2.562031   -0.308600
   14          6             0        1.357504    1.242972   -0.633447
   15          6             0       -1.669868   -1.021912   -0.579802
   16          6             0       -2.053555   -2.327211   -0.866749
   17          6             0       -3.360207   -2.761584   -0.681804
   18          6             0       -4.314131   -1.906698   -0.206252
   19          6             0       -3.986953   -0.572939    0.105645
   20          6             0       -4.959697    0.318157    0.597867
   21          6             0       -4.628539    1.608766    0.897943
   22          6             0       -3.325537    2.061049    0.722658
   23          6             0       -2.322933    1.228743    0.241276
   24          6             0       -2.653831   -0.119416   -0.078671
   25         17             0        2.154430   -2.890299    1.503288
   26          1             0        2.993269    0.848126    1.184908
   27          1             0        3.827482    0.499805    2.592276
   28          1             0        3.282102   -0.732214    1.592080
   29          1             0        5.694343   -0.407298    1.241221
   30          1             0        5.374520    1.281254    0.890489
   31          1             0        4.366452   -1.090704   -0.758413
   32          1             0        5.585107    0.074649   -1.255570
   33          1             0        2.733865   -1.622698   -1.832957
   34          1             0        0.465262   -2.403675   -1.532908
   35          1             0       -1.281628    3.688788    0.751748
   36          1             0        1.014625    4.434846    0.427709
   37          1             0        2.706974    2.891285   -0.461215
   38          1             0       -1.329710   -3.029575   -1.240680
   39          1             0       -3.622483   -3.781413   -0.916201
   40          1             0       -5.327272   -2.244932   -0.064177
   41          1             0       -5.969738   -0.031457    0.734621
   42          1             0       -5.382144    2.282941    1.273805
   43          1             0       -3.101961    3.084038    0.968456
 --------------------------------------------------------------------
     1 basis functions        1 primitive gaussians
     1 alpha electrons        1 beta electrons

 Harmonic frequencies (cm**-1), IR intensities (km*mol⁻¹),
 Raman scattering activities (A**4/amu), Raman depolarization ratios,
 reduced masses (AMU), force constants (mDyne/A) and normal coordinates:
                      1                      2                      3
                        a                      a                      a 
 Frequencies --  -142.2026               -26.3179                -9.2228
 Red. masses --    20.3362                18.4798                14.1864
 Frc consts  --     0.0000                 0.0000                 0.0000
 IR Inten    --   109.0159                 3.1132                 1.2706
 Raman Activ --     0.0000                 0.0000                 0.0000
 Depolar     --     0.0000                 0.0000                 0.0000
 Atom AN      X      Y      Z        X      Y      Z        X      Y      Z
   1   7     0.20   0.59  -0.00     0.05   0.27  -0.02    -0.11  -0.20  -0.07
   2   6     0.17   0.19  -0.07     0.04  -0.02  -0.04    -0.07  -0.06  -0.02
   3   6     0.01  -0.00   0.01    -0.06  -0.15   0.01     0.01   0.10  -0.07
   4   8     0.01  -0.01   0.00    -0.00  -0.12  -0.03     0.01   0.13  -0.04
   5   6     0.00  -0.01   0.00    -0.02  -0.06  -0.07     0.01   0.10  -0.03
   6   6     0.01  -0.01   0.01    -0.05  -0.02  -0.17     0.02   0.10  -0.07
   7   6     0.01  -0.01   0.02    -0.05  -0.01  -0.16     0.03   0.07  -0.03
   8   6     0.01  -0.01   0.01    -0.02  -0.03  -0.06     0.04   0.04   0.04
   9   6     0.00  -0.00   0.00     0.01  -0.06   0.00     0.02   0.05   0.02
  10   6     0.00  -0.00   0.00     0.03  -0.07   0.07     0.00   0.04   0.01
  11   6     0.01  -0.00   0.01     0.08  -0.12   0.24     0.00   0.01   0.10
  12   6     0.01  -0.01   0.02     0.11  -0.16   0.32     0.01   0.02   0.14
  13   6     0.01  -0.01   0.03     0.07  -0.14   0.21     0.00   0.06   0.08
  14   6     0.01  -0.01   0.01     0.02  -0.08   0.04     0.01   0.07   0.02
  15   6     0.00  -0.00   0.00    -0.01  -0.04  -0.01     0.07  -0.01   0.13
  16   6     0.00  -0.00   0.00    -0.01  -0.05   0.06     0.13  -0.07   0.31
  17   6     0.00  -0.00  -0.00    -0.01  -0.05   0.08     0.15  -0.09   0.34
  18   6     0.00  -0.00  -0.01    -0.01  -0.02   0.03     0.09  -0.06   0.18
  19   6     0.00  -0.00  -0.00    -0.01  -0.01  -0.02     0.04  -0.01   0.02
  20   6     0.00  -0.00  -0.00    -0.02   0.01  -0.07    -0.01   0.02  -0.14
  21   6     0.00  -0.00   0.00    -0.02   0.03  -0.14    -0.07   0.08  -0.30
  22   6     0.00  -0.00   0.00    -0.01   0.01  -0.11    -0.07   0.08  -0.26
  23   6     0.00  -0.00  -0.00     0.00  -0.03  -0.02    -0.01   0.04  -0.08
  24   6     0.00  -0.00  -0.00    -0.01  -0.03  -0.02     0.03   0.01   0.03
  25  17    -0.34  -0.53  -0.02    -0.08   0.56  -0.09    -0.17  -0.30  -0.17
  26   1     0.08   0.17  -0.03     0.05   0.12  -0.00    -0.03  -0.05  -0.01
  27   1     0.07   0.20  -0.01     0.03   0.06  -0.01    -0.04  -0.08  -0.01
  28   1     0.04   0.19   0.05    -0.04   0.09  -0.00    -0.02  -0.06  -0.05
  29   1     0.02   0.04   0.00    -0.01  -0.02   0.01    -0.02  -0.02  -0.02
  30   1     0.10   0.04  -0.07     0.06  -0.02  -0.05    -0.03  -0.02   0.03
  31   1    -0.02   0.00   0.05    -0.05  -0.04   0.04     0.02   0.03  -0.06
  32   1    -0.01  -0.04  -0.03    -0.02  -0.09  -0.01     0.01   0.06  -0.00
  33   1     0.00  -0.00   0.00    -0.02   0.00  -0.07     0.00   0.04  -0.04
  34   1     0.00  -0.01   0.01    -0.02   0.00  -0.07     0.01   0.02  -0.02
  35   1     0.00  -0.00   0.00     0.03  -0.04   0.10     0.00  -0.00   0.04
  36   1     0.00  -0.00   0.01     0.04  -0.06   0.14     0.00   0.00   0.06
  37   1     0.00  -0.00   0.01     0.02  -0.04   0.07     0.00   0.02   0.03
  38   1     0.00  -0.00   0.00    -0.00  -0.02   0.03     0.05  -0.03   0.13
  39   1     0.00  -0.00  -0.00    -0.00  -0.02   0.04     0.06  -0.04   0.14
  40   1     0.00   0.00  -0.00    -0.00  -0.00   0.01     0.03  -0.02   0.05
  41   1     0.00   0.00  -0.00    -0.01   0.01  -0.02    -0.00   0.00  -0.04
  42   1     0.00  -0.00   0.00    -0.01   0.02  -0.06    -0.03   0.03  -0.13
  43   1     0.00  -0.00   0.00    -0.00   0.01  -0.05    -0.03   0.04  -0.12
                      4                      5                      6
                        a                      a                      a 
 Frequencies --    28.1823                47.6479                56.0184
 Red. masses --    23.8641                18.7950                10.9682
 Frc consts  --     0.0000                 0.0000                 0.0000
 IR Inten    --     6.7079                24.2025                 5.8007
 Raman Activ --     0.0000                 0.0000                 0.0000
 Depolar     --     0.0000                 0.0000                 0.0000
 Atom AN      X      Y      Z        X      Y      Z        X      Y      Z
   1   7     0.23  -0.02   0.01     0.24   0.02  -0.01     0.27  -0.04   0.12
   2   6     0.12   0.07  -0.14     0.21  -0.16  -0.03     0.21  -0.33   0.03
   3   6    -0.03  -0.01  -0.09     0.08  -0.01  -0.04    -0.03  -0.16   0.03
   4   8    -0.08  -0.02  -0.03    -0.01   0.00   0.16     0.02   0.03   0.28
   5   6    -0.06  -0.02   0.03     0.01  -0.04   0.18    -0.01   0.06   0.04
   6   6    -0.07  -0.01   0.02     0.03  -0.07   0.27    -0.03   0.11  -0.11
   7   6    -0.07  -0.01   0.03     0.03  -0.07   0.28    -0.05   0.13  -0.23
   8   6    -0.07   0.00   0.03     0.01  -0.05   0.18    -0.05   0.10  -0.18
   9   6    -0.06  -0.00   0.04    -0.01  -0.02   0.10    -0.05   0.08  -0.11
  10   6    -0.05   0.00   0.04    -0.04   0.00   0.01    -0.08   0.07  -0.15
  11   6    -0.03  -0.02   0.11    -0.07   0.04  -0.12    -0.10   0.08  -0.14
  12   6    -0.01  -0.04   0.14    -0.08   0.05  -0.13    -0.08   0.06  -0.03
  13   6    -0.03  -0.03   0.10    -0.05   0.02  -0.02    -0.04   0.05   0.06
  14   6    -0.05  -0.02   0.05    -0.01  -0.02   0.10    -0.03   0.07  -0.00
  15   6    -0.08   0.02   0.02    -0.01  -0.03   0.11    -0.03   0.06  -0.13
  16   6    -0.08   0.01   0.04    -0.01  -0.03   0.12     0.00   0.04  -0.09
  17   6    -0.10   0.04  -0.01    -0.03  -0.01   0.02     0.05  -0.04   0.08
  18   6    -0.11   0.06  -0.08    -0.05   0.01  -0.07     0.06  -0.09   0.19
  19   6    -0.10   0.07  -0.09    -0.05   0.01  -0.05     0.02  -0.06   0.10
  20   6    -0.11   0.09  -0.16    -0.07   0.03  -0.11     0.02  -0.09   0.17
  21   6    -0.10   0.09  -0.17    -0.06   0.01  -0.07    -0.04  -0.05   0.04
  22   6    -0.08   0.06  -0.10    -0.05   0.00  -0.01    -0.08   0.02  -0.11
  23   6    -0.07   0.03  -0.03    -0.04  -0.00   0.01    -0.07   0.04  -0.13
  24   6    -0.08   0.04  -0.03    -0.03  -0.01   0.03    -0.03   0.02  -0.06
  25  17     0.66  -0.24   0.20    -0.01   0.21  -0.54     0.03  -0.02   0.12
  26   1     0.02  -0.05   0.00     0.12   0.09   0.04     0.13   0.07   0.07
  27   1     0.08   0.03  -0.01     0.09  -0.07   0.02     0.11  -0.06   0.04
  28   1     0.11  -0.02   0.04    -0.01   0.04  -0.07    -0.01   0.02   0.01
  29   1     0.07   0.04  -0.05     0.03  -0.10  -0.03     0.01  -0.17  -0.02
  30   1     0.01   0.03  -0.06     0.12  -0.07   0.01     0.14  -0.13   0.02
  31   1    -0.02  -0.00   0.00     0.03  -0.00  -0.03    -0.05  -0.03  -0.00
  32   1    -0.02  -0.02  -0.05     0.00   0.02  -0.03    -0.02  -0.07  -0.02
  33   1    -0.02  -0.00   0.00     0.01  -0.03   0.10    -0.01   0.04  -0.04
  34   1    -0.02  -0.00   0.01     0.02  -0.03   0.10    -0.02   0.05  -0.10
  35   1    -0.00  -0.01   0.04    -0.03   0.02  -0.06    -0.04   0.02  -0.06
  36   1     0.00  -0.02   0.06    -0.03   0.02  -0.07    -0.03   0.02  -0.00
  37   1    -0.01  -0.01   0.03    -0.01   0.01  -0.01    -0.01   0.01   0.05
  38   1    -0.02  -0.00   0.02     0.00  -0.01   0.05     0.00   0.02  -0.05
  39   1    -0.03   0.01   0.00    -0.01  -0.00   0.00     0.02  -0.02   0.04
  40   1    -0.03   0.02  -0.04    -0.02   0.01  -0.04     0.03  -0.04   0.10
  41   1    -0.04   0.03  -0.06    -0.02   0.01  -0.05     0.02  -0.04   0.09
  42   1    -0.03   0.03  -0.07    -0.02   0.01  -0.03    -0.01  -0.02   0.02
  43   1    -0.02   0.02  -0.03    -0.01  -0.00   0.01    -0.03   0.01  -0.06
                      7                      8                      9
                        a                      a                      a 
 Frequencies --    72.4041                93.8851               132.7016
 Red. masses --    19.5343                10.5754                 9.9369
 Frc consts  --     0.0000                 0.0000                 0.0000
 IR Inten    --    17.5677                 2.9790                 1.2244
 Raman Activ --     0.0000                 0.0000                 0.0000
 Depolar     --     0.0000                 0.0000                 0.0000
 Atom AN      X      Y      Z        X      Y      Z        X      Y      Z
   1   7     0.20  -0.13  -0.17    -0.06   0.09   0.11     0.04  -0.09  -0.05
   2   6     0.15  -0.20  -0.23    -0.05  -0.07   0.10     0.01   0.17  -0.07
   3   6     0.05   0.06  -0.27    -0.11  -0.18   0.14     0.07   0.12  -0.06
   4   8    -0.01   0.13  -0.08     0.02  -0.07   0.08    -0.02   0.01  -0.08
   5   6     0.00   0.07  -0.02    -0.02   0.03  -0.06     0.02  -0.05   0.08
   6   6     0.01   0.07  -0.03    -0.06   0.09  -0.24     0.00  -0.03  -0.00
   7   6     0.03   0.03   0.02    -0.06   0.09  -0.24    -0.01  -0.01  -0.03
   8   6     0.04   0.00   0.08     0.00   0.02   0.01    -0.01  -0.01  -0.04
   9   6     0.02   0.00   0.08     0.01   0.01   0.04    -0.00  -0.02  -0.00
  10   6     0.01  -0.02   0.11     0.02  -0.00   0.07    -0.04   0.04  -0.20
  11   6    -0.02  -0.01   0.09    -0.02   0.04  -0.08    -0.08   0.09  -0.36
  12   6    -0.04   0.03   0.03    -0.04   0.07  -0.17     0.03  -0.05   0.10
  13   6    -0.04   0.06  -0.01    -0.02   0.05  -0.11     0.11  -0.16   0.45
  14   6    -0.00   0.04   0.03    -0.00   0.03  -0.02     0.04  -0.08   0.19
  15   6     0.04  -0.02   0.05     0.03  -0.01   0.10    -0.03   0.01  -0.08
  16   6     0.07  -0.03   0.05     0.10  -0.09   0.33     0.01  -0.05   0.14
  17   6     0.04  -0.01  -0.09     0.06  -0.04   0.16     0.01  -0.03   0.13
  18   6    -0.00   0.01  -0.22    -0.03   0.06  -0.20    -0.03   0.02  -0.05
  19   6    -0.01  -0.01  -0.13    -0.04   0.06  -0.18    -0.04   0.05  -0.13
  20   6    -0.03  -0.02  -0.16    -0.05   0.06  -0.22     0.00   0.01   0.01
  21   6    -0.02  -0.06   0.00     0.02  -0.03   0.10     0.05  -0.05   0.21
  22   6     0.00  -0.08   0.14     0.06  -0.08   0.29     0.03  -0.03   0.11
  23   6     0.01  -0.05   0.10     0.03  -0.02   0.11    -0.04   0.05  -0.17
  24   6     0.01  -0.02   0.00    -0.00   0.02  -0.02    -0.05   0.05  -0.19
  25  17    -0.35   0.11   0.48     0.15  -0.05  -0.08    -0.08   0.03   0.01
  26   1     0.06  -0.01  -0.03     0.00   0.04   0.02    -0.03  -0.06  -0.00
  27   1     0.08  -0.04  -0.05    -0.01   0.03   0.03     0.00  -0.03  -0.01
  28   1     0.02  -0.02  -0.03    -0.03   0.03   0.04     0.05  -0.04  -0.02
  29   1     0.02  -0.10  -0.10    -0.03  -0.03   0.04     0.05   0.10  -0.02
  30   1     0.08  -0.08  -0.03     0.01  -0.03   0.01    -0.06   0.07  -0.02
  31   1     0.03   0.02  -0.13    -0.09  -0.04   0.08     0.06   0.02  -0.02
  32   1     0.00   0.06  -0.09    -0.03  -0.11   0.04     0.02   0.07  -0.02
  33   1     0.00   0.03  -0.03    -0.02   0.04  -0.11    -0.00   0.00  -0.02
  34   1     0.01   0.01  -0.00    -0.03   0.05  -0.13    -0.01   0.00  -0.03
  35   1    -0.01  -0.01   0.03    -0.01   0.02  -0.05    -0.05   0.06  -0.22
  36   1    -0.02   0.01  -0.00    -0.02   0.03  -0.09     0.02  -0.02   0.05
  37   1    -0.02   0.03  -0.02    -0.01   0.02  -0.05     0.06  -0.08   0.23
  38   1     0.03  -0.01   0.04     0.05  -0.05   0.19     0.02  -0.03   0.10
  39   1     0.02  -0.00  -0.03     0.03  -0.02   0.08     0.01  -0.02   0.08
  40   1    -0.01   0.01  -0.10    -0.02   0.03  -0.11    -0.01   0.01  -0.01
  41   1    -0.02  -0.00  -0.08    -0.03   0.03  -0.12     0.00   0.00   0.02
  42   1    -0.01  -0.02   0.00     0.01  -0.02   0.06     0.03  -0.03   0.13
  43   1     0.00  -0.03   0.08     0.04  -0.05   0.17     0.03  -0.03   0.09
                     10                     11                     12
                        a                      a                      a 
 Frequencies --   147.4332               163.9462               183.7354
 Red. masses --    11.2498                 9.9333                 9.7725
 Frc consts  --     0.0000                 0.0000                 0.0000
 IR Inten    --    28.0427                 1.7313                 5.3393
 Raman Activ --     0.0000                 0.0000                 0.0000
 Depolar     --     0.0000                 0.0000                 0.0000
 Atom AN      X      Y      Z        X      Y      Z        X      Y      Z
   1   7    -0.39   0.28  -0.31    -0.07   0.08  -0.06     0.06  -0.06   0.09
   2   6    -0.16  -0.35  -0.01     0.02  -0.11   0.07    -0.02   0.01  -0.05
   3   6    -0.02  -0.11  -0.10     0.10   0.18  -0.01    -0.13  -0.20   0.03
   4   8     0.02  -0.01  -0.03    -0.03   0.12   0.14     0.01  -0.11  -0.10
   5   6     0.01   0.02   0.02     0.01  -0.02  -0.01    -0.03   0.05  -0.09
   6   6     0.00   0.02   0.04     0.07  -0.10   0.22    -0.02   0.01   0.06
   7   6     0.03  -0.00   0.13     0.02  -0.05   0.06     0.02  -0.02   0.21
   8   6     0.03   0.02   0.10    -0.06   0.01  -0.21     0.02   0.05   0.08
   9   6     0.02   0.03   0.07    -0.06   0.03  -0.27    -0.03   0.11  -0.13
  10   6    -0.01   0.05  -0.03    -0.01  -0.01  -0.10    -0.05   0.10  -0.14
  11   6    -0.04   0.08  -0.11     0.07  -0.11   0.22     0.01   0.03   0.11
  12   6     0.00   0.03   0.05     0.05  -0.09   0.14     0.03   0.00   0.17
  13   6     0.04  -0.01   0.19    -0.03  -0.00  -0.17    -0.01   0.08  -0.06
  14   6     0.03   0.01   0.10    -0.06   0.02  -0.24    -0.02   0.10  -0.16
  15   6     0.03   0.02   0.04    -0.06   0.03  -0.19     0.05   0.01   0.12
  16   6     0.04   0.03  -0.02    -0.04  -0.04   0.08     0.14  -0.04   0.25
  17   6     0.04   0.02  -0.09    -0.01  -0.05   0.23     0.07   0.02  -0.12
  18   6     0.03  -0.00  -0.05    -0.04   0.02   0.03     0.00   0.04  -0.31
  19   6     0.02  -0.01   0.00    -0.06   0.07  -0.17     0.01  -0.01  -0.07
  20   6     0.02  -0.04   0.04    -0.02   0.06  -0.06     0.06  -0.14   0.26
  21   6    -0.01  -0.03   0.02     0.06  -0.01   0.16     0.02  -0.12   0.20
  22   6    -0.03   0.02  -0.04     0.07  -0.04   0.15    -0.09   0.05  -0.20
  23   6    -0.01   0.03  -0.03    -0.01   0.01  -0.10    -0.06   0.08  -0.18
  24   6     0.01   0.02   0.01    -0.06   0.06  -0.23    -0.01   0.04  -0.06
  25  17     0.24  -0.08   0.08     0.07  -0.03   0.03    -0.03   0.01  -0.03
  26   1    -0.01   0.13  -0.17     0.04   0.08  -0.01    -0.01  -0.04   0.03
  27   1    -0.13   0.11  -0.09    -0.03  -0.02  -0.00     0.03   0.00   0.01
  28   1    -0.18   0.11  -0.05    -0.07   0.04  -0.06     0.04  -0.03   0.05
  29   1    -0.18  -0.22   0.03    -0.05  -0.10   0.01     0.03   0.04  -0.01
  30   1     0.10  -0.17   0.04     0.07  -0.06   0.08    -0.04   0.02  -0.06
  31   1    -0.00  -0.02  -0.09     0.09   0.04  -0.08    -0.09  -0.05   0.07
  32   1     0.01  -0.00  -0.00     0.03   0.13   0.01    -0.04  -0.14  -0.01
  33   1    -0.01   0.01  -0.00     0.04  -0.07   0.16    -0.01  -0.01   0.04
  34   1     0.01  -0.00   0.05     0.02  -0.03   0.07     0.01  -0.02   0.12
  35   1    -0.02   0.04  -0.08     0.04  -0.06   0.15     0.01  -0.01   0.08
  36   1    -0.00   0.01   0.02     0.03  -0.04   0.10     0.02  -0.02   0.11
  37   1     0.02  -0.01   0.08    -0.01   0.00  -0.07    -0.00   0.03  -0.02
  38   1     0.01   0.01  -0.01    -0.00  -0.03   0.06     0.07  -0.03   0.16
  39   1     0.01   0.01  -0.04     0.01  -0.04   0.15     0.02   0.01  -0.06
  40   1     0.01  -0.00  -0.02    -0.01   0.01   0.03    -0.01   0.02  -0.16
  41   1     0.01  -0.02   0.02    -0.01   0.02  -0.02     0.04  -0.07   0.15
  42   1    -0.00  -0.01   0.01     0.03  -0.01   0.10     0.01  -0.06   0.12
  43   1    -0.02   0.01  -0.02     0.04  -0.03   0.10    -0.05   0.04  -0.12
                     13                     14                     15
                        a                      a                      a 
 Frequencies --   192.4539               229.2053               257.1559
 Red. masses --     9.8798                 8.2809                 8.2387
 Frc consts  --     0.0000                 0.0000                 0.0000
 IR Inten    --     1.1871                19.5389                 3.6340
 Raman Activ --     0.0000                 0.0000                 0.0000
 Depolar     --     0.0000                 0.0000                 0.0000
 Atom AN      X      Y      Z        X      Y      Z        X      Y      Z
   1   7    -0.01   0.05   0.04     0.04   0.02   0.32     0.03  -0.05  -0.09
   2   6     0.04  -0.03   0.10    -0.13  -0.06   0.01     0.08  -0.05   0.02
   3   6     0.10   0.29   0.00    -0.22   0.07  -0.02     0.00  -0.10   0.06
   4   8    -0.05   0.23   0.16    -0.10   0.12  -0.20     0.11   0.11   0.18
   5   6     0.02  -0.01  -0.02    -0.07   0.09  -0.23     0.04   0.15  -0.12
   6   6     0.03   0.03  -0.19    -0.01   0.04  -0.10     0.07   0.12  -0.07
   7   6     0.02  -0.02  -0.20     0.07  -0.09   0.22     0.14  -0.04   0.10
   8   6     0.02  -0.14   0.02     0.03  -0.05   0.07     0.04  -0.08  -0.01
   9   6     0.01  -0.13   0.02    -0.02   0.01  -0.13    -0.01  -0.00  -0.22
  10   6     0.02  -0.10  -0.02     0.00   0.02  -0.11    -0.03  -0.06  -0.18
  11   6     0.01  -0.09  -0.04    -0.01   0.03  -0.15    -0.14  -0.05  -0.11
  12   6    -0.00  -0.07  -0.05     0.05  -0.04   0.10    -0.13  -0.01   0.15
  13   6    -0.02  -0.08  -0.03     0.04  -0.05   0.11    -0.09   0.06   0.11
  14   6    -0.02  -0.09   0.00    -0.05   0.04  -0.16    -0.03   0.11  -0.17
  15   6     0.01  -0.13   0.15     0.04  -0.05   0.08     0.04  -0.13   0.10
  16   6    -0.08  -0.12   0.20    -0.02   0.00  -0.09    -0.10  -0.08   0.01
  17   6    -0.20   0.07  -0.13    -0.01   0.01  -0.04    -0.15   0.03  -0.00
  18   6    -0.17   0.14  -0.20     0.02  -0.01   0.07    -0.10   0.04   0.07
  19   6    -0.02   0.03   0.08     0.04  -0.00   0.04    -0.01   0.01   0.10
  20   6     0.07   0.04   0.25     0.01   0.06  -0.14     0.01   0.13  -0.08
  21   6     0.08   0.08   0.05     0.04   0.03  -0.05     0.08   0.09  -0.02
  22   6     0.04   0.08  -0.23     0.08  -0.03   0.11     0.13  -0.05   0.07
  23   6     0.02  -0.04  -0.05     0.05  -0.03   0.05     0.05  -0.11   0.02
  24   6     0.02  -0.07   0.09     0.05  -0.04   0.09     0.04  -0.12   0.13
  25  17     0.04  -0.02   0.03     0.04  -0.05   0.03    -0.03   0.04  -0.05
  26   1     0.05   0.10   0.05     0.09   0.23   0.31    -0.08  -0.25  -0.23
  27   1     0.01  -0.07   0.03     0.14  -0.25   0.14    -0.08   0.27  -0.09
  28   1    -0.06   0.04  -0.06    -0.14   0.07  -0.10     0.15  -0.08   0.20
  29   1    -0.03  -0.07  -0.00    -0.05  -0.07  -0.06     0.03   0.00   0.03
  30   1     0.06  -0.04   0.10     0.01  -0.04   0.03     0.01  -0.01  -0.02
  31   1     0.08   0.07  -0.08    -0.08   0.03  -0.01    -0.06  -0.01   0.04
  32   1     0.03   0.17   0.02    -0.04  -0.01   0.01    -0.01  -0.09  -0.00
  33   1     0.01   0.03  -0.08    -0.00   0.01  -0.03     0.03   0.04  -0.01
  34   1     0.00   0.01  -0.10     0.05  -0.06   0.16     0.08  -0.04   0.10
  35   1     0.00  -0.03  -0.02    -0.01   0.02  -0.07    -0.05  -0.03  -0.03
  36   1    -0.00  -0.02  -0.02     0.03  -0.03   0.08    -0.04  -0.02   0.11
  37   1    -0.01  -0.02  -0.02     0.03  -0.04   0.08    -0.02   0.02   0.10
  38   1    -0.02  -0.06   0.11    -0.02   0.01  -0.07    -0.05  -0.03  -0.04
  39   1    -0.09   0.04  -0.09    -0.01   0.01  -0.03    -0.07   0.02  -0.03
  40   1    -0.07   0.08  -0.13     0.01  -0.00   0.03    -0.04   0.03   0.01
  41   1     0.03   0.01   0.13    -0.01   0.04  -0.09    -0.02   0.07  -0.07
  42   1     0.04   0.03   0.02     0.01   0.02  -0.04     0.03   0.05  -0.03
  43   1     0.01   0.04  -0.15     0.03  -0.02   0.06     0.05  -0.02   0.02
                     16                     17                     18
                        a                      a                      a 
 Frequencies --   274.9949               293.5397               310.4479
 Red. masses --    10.6277                10.9466                 9.1892
 Frc consts  --     0.0000                 0.0000                 0.0000
 IR Inten    --     1.8619                 6.9894                 4.5369
 Raman Activ --     0.0000                 0.0000                 0.0000
 Depolar     --     0.0000                 0.0000                 0.0000
 Atom AN      X      Y      Z        X      Y      Z        X      Y      Z
   1   7    -0.01   0.01   0.07     0.02   0.01   0.10    -0.08  -0.04  -0.26
   2   6    -0.07  -0.03  -0.05    -0.09  -0.07  -0.09    -0.01   0.16  -0.13
   3   6    -0.10  -0.11  -0.02    -0.32   0.09  -0.08    -0.10  -0.15  -0.01
   4   8     0.09   0.02  -0.19    -0.40   0.22   0.27    -0.13  -0.07   0.22
   5   6     0.05   0.14   0.04    -0.21  -0.06   0.06    -0.09  -0.01   0.19
   6   6     0.06   0.14  -0.01    -0.08  -0.07   0.00    -0.02  -0.04   0.23
   7   6     0.13  -0.04   0.09    -0.05  -0.09   0.04    -0.06   0.01  -0.13
   8   6     0.08  -0.11   0.10     0.00  -0.06   0.06    -0.04   0.03  -0.17
   9   6     0.10  -0.13   0.21    -0.07  -0.05   0.10    -0.04   0.03  -0.11
  10   6     0.05  -0.14   0.08     0.04   0.05   0.05     0.02  -0.00  -0.02
  11   6    -0.11  -0.11   0.13     0.11   0.05   0.01    -0.09   0.02   0.01
  12   6    -0.22   0.09  -0.02     0.12   0.01  -0.05    -0.12   0.09   0.04
  13   6    -0.15   0.16  -0.01     0.02  -0.08  -0.04    -0.10   0.07   0.10
  14   6     0.06   0.04   0.21    -0.13  -0.06   0.09    -0.07   0.08   0.01
  15   6    -0.01  -0.07  -0.18     0.03  -0.04  -0.05     0.04  -0.08  -0.03
  16   6    -0.10  -0.07  -0.10     0.08  -0.05  -0.07     0.06  -0.10   0.04
  17   6    -0.10  -0.02   0.12     0.11  -0.05  -0.01     0.02  -0.02  -0.04
  18   6    -0.07   0.03   0.10     0.15  -0.01   0.00     0.04   0.04  -0.09
  19   6    -0.04   0.08  -0.17     0.13   0.02  -0.08     0.11  -0.01   0.08
  20   6     0.09   0.10   0.08     0.16   0.02  -0.02     0.16   0.08  -0.00
  21   6     0.16   0.07   0.09     0.14   0.02  -0.00     0.17   0.10  -0.08
  22   6     0.14   0.01  -0.13     0.11   0.06  -0.05     0.19   0.01  -0.00
  23   6     0.03  -0.07  -0.20     0.07   0.04  -0.06     0.12  -0.09   0.07
  24   6    -0.03  -0.01  -0.31     0.09   0.04  -0.10     0.12  -0.08   0.10
  25  17     0.01  -0.01   0.00    -0.01   0.03  -0.05     0.01  -0.03   0.06
  26   1     0.00   0.05   0.07    -0.08  -0.16  -0.08     0.05   0.16   0.07
  27   1     0.04  -0.05   0.03     0.01   0.21  -0.03    -0.01  -0.25  -0.00
  28   1    -0.03   0.02  -0.01     0.10  -0.04   0.22    -0.10   0.03  -0.28
  29   1    -0.01  -0.00  -0.02    -0.03  -0.05  -0.07     0.04   0.12   0.00
  30   1    -0.02  -0.01  -0.04     0.00  -0.03  -0.03    -0.08   0.08  -0.10
  31   1    -0.09  -0.02   0.03    -0.11   0.04  -0.04    -0.07  -0.04   0.07
  32   1    -0.01  -0.11   0.00    -0.11   0.02  -0.05    -0.06  -0.10  -0.06
  33   1     0.02   0.08  -0.07    -0.02  -0.00  -0.02     0.01  -0.02   0.12
  34   1     0.05  -0.01  -0.00    -0.02  -0.02   0.01    -0.02   0.01  -0.06
  35   1    -0.05  -0.05   0.03     0.04   0.02  -0.00    -0.04  -0.01   0.01
  36   1    -0.10   0.05  -0.06     0.05   0.00  -0.04    -0.04   0.02   0.02
  37   1    -0.06   0.09  -0.06     0.01  -0.05  -0.04    -0.03   0.02   0.06
  38   1    -0.04  -0.04  -0.01     0.03  -0.01  -0.02     0.01  -0.04   0.02
  39   1    -0.03  -0.02   0.10     0.03  -0.02   0.02    -0.01   0.00  -0.03
  40   1    -0.01   0.00   0.10     0.05  -0.00   0.03    -0.00   0.04  -0.07
  41   1     0.04   0.03   0.09     0.05   0.00   0.02     0.04   0.04  -0.02
  42   1     0.08   0.02   0.09     0.04  -0.01   0.02     0.04   0.04  -0.06
  43   1     0.06  -0.01  -0.02     0.04   0.01  -0.01     0.06   0.01  -0.03
                     19                     20                     21
                        a                      a                      a 
 Frequencies --   330.7843               351.0861               381.3563
 Red. masses --    10.2369                11.2750                10.6090
 Frc consts  --     0.0000                 0.0000                 0.0000
 IR Inten    --     9.6942                 0.2045                 0.9610
 Raman Activ --     0.0000                 0.0000                 0.0000
 Depolar     --     0.0000                 0.0000                 0.0000
 Atom AN      X      Y      Z        X      Y      Z        X      Y      Z
   1   7    -0.04  -0.07  -0.33    -0.01  -0.00  -0.02     0.02   0.01   0.00
   2   6     0.13   0.16  -0.01    -0.00   0.01  -0.01     0.09   0.00   0.12
   3   6    -0.01  -0.08   0.11    -0.02  -0.01   0.00     0.21   0.09   0.04
   4   8    -0.01   0.12   0.41     0.04   0.07   0.02    -0.04  -0.28  -0.08
   5   6    -0.00   0.02  -0.11     0.02   0.11   0.04    -0.09  -0.11   0.05
   6   6     0.01   0.07  -0.29    -0.08   0.14   0.09    -0.24  -0.02  -0.14
   7   6     0.09  -0.05   0.16    -0.10   0.16   0.06    -0.22   0.01  -0.01
   8   6     0.07  -0.09   0.23    -0.13   0.10   0.04    -0.06   0.01   0.25
   9   6    -0.01  -0.04   0.07     0.03   0.12   0.03    -0.03   0.06   0.07
  10   6    -0.02   0.02  -0.03     0.11   0.16   0.03    -0.04   0.14  -0.15
  11   6     0.09  -0.02   0.01     0.26   0.18  -0.02    -0.10   0.12   0.06
  12   6     0.11  -0.07   0.01     0.30   0.16  -0.02    -0.08   0.05   0.19
  13   6     0.05  -0.07  -0.10     0.24   0.10  -0.02    -0.15   0.10  -0.11
  14   6    -0.02  -0.05  -0.02     0.05   0.13   0.03    -0.04   0.04  -0.01
  15   6     0.01   0.01   0.08    -0.12  -0.16  -0.03     0.01  -0.10   0.18
  16   6    -0.03   0.06  -0.09    -0.24  -0.18   0.01     0.02  -0.06  -0.06
  17   6    -0.00   0.02  -0.01    -0.27  -0.18   0.02     0.02  -0.05  -0.15
  18   6     0.02  -0.03   0.11    -0.22  -0.12   0.00     0.10  -0.10   0.12
  19   6    -0.04   0.04  -0.10    -0.06  -0.14  -0.03     0.05  -0.04  -0.03
  20   6    -0.07  -0.02  -0.06    -0.02  -0.12  -0.02     0.10   0.08  -0.16
  21   6    -0.07  -0.05   0.10     0.08  -0.15  -0.07     0.20   0.00   0.08
  22   6    -0.10   0.01   0.01     0.09  -0.15  -0.07     0.16   0.02   0.00
  23   6    -0.08   0.09  -0.10     0.12  -0.09  -0.05     0.03   0.03  -0.22
  24   6    -0.04   0.07  -0.10    -0.04  -0.12  -0.02     0.02  -0.03  -0.02
  25  17    -0.00  -0.02   0.05    -0.00  -0.00   0.00     0.00   0.00  -0.00
  26   1     0.06   0.09  -0.04    -0.00   0.00  -0.00     0.02   0.00  -0.02
  27   1    -0.07  -0.19  -0.03    -0.00  -0.01  -0.00    -0.02   0.00   0.00
  28   1    -0.05  -0.00  -0.26    -0.00  -0.00  -0.01     0.00   0.00  -0.01
  29   1     0.07   0.11   0.04     0.00   0.01   0.00     0.01  -0.02   0.03
  30   1    -0.04   0.08  -0.04    -0.01   0.01  -0.01     0.04  -0.01   0.07
  31   1    -0.08  -0.01   0.11    -0.03   0.00   0.01     0.18  -0.01  -0.04
  32   1    -0.04  -0.11  -0.04    -0.01  -0.03  -0.00     0.06   0.16   0.03
  33   1    -0.01   0.05  -0.15    -0.04   0.02   0.03    -0.07   0.01  -0.07
  34   1     0.04  -0.03   0.08    -0.03   0.05   0.01    -0.09   0.02  -0.04
  35   1     0.03   0.01   0.00     0.09   0.07  -0.01    -0.03   0.03   0.03
  36   1     0.04  -0.02   0.01     0.09   0.04  -0.01     0.00  -0.00   0.10
  37   1     0.01  -0.03  -0.07     0.08  -0.01  -0.02    -0.05   0.05  -0.06
  38   1    -0.01   0.03  -0.05    -0.08  -0.06   0.00     0.00  -0.01  -0.04
  39   1     0.01   0.00   0.01    -0.08  -0.05   0.01    -0.01  -0.00  -0.08
  40   1     0.02  -0.03   0.09    -0.07  -0.00   0.01     0.04  -0.04   0.08
  41   1    -0.01  -0.02  -0.01    -0.01  -0.02   0.00     0.01   0.06  -0.08
  42   1    -0.01  -0.04   0.08     0.03  -0.03  -0.02     0.07  -0.01   0.07
  43   1    -0.03  -0.00   0.03     0.03  -0.04  -0.02     0.06  -0.01   0.03
                     22                     23                     24
                        a                      a                      a 
 Frequencies --   405.6053               423.3914               429.3242
 Red. masses --     9.8944                 9.5914                10.2128
 Frc consts  --     0.0000                 0.0000                 0.0000
 IR Inten    --     0.9735                 0.3809                 0.6915
 Raman Activ --     0.0000                 0.0000                 0.0000
 Depolar     --     0.0000                 0.0000                 0.0000
 Atom AN      X      Y      Z        X      Y      Z        X      Y      Z
   1   7    -0.03   0.02   0.06     0.02  -0.02  -0.05    -0.01   0.02   0.04
   2   6    -0.13  -0.01  -0.13     0.07   0.01   0.07    -0.04  -0.01  -0.03
   3   6    -0.11  -0.06  -0.10     0.02   0.03   0.07     0.03  -0.01  -0.05
   4   8     0.01   0.10   0.00     0.01   0.00  -0.00    -0.03  -0.09  -0.03
   5   6     0.07   0.02   0.19    -0.03   0.02  -0.15    -0.01  -0.05   0.20
   6   6     0.16  -0.01   0.25    -0.06   0.00  -0.07     0.04   0.03  -0.19
   7   6     0.07   0.07  -0.27    -0.04  -0.01   0.14     0.13  -0.13   0.09
   8   6     0.11  -0.08   0.08    -0.05   0.03   0.02     0.05  -0.05  -0.16
   9   6     0.08  -0.09   0.13    -0.01   0.01   0.03    -0.10   0.06  -0.25
  10   6    -0.03  -0.02  -0.19     0.02  -0.02   0.12    -0.03   0.14  -0.16
  11   6     0.05  -0.07  -0.10    -0.03   0.02   0.00     0.07   0.03   0.25
  12   6     0.11  -0.10   0.20    -0.03  -0.01  -0.02    -0.03   0.15  -0.18
  13   6     0.03   0.07  -0.21    -0.02  -0.03   0.03    -0.02   0.00   0.09
  14   6     0.03   0.02  -0.01    -0.02  -0.01  -0.05     0.01  -0.07   0.28
  15   6     0.06  -0.02   0.12    -0.08   0.06  -0.18     0.08  -0.08  -0.03
  16   6     0.01   0.00   0.13     0.08  -0.07   0.22    -0.09  -0.09   0.12
  17   6    -0.09   0.13  -0.22    -0.02   0.04  -0.26    -0.18   0.05  -0.06
  18   6     0.00  -0.01   0.21     0.04  -0.07   0.07     0.00   0.13   0.10
  19   6     0.01  -0.01   0.16     0.01  -0.08   0.18     0.24   0.04   0.11
  20   6    -0.10   0.01  -0.09     0.07  -0.04   0.24     0.05  -0.10  -0.10
  21   6    -0.10  -0.02   0.00    -0.02   0.14  -0.36    -0.13  -0.10  -0.01
  22   6    -0.05  -0.07   0.13     0.11  -0.05   0.24    -0.12  -0.06   0.12
  23   6    -0.09   0.07  -0.23     0.01  -0.01  -0.01    -0.02   0.13  -0.08
  24   6    -0.02   0.03  -0.07    -0.12   0.10  -0.37     0.18   0.06  -0.04
  25  17    -0.00  -0.00  -0.00    -0.00   0.00   0.00     0.00   0.00  -0.00
  26   1    -0.03   0.01   0.06     0.02  -0.01  -0.04    -0.01   0.01   0.03
  27   1     0.05   0.01   0.01    -0.03  -0.01  -0.01     0.02   0.00   0.01
  28   1    -0.02   0.01   0.04     0.01  -0.01  -0.03    -0.01   0.01   0.02
  29   1    -0.02   0.02  -0.03     0.01  -0.01   0.01    -0.01   0.01  -0.00
  30   1    -0.05   0.00  -0.07     0.03  -0.00   0.04    -0.02   0.00  -0.02
  31   1    -0.07  -0.01  -0.02     0.00   0.01   0.03     0.05  -0.01  -0.03
  32   1    -0.02  -0.06  -0.02     0.00  -0.00   0.01     0.01   0.04  -0.00
  33   1     0.05   0.00   0.07    -0.03  -0.01  -0.01     0.02   0.07  -0.14
  34   1    -0.00   0.06  -0.23    -0.01  -0.01   0.07     0.05  -0.06   0.09
  35   1     0.00  -0.01  -0.06    -0.01   0.02  -0.04     0.04  -0.04   0.19
  36   1     0.03  -0.05   0.13    -0.01   0.00  -0.03    -0.01   0.06  -0.13
  37   1    -0.00   0.03  -0.11    -0.01  -0.01   0.01    -0.01  -0.01   0.00
  38   1     0.01  -0.02   0.08     0.07  -0.06   0.23    -0.04  -0.05   0.04
  39   1    -0.05   0.06  -0.16    -0.01   0.03  -0.14    -0.10   0.04  -0.07
  40   1     0.01  -0.01   0.08     0.02  -0.04   0.04    -0.02   0.10   0.03
  41   1    -0.03   0.00  -0.07     0.03  -0.01   0.13     0.02  -0.07  -0.10
  42   1    -0.03  -0.00   0.00    -0.03   0.07  -0.21    -0.06  -0.04  -0.03
  43   1     0.00  -0.04   0.12     0.07  -0.06   0.21    -0.05  -0.02   0.06
                     25                     26                     27
                        a                      a                      a 
 Frequencies --   434.9812               474.0908               492.2380
 Red. masses --    10.4559                11.3954                 9.6497
 Frc consts  --     0.0000                 0.0000                 0.0000
 IR Inten    --     1.1072                 4.5465                12.1297
 Raman Activ --     0.0000                 0.0000                 0.0000
 Depolar     --     0.0000                 0.0000                 0.0000
 Atom AN      X      Y      Z        X      Y      Z        X      Y      Z
   1   7    -0.02   0.02   0.04    -0.00   0.02   0.03     0.06  -0.06  -0.13
   2   6    -0.07   0.00  -0.07    -0.03   0.01  -0.03     0.18   0.01   0.16
   3   6    -0.03  -0.00  -0.06     0.01   0.03  -0.05    -0.16   0.13   0.18
   4   8    -0.00   0.06   0.06    -0.22  -0.17   0.18    -0.08   0.06  -0.20
   5   6     0.05  -0.00   0.16    -0.15  -0.09   0.02    -0.09   0.04  -0.18
   6   6    -0.08   0.10  -0.07    -0.13  -0.09  -0.11    -0.03  -0.09   0.18
   7   6    -0.04   0.05   0.12    -0.05  -0.25  -0.03    -0.07  -0.06  -0.13
   8   6    -0.07   0.10  -0.05     0.16  -0.03   0.04    -0.01   0.00  -0.11
   9   6     0.04   0.06  -0.21     0.24  -0.00  -0.06     0.05  -0.03  -0.04
  10   6    -0.03  -0.10  -0.19     0.15  -0.15  -0.02     0.09  -0.10   0.15
  11   6     0.10  -0.23   0.12     0.03  -0.11  -0.09     0.05  -0.09   0.10
  12   6    -0.00  -0.04  -0.21    -0.02   0.14   0.08    -0.06   0.10  -0.18
  13   6     0.15   0.00   0.04     0.12   0.30   0.04     0.07   0.00   0.23
  14   6     0.12  -0.03   0.22     0.14   0.25  -0.07     0.02   0.06  -0.04
  15   6    -0.06   0.10   0.10     0.08   0.15   0.01     0.04   0.00   0.18
  16   6     0.16   0.08   0.05    -0.03   0.21   0.03     0.00   0.04   0.13
  17   6     0.18   0.01  -0.10    -0.02   0.19   0.09    -0.05   0.09  -0.18
  18   6    -0.01  -0.20  -0.01    -0.12   0.08   0.03     0.03  -0.04   0.21
  19   6    -0.27  -0.12   0.12    -0.05   0.03  -0.04     0.01   0.01  -0.05
  20   6    -0.15   0.16  -0.02    -0.11  -0.14   0.07    -0.05  -0.00  -0.19
  21   6     0.14   0.10   0.06    -0.04  -0.14  -0.11     0.05  -0.11   0.15
  22   6     0.15   0.01   0.00     0.01  -0.20  -0.04    -0.03   0.01  -0.13
  23   6    -0.04  -0.10  -0.13     0.12  -0.09   0.03     0.01   0.05  -0.11
  24   6    -0.24  -0.09   0.08    -0.02   0.02  -0.05     0.00   0.04  -0.02
  25  17     0.00   0.00  -0.00     0.00   0.00  -0.00    -0.00  -0.00   0.01
  26   1    -0.02   0.01   0.03    -0.01   0.00   0.02     0.04  -0.03  -0.11
  27   1     0.03   0.00   0.00     0.02   0.01   0.00    -0.10  -0.02  -0.02
  28   1    -0.01   0.01   0.02    -0.00   0.01   0.02     0.03  -0.02  -0.08
  29   1    -0.01   0.02  -0.01     0.00   0.02  -0.00     0.00  -0.09  -0.02
  30   1    -0.03   0.01  -0.04    -0.02   0.01  -0.02     0.12  -0.04   0.13
  31   1    -0.02   0.00  -0.04     0.10  -0.02  -0.07    -0.12   0.05   0.15
  32   1    -0.00   0.00  -0.01    -0.01   0.13  -0.01    -0.06  -0.09   0.01
  33   1    -0.04   0.04  -0.08    -0.00   0.01  -0.03     0.01  -0.05   0.14
  34   1     0.01  -0.00   0.07    -0.03  -0.07   0.01    -0.01  -0.02  -0.01
  35   1     0.06  -0.09   0.13    -0.04  -0.07  -0.04    -0.01  -0.03   0.01
  36   1    -0.05   0.01  -0.11    -0.07   0.05   0.06    -0.05   0.06  -0.13
  37   1     0.04   0.01   0.00     0.03   0.11   0.04     0.02   0.00   0.09
  38   1     0.06   0.05   0.00    -0.03   0.03   0.02    -0.00   0.01   0.04
  39   1     0.08   0.01  -0.08     0.03   0.04   0.04    -0.02   0.05  -0.13
  40   1     0.01  -0.13  -0.05    -0.03   0.01   0.02     0.02  -0.02   0.11
  41   1    -0.08   0.13  -0.02    -0.02  -0.06   0.05    -0.01  -0.00  -0.06
  42   1     0.07   0.06   0.02     0.01  -0.01  -0.04     0.03  -0.06   0.12
  43   1     0.07  -0.00  -0.01    -0.02  -0.05   0.00    -0.02   0.00  -0.02
                     28                     29                     30
                        a                      a                      a 
 Frequencies --   495.4622               501.5086               516.2798
 Red. masses --    10.2444                11.2748                10.7566
 Frc consts  --     0.0000                 0.0000                 0.0000
 IR Inten    --    11.8296                 0.2585                 4.6099
 Raman Activ --     0.0000                 0.0000                 0.0000
 Depolar     --     0.0000                 0.0000                 0.0000
 Atom AN      X      Y      Z        X      Y      Z        X      Y      Z
   1   7     0.05  -0.05  -0.13     0.01  -0.01  -0.02     0.02  -0.03  -0.05
   2   6     0.19   0.01   0.17     0.04   0.00   0.04     0.06   0.01   0.04
   3   6    -0.12   0.13   0.18    -0.02   0.03   0.03    -0.15   0.09   0.07
   4   8    -0.08  -0.03  -0.29    -0.06  -0.06  -0.04    -0.04   0.15  -0.04
   5   6    -0.11   0.09   0.18    -0.05  -0.02  -0.00     0.08  -0.16  -0.11
   6   6    -0.10   0.12   0.02    -0.01  -0.01  -0.00     0.07  -0.20  -0.06
   7   6     0.01  -0.17   0.01    -0.01   0.07   0.02    -0.02   0.11   0.09
   8   6    -0.01  -0.14  -0.06     0.01   0.08   0.02     0.04   0.23  -0.02
   9   6    -0.01  -0.15   0.03    -0.05   0.10   0.03     0.09   0.12   0.14
  10   6    -0.03  -0.04  -0.23    -0.06   0.07   0.05    -0.03   0.13  -0.13
  11   6     0.13  -0.11  -0.12     0.03   0.07   0.02    -0.17   0.10   0.08
  12   6     0.14   0.04   0.16     0.07   0.00  -0.03    -0.11  -0.16   0.06
  13   6     0.05   0.15  -0.16     0.07  -0.01  -0.01    -0.10  -0.08  -0.11
  14   6    -0.05   0.07   0.21    -0.02   0.02  -0.00     0.15  -0.19   0.15
  15   6    -0.08   0.03  -0.15     0.11  -0.23  -0.08     0.06   0.16  -0.12
  16   6     0.02  -0.01  -0.07     0.24  -0.26  -0.13    -0.05   0.18   0.05
  17   6     0.08  -0.09   0.11     0.12   0.20   0.02    -0.04   0.15   0.15
  18   6     0.03   0.03  -0.18     0.15   0.25   0.05    -0.17   0.07  -0.06
  19   6     0.02  -0.03   0.13    -0.10   0.25   0.08     0.06  -0.08   0.17
  20   6    -0.00   0.01   0.07    -0.28   0.15   0.11    -0.00  -0.09  -0.06
  21   6    -0.06   0.06  -0.04    -0.21   0.12   0.09     0.12  -0.15  -0.07
  22   6    -0.03   0.05   0.12    -0.07  -0.32  -0.09     0.12  -0.20  -0.03
  23   6    -0.04   0.06   0.03     0.01  -0.25  -0.07     0.08  -0.08  -0.16
  24   6     0.00   0.01   0.12     0.05  -0.23  -0.09     0.05  -0.07   0.09
  25  17    -0.00  -0.00   0.01    -0.00  -0.00   0.00    -0.00  -0.00   0.00
  26   1     0.05  -0.02  -0.11     0.01  -0.01  -0.02     0.01  -0.01  -0.04
  27   1    -0.10  -0.02  -0.02    -0.02  -0.00  -0.00    -0.04  -0.01  -0.01
  28   1     0.03  -0.02  -0.09     0.01  -0.00  -0.02     0.01  -0.01  -0.03
  29   1    -0.00  -0.09  -0.01     0.00  -0.02  -0.00    -0.01  -0.05  -0.03
  30   1     0.13  -0.04   0.14     0.03  -0.01   0.03     0.05  -0.02   0.05
  31   1    -0.09   0.04   0.15     0.01   0.00   0.02    -0.13   0.04   0.08
  32   1    -0.05  -0.07   0.01    -0.01   0.01   0.00    -0.04  -0.09  -0.01
  33   1     0.00   0.11  -0.06    -0.00  -0.01   0.00    -0.03  -0.09  -0.04
  34   1     0.04  -0.05  -0.04    -0.02   0.02   0.02    -0.08   0.04   0.04
  35   1     0.02  -0.05  -0.03     0.03   0.04   0.01    -0.03   0.04   0.02
  36   1     0.01   0.01   0.10     0.03  -0.00  -0.01     0.01  -0.05  -0.00
  37   1     0.01   0.02  -0.11     0.02  -0.01  -0.00    -0.06   0.05  -0.09
  38   1     0.02   0.01  -0.03     0.02  -0.12  -0.04    -0.04   0.03   0.00
  39   1     0.02  -0.03   0.07    -0.05   0.07   0.03     0.02   0.04   0.03
  40   1    -0.00   0.02  -0.12     0.06   0.02   0.00    -0.07   0.05  -0.09
  41   1    -0.01   0.01  -0.02    -0.07   0.00   0.02    -0.02  -0.00  -0.08
  42   1    -0.04   0.03  -0.07     0.00   0.10   0.03     0.05  -0.01  -0.05
  43   1    -0.01   0.02   0.02     0.05  -0.10  -0.04     0.02  -0.05  -0.01
                     31                     32                     33
                        a                      a                      a 
 Frequencies --   551.4962               559.3204               576.5901
 Red. masses --    10.3487                11.2577                11.3687
 Frc consts  --     0.0000                 0.0000                 0.0000
 IR Inten    --     3.1374                 3.2339                 0.4030
 Raman Activ --     0.0000                 0.0000                 0.0000
 Depolar     --     0.0000                 0.0000                 0.0000
 Atom AN      X      Y      Z        X      Y      Z        X      Y      Z
   1   7     0.01  -0.02  -0.05     0.01  -0.01  -0.01     0.01  -0.00  -0.01
   2   6     0.05   0.01   0.04     0.02  -0.00   0.02     0.02   0.01   0.02
   3   6    -0.12   0.08   0.05    -0.04   0.01   0.02    -0.02   0.02   0.01
   4   8    -0.06  -0.00  -0.18    -0.15  -0.15  -0.01    -0.12  -0.12   0.02
   5   6     0.03  -0.09   0.32    -0.09  -0.10  -0.05    -0.09   0.00  -0.00
   6   6     0.10  -0.02   0.02     0.31  -0.20  -0.12    -0.03   0.03  -0.03
   7   6     0.06   0.12  -0.11     0.30  -0.15  -0.09    -0.01   0.14   0.09
   8   6     0.13  -0.01   0.29     0.23  -0.03  -0.13     0.09   0.23  -0.02
   9   6    -0.10   0.14  -0.23    -0.04   0.07   0.07     0.03   0.19   0.09
  10   6    -0.10   0.07  -0.12    -0.06   0.18   0.13    -0.24  -0.15   0.08
  11   6    -0.03   0.01   0.04     0.00   0.27   0.06    -0.04  -0.24  -0.09
  12   6    -0.02  -0.07  -0.11     0.07   0.20   0.07    -0.00  -0.27  -0.05
  13   6     0.02  -0.09   0.02    -0.03   0.08   0.01     0.30   0.10  -0.06
  14   6    -0.05  -0.02  -0.10    -0.04   0.04   0.01     0.08   0.14   0.01
  15   6     0.13  -0.02   0.22     0.10   0.00  -0.07     0.16  -0.04  -0.11
  16   6    -0.05   0.11  -0.08     0.02  -0.01   0.03    -0.03  -0.05   0.03
  17   6    -0.03   0.06   0.04    -0.01  -0.08  -0.05    -0.11   0.00   0.00
  18   6    -0.10  -0.04   0.03    -0.19  -0.25  -0.01    -0.11  -0.04   0.03
  19   6    -0.08   0.04  -0.32    -0.21  -0.17   0.04     0.17  -0.09  -0.02
  20   6     0.10  -0.07   0.17    -0.05   0.14   0.00     0.31   0.07  -0.10
  21   6     0.01   0.04  -0.19     0.01   0.15   0.09    -0.06   0.13   0.10
  22   6     0.05  -0.04   0.07    -0.01   0.12  -0.00    -0.12   0.15   0.03
  23   6     0.03  -0.11   0.19    -0.10  -0.02   0.01    -0.25  -0.08   0.03
  24   6    -0.02  -0.01  -0.12    -0.11  -0.11   0.01     0.11  -0.13  -0.06
  25  17    -0.00  -0.00   0.00    -0.00   0.00   0.00    -0.00  -0.00  -0.00
  26   1     0.01  -0.01  -0.04     0.01  -0.00  -0.01     0.01  -0.00  -0.01
  27   1    -0.04  -0.01  -0.01    -0.01  -0.00  -0.00    -0.01   0.00  -0.00
  28   1     0.02  -0.01  -0.03     0.00  -0.00  -0.01     0.00  -0.00  -0.01
  29   1    -0.02  -0.06  -0.03    -0.00  -0.02  -0.01     0.00  -0.01  -0.00
  30   1     0.06  -0.02   0.06     0.02  -0.01   0.02     0.01  -0.00   0.01
  31   1    -0.08   0.03   0.08     0.04  -0.01   0.02     0.05  -0.01  -0.01
  32   1    -0.04  -0.06  -0.01    -0.02   0.04  -0.01    -0.02   0.06  -0.00
  33   1     0.02   0.03  -0.09     0.14  -0.01  -0.03    -0.00   0.00   0.01
  34   1    -0.03   0.07  -0.13     0.06  -0.04  -0.00    -0.05   0.04   0.07
  35   1     0.04  -0.02   0.14     0.01   0.10  -0.01     0.03  -0.01  -0.05
  36   1     0.02  -0.04   0.03     0.05   0.05   0.00    -0.08  -0.06   0.00
  37   1     0.03  -0.05   0.11    -0.01   0.01  -0.01     0.07   0.07  -0.01
  38   1    -0.02   0.02  -0.02     0.00  -0.01   0.01    -0.04  -0.06   0.01
  39   1     0.03  -0.01   0.06     0.04  -0.03  -0.04    -0.02   0.00  -0.01
  40   1    -0.00  -0.04   0.11    -0.04  -0.12  -0.03    -0.04   0.03   0.01
  41   1     0.05  -0.04   0.16    -0.04   0.10   0.01     0.09  -0.01  -0.06
  42   1    -0.00   0.01  -0.07     0.00   0.04   0.03    -0.07  -0.03   0.03
  43   1     0.03  -0.01   0.02     0.03   0.03  -0.02     0.02   0.04  -0.01
                     34                     35                     36
                        a                      a                      a 
 Frequencies --   588.6451               608.2559               619.9976
 Red. masses --    10.5205                10.6704                 9.5329
 Frc consts  --     0.0000                 0.0000                 0.0000
 IR Inten    --     1.0022                 9.8213                 0.4074
 Raman Activ --     0.0000                 0.0000                 0.0000
 Depolar     --     0.0000                 0.0000                 0.0000
 Atom AN      X      Y      Z        X      Y      Z        X      Y      Z
   1   7    -0.00  -0.00   0.01     0.01   0.01  -0.00    -0.00   0.00  -0.00
   2   6    -0.01  -0.00  -0.01     0.02  -0.01   0.03     0.00   0.00   0.00
   3   6    -0.01   0.01  -0.01     0.08  -0.07   0.01     0.00   0.00  -0.00
   4   8     0.01   0.06   0.07    -0.07  -0.21  -0.03    -0.00  -0.01   0.00
   5   6     0.01  -0.04  -0.27    -0.17   0.22   0.00    -0.00  -0.00   0.04
   6   6     0.01  -0.17   0.09     0.04   0.25   0.08     0.01  -0.01   0.04
   7   6    -0.08  -0.01  -0.14     0.12   0.08  -0.03     0.00   0.01  -0.01
   8   6     0.05  -0.04   0.18     0.04  -0.04  -0.01     0.10  -0.13   0.42
   9   6     0.12   0.02   0.06    -0.19  -0.08   0.10     0.01  -0.02   0.06
  10   6    -0.02   0.04  -0.15    -0.06  -0.04   0.12    -0.03   0.04  -0.13
  11   6     0.02  -0.05   0.19     0.09  -0.05   0.04     0.03  -0.03   0.10
  12   6    -0.07   0.11  -0.14     0.07  -0.04  -0.11    -0.04   0.06  -0.19
  13   6     0.10   0.07   0.18    -0.03  -0.18   0.06     0.03  -0.05   0.15
  14   6     0.14   0.06  -0.05    -0.32   0.02  -0.09    -0.07   0.08  -0.29
  15   6     0.03  -0.13   0.17     0.10   0.08   0.10    -0.11   0.13  -0.43
  16   6    -0.05  -0.07  -0.22     0.01   0.22  -0.03    -0.00  -0.00   0.00
  17   6     0.03  -0.19   0.18     0.06   0.19   0.18    -0.00   0.00  -0.01
  18   6     0.00   0.02  -0.21    -0.14   0.06  -0.06    -0.01   0.02  -0.05
  19   6     0.02  -0.03   0.10     0.03  -0.08   0.14     0.07  -0.08   0.28
  20   6     0.04   0.02   0.14     0.04  -0.07  -0.02    -0.03   0.03  -0.13
  21   6    -0.13   0.14  -0.12     0.11  -0.09  -0.10     0.04  -0.05   0.17
  22   6    -0.03   0.04   0.23     0.10  -0.12   0.00    -0.02   0.02  -0.08
  23   6    -0.13   0.15  -0.31    -0.05  -0.02  -0.31     0.03  -0.03   0.10
  24   6     0.01  -0.00   0.01     0.00  -0.04  -0.01    -0.01   0.01  -0.02
  25  17    -0.00   0.00   0.00     0.00  -0.00  -0.00    -0.00  -0.00  -0.00
  26   1    -0.00   0.00   0.01     0.01   0.00  -0.01     0.00  -0.00  -0.00
  27   1     0.01  -0.00   0.00    -0.00   0.01  -0.00    -0.00   0.00  -0.00
  28   1    -0.00   0.00   0.00    -0.00   0.00   0.00     0.00  -0.00   0.00
  29   1     0.00   0.01  -0.00     0.02   0.02   0.03    -0.00   0.00   0.00
  30   1    -0.01   0.00  -0.01    -0.01   0.01  -0.01     0.00   0.00   0.00
  31   1    -0.02   0.01  -0.01     0.13  -0.05  -0.03     0.01  -0.00  -0.00
  32   1     0.00  -0.01  -0.00     0.01   0.10   0.01     0.00   0.01  -0.00
  33   1    -0.00  -0.09   0.09     0.07   0.10   0.08    -0.01   0.03  -0.06
  34   1    -0.05   0.01  -0.06     0.08   0.01   0.01    -0.05   0.06  -0.19
  35   1     0.00  -0.03   0.08     0.03   0.02  -0.04     0.04  -0.05   0.16
  36   1    -0.05   0.05  -0.08     0.03  -0.01  -0.07     0.01  -0.01   0.02
  37   1     0.02   0.06   0.06     0.01  -0.13  -0.01     0.04  -0.05   0.17
  38   1    -0.04   0.01  -0.16    -0.02   0.08  -0.09     0.05  -0.05   0.18
  39   1    -0.01  -0.05   0.06     0.05   0.06   0.00     0.01  -0.02   0.06
  40   1    -0.02   0.03  -0.13    -0.05   0.02  -0.11    -0.00   0.00  -0.01
  41   1     0.01  -0.00   0.05     0.01  -0.01  -0.00    -0.05   0.06  -0.19
  42   1    -0.05   0.03  -0.05     0.05  -0.02  -0.01    -0.01   0.01  -0.04
  43   1     0.02  -0.02   0.17     0.07  -0.07   0.09    -0.04   0.05  -0.16
                     37                     38                     39
                        a                      a                      a 
 Frequencies --   654.0175               699.4372               725.8634
 Red. masses --    10.6600                11.6418                11.7028
 Frc consts  --     0.0000                 0.0000                 0.0000
 IR Inten    --     1.2189                23.1783                 1.0279
 Raman Activ --     0.0000                 0.0000                 0.0000
 Depolar     --     0.0000                 0.0000                 0.0000
 Atom AN      X      Y      Z        X      Y      Z        X      Y      Z
   1   7    -0.01  -0.00  -0.01     0.03  -0.00  -0.03    -0.01  -0.00  -0.00
   2   6    -0.01   0.02  -0.02     0.02   0.01   0.02    -0.00   0.01  -0.01
   3   6    -0.08   0.07  -0.01    -0.11   0.02   0.03    -0.00   0.01  -0.01
   4   8     0.02   0.05  -0.07    -0.30  -0.29   0.02     0.03   0.02  -0.01
   5   6     0.14  -0.19   0.47    -0.08   0.01  -0.07     0.03  -0.05   0.18
   6   6    -0.01  -0.01  -0.17     0.30   0.04  -0.04    -0.05   0.04  -0.11
   7   6     0.02  -0.00   0.11     0.23   0.37   0.06     0.02  -0.07   0.12
   8   6    -0.03   0.04  -0.04    -0.03   0.09   0.02    -0.05   0.07  -0.24
   9   6     0.06   0.05  -0.11     0.08   0.02   0.03     0.11  -0.12   0.43
  10   6     0.15  -0.12   0.40     0.09  -0.05  -0.09    -0.05   0.08  -0.20
  11   6    -0.06   0.04  -0.04    -0.04  -0.12  -0.01     0.01  -0.01   0.12
  12   6    -0.04  -0.04   0.03    -0.08  -0.12  -0.02    -0.04   0.02  -0.13
  13   6    -0.00   0.01  -0.01     0.04  -0.00   0.00     0.03  -0.04   0.09
  14   6     0.03   0.07  -0.34     0.04   0.01   0.02    -0.06   0.09  -0.33
  15   6    -0.03  -0.04   0.06    -0.15  -0.01   0.02    -0.03   0.04  -0.14
  16   6    -0.03  -0.04  -0.05    -0.10  -0.11   0.01     0.03  -0.03   0.12
  17   6     0.01  -0.12   0.08    -0.08  -0.24  -0.07    -0.03   0.03  -0.11
  18   6     0.04   0.02  -0.07     0.21   0.07  -0.02     0.02  -0.04   0.10
  19   6     0.04  -0.04   0.23    -0.04   0.13   0.01    -0.07   0.09  -0.31
  20   6    -0.07   0.02  -0.05    -0.23  -0.05   0.05     0.02  -0.02   0.09
  21   6    -0.01  -0.00   0.03     0.08  -0.10  -0.06    -0.04   0.04  -0.12
  22   6    -0.02   0.03  -0.05     0.08   0.02   0.00     0.02  -0.04   0.11
  23   6    -0.02   0.12  -0.23     0.14   0.13   0.02    -0.03   0.04  -0.15
  24   6    -0.02   0.06  -0.06    -0.03   0.16   0.09     0.09  -0.12   0.38
  25  17    -0.00  -0.00   0.00    -0.00  -0.00  -0.00     0.00  -0.00   0.00
  26   1    -0.01  -0.01   0.00     0.01  -0.01  -0.02    -0.01  -0.00   0.00
  27   1    -0.00  -0.01  -0.00    -0.02   0.00  -0.00     0.00   0.00  -0.00
  28   1     0.01  -0.01  -0.00     0.01  -0.00  -0.02     0.00  -0.00   0.00
  29   1    -0.03  -0.04  -0.03    -0.00  -0.02  -0.02    -0.01  -0.01  -0.01
  30   1     0.03  -0.01   0.03     0.03  -0.01   0.02     0.01  -0.00   0.01
  31   1    -0.09   0.03   0.04     0.10  -0.03   0.00    -0.02   0.01   0.01
  32   1    -0.02  -0.06  -0.01    -0.06   0.13  -0.01     0.00  -0.02  -0.01
  33   1    -0.03   0.02  -0.13     0.09   0.01   0.01    -0.00   0.01  -0.01
  34   1    -0.01   0.01   0.02     0.06   0.10   0.03    -0.00  -0.01   0.00
  35   1    -0.04   0.03  -0.11    -0.03  -0.05  -0.01     0.01  -0.00   0.05
  36   1    -0.00  -0.02   0.02    -0.05  -0.03  -0.01     0.02  -0.02   0.05
  37   1     0.01   0.01   0.10    -0.00   0.04  -0.01     0.02  -0.02   0.07
  38   1    -0.02   0.02  -0.10     0.03   0.02   0.01     0.00  -0.00   0.01
  39   1    -0.03  -0.01  -0.05    -0.08  -0.06   0.01     0.00  -0.00   0.01
  40   1    -0.02   0.05  -0.14     0.05   0.06   0.02     0.01  -0.02   0.06
  41   1    -0.02   0.00   0.00    -0.07   0.01   0.02     0.02  -0.02   0.08
  42   1     0.02  -0.01   0.07     0.05   0.01  -0.02     0.01  -0.01   0.04
  43   1     0.01  -0.03   0.13    -0.05   0.02   0.01     0.01  -0.01   0.03
                     40                     41                     42
                        a                      a                      a 
 Frequencies --   750.9092               758.8112               764.5328
 Red. masses --     9.7725                 4.1341                10.7555
 Frc consts  --     0.0000                 0.0000                 0.0000
 IR Inten    --     0.0483                 1.3913                 3.2749
 Raman Activ --     0.0000                 0.0000                 0.0000
 Depolar     --     0.0000                 0.0000                 0.0000
 Atom AN      X      Y      Z        X      Y      Z        X      Y      Z
   1   7    -0.00   0.00  -0.01    -0.00   0.00  -0.00     0.00  -0.00   0.00
   2   6    -0.00   0.01  -0.01     0.01  -0.00   0.01     0.00  -0.01   0.01
   3   6    -0.01   0.01  -0.00     0.01  -0.01   0.00     0.02  -0.02  -0.00
   4   8     0.00  -0.00  -0.00    -0.01  -0.00   0.01     0.04   0.04  -0.00
   5   6     0.01  -0.01   0.06    -0.02   0.01  -0.10    -0.07   0.14  -0.00
   6   6    -0.02   0.04  -0.06     0.03  -0.05   0.04    -0.12   0.12   0.11
   7   6     0.00  -0.02   0.01    -0.00   0.05   0.02     0.00  -0.36  -0.13
   8   6    -0.05   0.07  -0.25     0.01  -0.02   0.13     0.13  -0.11  -0.02
   9   6     0.09  -0.10   0.36    -0.02   0.00  -0.04    -0.00   0.12  -0.01
  10   6    -0.06   0.09  -0.24    -0.01  -0.01  -0.05    -0.11   0.18   0.08
  11   6    -0.02   0.02   0.00     0.03  -0.03  -0.06    -0.27   0.22   0.13
  12   6    -0.03   0.00  -0.11     0.00   0.07  -0.02    -0.08  -0.44  -0.10
  13   6     0.01  -0.01   0.00    -0.05   0.03  -0.04     0.29  -0.01  -0.07
  14   6    -0.01   0.03  -0.11     0.00  -0.03   0.08     0.07   0.09   0.05
  15   6     0.07  -0.08   0.26    -0.05   0.06  -0.21    -0.01   0.04  -0.02
  16   6    -0.00  -0.00   0.01     0.04  -0.04   0.15    -0.08   0.01   0.04
  17   6     0.03  -0.05   0.12     0.02  -0.00   0.08    -0.03  -0.16  -0.03
  18   6     0.00  -0.00  -0.00     0.03  -0.05   0.18     0.13   0.02  -0.00
  19   6     0.03  -0.04   0.15     0.00  -0.00  -0.02    -0.03   0.07   0.03
  20   6    -0.02   0.02  -0.05    -0.02   0.05  -0.17    -0.16  -0.00   0.01
  21   6     0.02  -0.03   0.09    -0.03   0.04  -0.12     0.09  -0.04  -0.05
  22   6    -0.01   0.01  -0.04    -0.04   0.05  -0.16     0.07  -0.02  -0.05
  23   6     0.07  -0.08   0.29     0.02  -0.04   0.12     0.05   0.01   0.01
  24   6    -0.11   0.14  -0.45     0.02  -0.03   0.08     0.00   0.06   0.03
  25  17    -0.00  -0.00   0.00    -0.00  -0.00   0.00     0.00   0.00  -0.00
  26   1    -0.01  -0.00   0.01     0.01   0.01  -0.00     0.01   0.01  -0.01
  27   1     0.00  -0.00  -0.00    -0.00  -0.01   0.00    -0.00   0.00  -0.00
  28   1     0.00  -0.00   0.00    -0.01   0.00   0.00    -0.01   0.00   0.00
  29   1    -0.01  -0.01  -0.00     0.01   0.01   0.01     0.02   0.02   0.02
  30   1     0.01  -0.00   0.01    -0.00   0.00  -0.00    -0.02   0.01  -0.02
  31   1    -0.00   0.00   0.01     0.01  -0.00  -0.01     0.01  -0.01  -0.01
  32   1    -0.00  -0.01  -0.00     0.00   0.01   0.00     0.01   0.00   0.01
  33   1     0.01  -0.02   0.07    -0.02   0.01  -0.07     0.04   0.13   0.00
  34   1     0.03  -0.03   0.08    -0.03   0.04  -0.08     0.06  -0.11  -0.06
  35   1     0.04  -0.04   0.17     0.03  -0.06   0.12     0.02   0.16   0.03
  36   1     0.04  -0.05   0.14     0.02  -0.01   0.11    -0.00  -0.12  -0.05
  37   1     0.03  -0.03   0.10     0.02  -0.04   0.11     0.05   0.08  -0.01
  38   1    -0.05   0.06  -0.20    -0.06   0.06  -0.23    -0.01   0.03  -0.01
  39   1    -0.04   0.04  -0.17    -0.06   0.08  -0.26    -0.03  -0.03  -0.03
  40   1    -0.03   0.04  -0.15    -0.08   0.10  -0.34     0.02   0.04  -0.04
  41   1    -0.01   0.01  -0.03     0.09  -0.11   0.37    -0.04   0.01   0.07
  42   1    -0.02   0.02  -0.08     0.07  -0.10   0.32     0.07   0.01   0.04
  43   1    -0.03   0.03  -0.11     0.07  -0.09   0.32     0.02  -0.02   0.04
                     43                     44                     45
                        a                      a                      a 
 Frequencies --   773.0130               784.4151               794.3523
 Red. masses --    10.8896                 4.8847                 4.9741
 Frc consts  --     0.0000                 0.0000                 0.0000
 IR Inten    --     0.2765                14.3312                35.7193
 Raman Activ --     0.0000                 0.0000                 0.0000
 Depolar     --     0.0000                 0.0000                 0.0000
 Atom AN      X      Y      Z        X      Y      Z        X      Y      Z
   1   7     0.01   0.00  -0.01    -0.00   0.01  -0.00    -0.00   0.00  -0.00
   2   6     0.00   0.00   0.00     0.01  -0.00   0.01     0.00  -0.00   0.00
   3   6    -0.02   0.00   0.01     0.01  -0.02   0.00     0.01  -0.00   0.00
   4   8    -0.04  -0.04   0.01    -0.01   0.01   0.01     0.01   0.01  -0.00
   5   6     0.00   0.03   0.00    -0.02   0.03  -0.11    -0.01   0.00  -0.02
   6   6    -0.03   0.07   0.02     0.01  -0.02   0.04     0.01  -0.03   0.03
   7   6    -0.01   0.03  -0.00     0.01  -0.02   0.02    -0.01   0.01  -0.04
   8   6     0.03   0.02   0.01    -0.01   0.02  -0.07     0.03  -0.04   0.12
   9   6     0.06  -0.02  -0.03    -0.01   0.00   0.02    -0.03   0.03  -0.08
  10   6     0.09  -0.00  -0.03     0.04  -0.07   0.25     0.01  -0.04   0.11
  11   6     0.02   0.02   0.01    -0.06   0.08  -0.26    -0.00   0.00  -0.03
  12   6     0.01   0.02   0.01    -0.03   0.03  -0.15     0.01  -0.00   0.04
  13   6    -0.09  -0.07   0.00    -0.04   0.07  -0.22     0.01   0.01   0.00
  14   6     0.00  -0.05  -0.01     0.03  -0.04   0.18    -0.01   0.00   0.01
  15   6     0.01   0.18   0.04     0.00  -0.00   0.05    -0.04   0.05  -0.15
  16   6    -0.22   0.28   0.14    -0.02   0.02  -0.03     0.05  -0.06   0.22
  17   6    -0.05  -0.34  -0.09    -0.01  -0.01  -0.04     0.02  -0.03   0.08
  18   6     0.12  -0.12  -0.06     0.01   0.02  -0.04     0.06  -0.05   0.19
  19   6     0.12   0.02  -0.03     0.00   0.01  -0.01    -0.06   0.08  -0.24
  20   6     0.14   0.20   0.02     0.01  -0.01   0.05     0.04  -0.05   0.16
  21   6    -0.30   0.31   0.16     0.01  -0.00  -0.01     0.03  -0.03   0.07
  22   6    -0.09  -0.39  -0.10     0.03  -0.04   0.08     0.06  -0.07   0.22
  23   6     0.10  -0.16  -0.07    -0.05   0.05  -0.21    -0.04   0.03  -0.14
  24   6     0.09   0.01  -0.02     0.01  -0.02   0.07    -0.01   0.00  -0.01
  25  17    -0.00  -0.00  -0.00     0.00  -0.00   0.00    -0.00  -0.00   0.00
  26   1     0.00  -0.00  -0.00    -0.00   0.00   0.00     0.00   0.00   0.00
  27   1    -0.00   0.00  -0.00    -0.00  -0.01   0.00     0.00  -0.00   0.00
  28   1     0.00  -0.00  -0.00    -0.00   0.00  -0.01    -0.00   0.00   0.00
  29   1    -0.00  -0.00  -0.01     0.00   0.01   0.01     0.00   0.00   0.00
  30   1     0.00  -0.00   0.00     0.00   0.00  -0.01    -0.00   0.00  -0.00
  31   1     0.02  -0.01  -0.00     0.01  -0.01  -0.01    -0.00   0.00  -0.00
  32   1    -0.01   0.02   0.00     0.00   0.01   0.00     0.00  -0.00   0.00
  33   1    -0.00   0.02   0.02    -0.00   0.02  -0.05    -0.01   0.01  -0.04
  34   1     0.01   0.00   0.01    -0.01   0.00  -0.03    -0.01   0.01  -0.02
  35   1    -0.01  -0.00  -0.01     0.11  -0.13   0.45    -0.00   0.01  -0.02
  36   1     0.03   0.00  -0.02     0.09  -0.12   0.39    -0.01   0.02  -0.05
  37   1    -0.02  -0.03  -0.01     0.11  -0.11   0.42    -0.00   0.01  -0.02
  38   1     0.01   0.16   0.04     0.02  -0.01   0.07    -0.09   0.11  -0.37
  39   1     0.07  -0.11  -0.05     0.02  -0.03   0.08    -0.07   0.08  -0.28
  40   1     0.01   0.02  -0.00     0.03  -0.02   0.09    -0.06   0.08  -0.28
  41   1     0.06  -0.02  -0.02    -0.02   0.02  -0.07    -0.05   0.07  -0.22
  42   1    -0.04   0.13   0.05    -0.00   0.02  -0.04    -0.06   0.08  -0.26
  43   1     0.09  -0.13  -0.05    -0.01   0.01  -0.06    -0.09   0.11  -0.38
                     46                     47                     48
                        a                      a                      a 
 Frequencies --   801.5413               813.7220               825.6603
 Red. masses --    10.1541                 5.3835                 3.9775
 Frc consts  --     0.0000                 0.0000                 0.0000
 IR Inten    --    15.6803                23.9307                13.7618
 Raman Activ --     0.0000                 0.0000                 0.0000
 Depolar     --     0.0000                 0.0000                 0.0000
 Atom AN      X      Y      Z        X      Y      Z        X      Y      Z
   1   7    -0.01  -0.01   0.04     0.05  -0.02   0.00    -0.08   0.08  -0.03
   2   6     0.03  -0.06   0.04     0.04  -0.08   0.08    -0.06   0.22  -0.14
   3   6     0.12  -0.06  -0.02    -0.06  -0.04   0.05     0.11   0.06  -0.08
   4   8     0.11   0.18  -0.06    -0.10   0.01  -0.02     0.06  -0.17   0.17
   5   6    -0.08  -0.09  -0.02    -0.02   0.07  -0.10     0.01   0.05  -0.13
   6   6     0.18  -0.31  -0.04    -0.03   0.02   0.23     0.02  -0.00   0.10
   7   6     0.06  -0.06   0.10     0.04  -0.06   0.31     0.04  -0.06   0.15
   8   6    -0.08   0.03  -0.08    -0.04   0.09  -0.18    -0.05  -0.00  -0.08
   9   6    -0.25   0.05   0.08     0.12  -0.02  -0.05    -0.03  -0.01  -0.01
  10   6    -0.29  -0.04   0.04     0.15   0.01  -0.03    -0.03   0.01   0.00
  11   6     0.08  -0.13  -0.03    -0.02   0.03   0.04    -0.00   0.01   0.04
  12   6     0.05   0.13   0.03    -0.02  -0.06   0.00     0.01  -0.00   0.01
  13   6     0.14   0.17   0.05    -0.06  -0.08   0.02     0.02   0.01  -0.01
  14   6    -0.17   0.12   0.01     0.06  -0.04  -0.06     0.00   0.01   0.01
  15   6    -0.11   0.06   0.12     0.08  -0.07   0.10    -0.02  -0.01   0.06
  16   6    -0.13   0.12   0.03     0.04  -0.04  -0.08    -0.01   0.02  -0.02
  17   6    -0.02  -0.12  -0.02     0.01   0.04   0.03     0.01   0.01   0.01
  18   6     0.25   0.14  -0.03    -0.11  -0.07   0.01     0.02   0.01   0.01
  19   6     0.05   0.09   0.03    -0.02  -0.04  -0.01     0.01   0.00  -0.01
  20   6    -0.00  -0.02  -0.01     0.01   0.01   0.00     0.03  -0.00  -0.01
  21   6     0.15  -0.07  -0.05    -0.08   0.04   0.05     0.01  -0.01   0.00
  22   6     0.09  -0.10  -0.06    -0.04   0.03   0.03     0.00  -0.02  -0.00
  23   6    -0.11  -0.15   0.00     0.07   0.06   0.01    -0.02  -0.03   0.01
  24   6    -0.07   0.02  -0.01     0.03   0.01  -0.05    -0.02  -0.00  -0.01
  25  17     0.00   0.00  -0.00     0.00  -0.00  -0.00    -0.01   0.00   0.00
  26   1     0.05   0.03  -0.03     0.13   0.05  -0.10    -0.32  -0.14   0.25
  27   1    -0.01   0.02   0.00    -0.06   0.04  -0.00     0.11  -0.12   0.01
  28   1    -0.07   0.02   0.02    -0.09   0.04   0.01     0.27  -0.10  -0.05
  29   1     0.06   0.07   0.06     0.12   0.11   0.04    -0.29  -0.27  -0.08
  30   1    -0.08   0.03  -0.04    -0.12   0.04  -0.08     0.31  -0.10   0.17
  31   1    -0.04   0.01  -0.02     0.05  -0.02  -0.10    -0.02   0.01   0.15
  32   1     0.05  -0.07   0.01    -0.01   0.12   0.05    -0.00  -0.10  -0.10
  33   1    -0.00  -0.02  -0.22    -0.09   0.19  -0.39    -0.02   0.09  -0.17
  34   1    -0.09   0.06  -0.18    -0.12   0.16  -0.48    -0.05   0.08  -0.26
  35   1     0.04   0.01  -0.06    -0.04   0.01  -0.05    -0.01   0.03  -0.05
  36   1    -0.09   0.06   0.01     0.03  -0.01  -0.05    -0.01   0.01  -0.03
  37   1     0.04   0.02  -0.04    -0.03   0.01  -0.03     0.01  -0.01   0.01
  38   1     0.02   0.08   0.04    -0.00  -0.04   0.00     0.01   0.01   0.02
  39   1    -0.03  -0.03   0.00     0.01   0.02  -0.03    -0.00   0.01  -0.02
  40   1     0.06   0.08   0.03    -0.03  -0.04  -0.02     0.00   0.01  -0.01
  41   1    -0.00   0.00  -0.00     0.00  -0.00  -0.01     0.01  -0.00  -0.00
  42   1     0.06   0.01  -0.02    -0.04   0.01  -0.02    -0.00   0.00  -0.01
  43   1     0.07  -0.04  -0.03    -0.04   0.02  -0.02     0.01  -0.00  -0.01
                     49                     50                     51
                        a                      a                      a 
 Frequencies --   859.7243               869.1181               874.0399
 Red. masses --     4.3462                 4.1937                 4.7998
 Frc consts  --     0.0000                 0.0000                 0.0000
 IR Inten    --     0.2859                 0.3211                 0.5607
 Raman Activ --     0.0000                 0.0000                 0.0000
 Depolar     --     0.0000                 0.0000                 0.0000
 Atom AN      X      Y      Z        X      Y      Z        X      Y      Z
   1   7     0.00  -0.01  -0.00     0.01   0.01   0.00    -0.03   0.01   0.03
   2   6    -0.01   0.00  -0.01     0.01  -0.01   0.01     0.03   0.01   0.02
   3   6    -0.01   0.01   0.00    -0.01  -0.01   0.00     0.06  -0.03  -0.04
   4   8     0.01  -0.01   0.00    -0.01   0.02  -0.01    -0.01   0.03  -0.01
   5   6     0.01  -0.01   0.03     0.00   0.00  -0.01    -0.04   0.01  -0.01
   6   6    -0.01   0.02  -0.06    -0.01   0.01  -0.03    -0.01  -0.04   0.10
   7   6     0.02  -0.01   0.04    -0.00  -0.01  -0.01    -0.04   0.02  -0.07
   8   6    -0.01  -0.01  -0.01     0.01   0.01  -0.01     0.07   0.06   0.02
   9   6    -0.00  -0.01   0.00    -0.01   0.01  -0.02     0.01   0.03   0.02
  10   6     0.01  -0.02   0.06    -0.02   0.02  -0.05     0.01  -0.01  -0.02
  11   6    -0.06   0.07  -0.20     0.07  -0.09   0.27     0.06  -0.08   0.09
  12   6     0.01  -0.02   0.07    -0.01   0.01  -0.06     0.00   0.01  -0.01
  13   6     0.05  -0.04   0.16    -0.06   0.07  -0.23    -0.07  -0.00  -0.09
  14   6    -0.01   0.01  -0.05     0.01  -0.02   0.08    -0.03  -0.00   0.00
  15   6     0.00  -0.01   0.05     0.03  -0.01   0.05     0.08   0.01  -0.06
  16   6    -0.05   0.06  -0.20    -0.06   0.07  -0.23     0.03  -0.06   0.19
  17   6     0.01  -0.00   0.03     0.00  -0.02   0.04    -0.03  -0.04  -0.06
  18   6     0.03  -0.03   0.12     0.05  -0.05   0.19    -0.05   0.04  -0.21
  19   6     0.01  -0.01   0.04    -0.01   0.02  -0.05     0.02  -0.03   0.15
  20   6    -0.04   0.06  -0.20    -0.02   0.01  -0.04    -0.13   0.07  -0.22
  21   6    -0.02   0.02  -0.07     0.01  -0.01   0.01    -0.01   0.01  -0.06
  22   6     0.06  -0.08   0.26     0.02  -0.02   0.08     0.06  -0.04   0.24
  23   6    -0.02   0.02  -0.07    -0.00   0.00  -0.00     0.01   0.04  -0.03
  24   6    -0.00   0.00  -0.00     0.01  -0.00   0.01     0.03   0.01  -0.04
  25  17     0.00   0.00  -0.00     0.00   0.00   0.00    -0.00   0.00  -0.00
  26   1     0.00   0.00  -0.00     0.01   0.00  -0.01    -0.02  -0.01   0.01
  27   1     0.01   0.01  -0.00    -0.02  -0.00   0.00    -0.02  -0.01   0.01
  28   1    -0.00  -0.00   0.01    -0.00   0.00  -0.01     0.01  -0.01  -0.01
  29   1    -0.00  -0.01  -0.01     0.01   0.02   0.01    -0.00   0.00   0.03
  30   1    -0.00  -0.00   0.01    -0.01   0.00  -0.02     0.01  -0.00   0.00
  31   1    -0.00   0.00   0.01     0.01  -0.00  -0.02    -0.01   0.00  -0.00
  32   1    -0.00  -0.01  -0.00     0.00   0.01   0.01     0.01  -0.03  -0.02
  33   1     0.02  -0.04   0.11     0.01  -0.03   0.07    -0.04   0.08  -0.17
  34   1    -0.01   0.02  -0.05     0.00  -0.01   0.03    -0.01  -0.03   0.13
  35   1     0.07  -0.09   0.29    -0.10   0.13  -0.42    -0.04   0.03  -0.19
  36   1    -0.03   0.03  -0.10     0.02  -0.03   0.08     0.00   0.00  -0.00
  37   1    -0.07   0.08  -0.30     0.10  -0.11   0.41     0.03  -0.07   0.16
  38   1     0.08  -0.08   0.30     0.08  -0.10   0.35    -0.08   0.06  -0.26
  39   1    -0.00   0.01  -0.02    -0.01   0.01  -0.05     0.02  -0.04   0.07
  40   1    -0.05   0.07  -0.22    -0.08   0.10  -0.32     0.07  -0.09   0.32
  41   1     0.08  -0.10   0.35     0.01  -0.02   0.08     0.07  -0.10   0.39
  42   1     0.02  -0.03   0.10    -0.00   0.01  -0.04     0.04  -0.02   0.10
  43   1    -0.09   0.11  -0.38    -0.03   0.04  -0.14    -0.09   0.11  -0.35
                     52                     53                     54
                        a                      a                      a 
 Frequencies --   876.2444               890.1121               897.6961
 Red. masses --    10.1953                 3.9393                 8.3726
 Frc consts  --     0.0000                 0.0000                 0.0000
 IR Inten    --     1.2658                 1.0469                12.7858
 Raman Activ --     0.0000                 0.0000                 0.0000
 Depolar     --     0.0000                 0.0000                 0.0000
 Atom AN      X      Y      Z        X      Y      Z        X      Y      Z
   1   7    -0.11  -0.00   0.08     0.02  -0.02  -0.04    -0.27  -0.08   0.23
   2   6     0.09   0.02   0.03    -0.04  -0.02  -0.03     0.27   0.04   0.05
   3   6     0.22  -0.06  -0.12    -0.04   0.03   0.05     0.31  -0.00  -0.33
   4   8    -0.00   0.11  -0.04     0.02  -0.01  -0.01    -0.21  -0.00  -0.01
   5   6    -0.13   0.03   0.02     0.03   0.00   0.01    -0.08  -0.01  -0.01
   6   6    -0.14  -0.00   0.02    -0.08   0.12  -0.30     0.07   0.01  -0.04
   7   6    -0.07  -0.04   0.02     0.07  -0.10   0.27     0.06   0.07   0.03
   8   6     0.29   0.23  -0.01     0.05  -0.01   0.00    -0.11  -0.08   0.01
   9   6     0.01   0.13   0.04    -0.03   0.03  -0.07     0.02  -0.06  -0.03
  10   6     0.02  -0.06  -0.02    -0.03  -0.00   0.01     0.10   0.03  -0.01
  11   6     0.10  -0.16  -0.12     0.02  -0.02   0.03    -0.07   0.06   0.05
  12   6     0.01   0.02   0.01     0.01   0.00   0.02    -0.04  -0.08  -0.03
  13   6    -0.18  -0.13   0.04    -0.03   0.01  -0.06     0.10   0.05  -0.02
  14   6    -0.14  -0.01   0.02     0.01  -0.02   0.09     0.01   0.03   0.03
  15   6     0.36   0.01  -0.07     0.04   0.01  -0.03    -0.14  -0.02   0.02
  16   6    -0.08   0.01  -0.04    -0.00  -0.01   0.09     0.06  -0.03  -0.02
  17   6    -0.09  -0.22  -0.03    -0.01  -0.04   0.02     0.04   0.09   0.03
  18   6     0.01  -0.09   0.03    -0.00   0.03  -0.10    -0.08  -0.03   0.00
  19   6    -0.05   0.06  -0.01     0.00   0.00   0.03     0.01  -0.03  -0.01
  20   6    -0.31  -0.02   0.13    -0.05   0.00  -0.02     0.12   0.02  -0.02
  21   6     0.05  -0.03  -0.00     0.02  -0.01  -0.02    -0.07   0.04   0.03
  22   6     0.03   0.13  -0.03     0.02   0.01   0.03    -0.03  -0.07  -0.01
  23   6     0.06   0.11   0.02    -0.02  -0.00  -0.00     0.08   0.03  -0.01
  24   6     0.18   0.01  -0.03     0.01  -0.01  -0.01    -0.03   0.04   0.02
  25  17     0.00  -0.00  -0.00     0.00  -0.00   0.00     0.00  -0.00  -0.00
  26   1    -0.04  -0.00   0.03     0.03   0.02  -0.01     0.06   0.06  -0.03
  27   1    -0.01  -0.00   0.02     0.05   0.02  -0.02    -0.08   0.07   0.03
  28   1    -0.02  -0.01   0.02    -0.05   0.01   0.03    -0.22   0.04   0.13
  29   1    -0.01   0.00   0.06     0.01   0.00  -0.03     0.08   0.04   0.04
  30   1     0.02   0.00   0.04    -0.03   0.00   0.00    -0.02   0.04   0.15
  31   1    -0.06   0.01   0.06     0.01   0.00   0.03    -0.12   0.03   0.19
  32   1     0.03  -0.15  -0.10    -0.00  -0.00   0.02    -0.04  -0.26  -0.32
  33   1    -0.02   0.01   0.03     0.09  -0.23   0.56     0.04  -0.01   0.06
  34   1    -0.14   0.02   0.02    -0.11   0.15  -0.48     0.05   0.02  -0.04
  35   1     0.01  -0.10   0.04    -0.00   0.02  -0.05    -0.03   0.02  -0.01
  36   1    -0.01   0.01  -0.01    -0.01   0.01  -0.04    -0.01  -0.03   0.01
  37   1    -0.05  -0.07  -0.08     0.02  -0.04   0.10     0.02   0.04   0.02
  38   1    -0.06  -0.08   0.08    -0.04   0.04  -0.14     0.03   0.01  -0.01
  39   1    -0.00  -0.06  -0.03    -0.02   0.01  -0.06     0.01   0.03  -0.01
  40   1    -0.03   0.03  -0.08     0.04  -0.04   0.17    -0.01  -0.04   0.01
  41   1    -0.13   0.07  -0.05    -0.00  -0.01   0.05     0.04  -0.02  -0.02
  42   1     0.06   0.06  -0.02     0.02  -0.00   0.02    -0.03  -0.00   0.01
  43   1    -0.02   0.02   0.10    -0.01   0.02  -0.04    -0.02  -0.01  -0.01
                     55                     56                     57
                        a                      a                      a 
 Frequencies --   911.4753               912.8984               914.5269
 Red. masses --     4.0333                 3.8959                 3.7123
 Frc consts  --     0.0000                 0.0000                 0.0000
 IR Inten    --     5.6894                 3.6315                 3.6925
 Raman Activ --     0.0000                 0.0000                 0.0000
 Depolar     --     0.0000                 0.0000                 0.0000
 Atom AN      X      Y      Z        X      Y      Z        X      Y      Z
   1   7    -0.02   0.12   0.12     0.02  -0.10  -0.10    -0.00   0.10   0.08
   2   6     0.11  -0.00   0.12    -0.09   0.00  -0.10     0.07  -0.00   0.09
   3   6    -0.03  -0.17  -0.12     0.03   0.15   0.11    -0.03  -0.14  -0.08
   4   8    -0.06   0.12  -0.06     0.05  -0.10   0.05    -0.04   0.10  -0.05
   5   6    -0.01  -0.01   0.03     0.01   0.01  -0.03    -0.01  -0.01   0.03
   6   6     0.02  -0.02  -0.03    -0.01   0.01   0.06     0.01  -0.02  -0.05
   7   6     0.01   0.01  -0.00    -0.02  -0.00  -0.03     0.01   0.01   0.02
   8   6    -0.02  -0.01  -0.01     0.02   0.02  -0.01    -0.01  -0.01   0.02
   9   6     0.01  -0.03   0.05     0.00   0.01   0.02    -0.02   0.01  -0.07
  10   6     0.01   0.02  -0.04    -0.02  -0.00  -0.01     0.03  -0.01   0.04
  11   6    -0.03   0.03  -0.06     0.02  -0.01   0.01     0.00  -0.02   0.08
  12   6     0.05  -0.09   0.23     0.01   0.01   0.02    -0.07   0.06  -0.26
  13   6    -0.01   0.05  -0.12    -0.03  -0.01  -0.02     0.06  -0.03   0.14
  14   6    -0.01   0.02  -0.04     0.00  -0.01  -0.01    -0.00  -0.00   0.05
  15   6    -0.03  -0.00   0.00     0.02   0.01  -0.01    -0.01   0.00  -0.02
  16   6     0.01  -0.00  -0.03    -0.02   0.02  -0.05     0.00   0.00  -0.04
  17   6     0.02   0.00   0.07     0.03  -0.06   0.14     0.03  -0.02   0.12
  18   6    -0.02  -0.00  -0.03     0.00   0.03  -0.07    -0.04   0.00  -0.06
  19   6     0.00  -0.01   0.00     0.00   0.00   0.02     0.00  -0.01  -0.00
  20   6     0.04  -0.02   0.08     0.02  -0.05   0.15     0.02  -0.01   0.05
  21   6    -0.05   0.05  -0.13    -0.05   0.07  -0.27    -0.04   0.04  -0.10
  22   6    -0.00  -0.02   0.02     0.02  -0.01   0.07     0.01  -0.03   0.04
  23   6     0.03   0.00   0.02    -0.01  -0.02   0.04     0.03   0.01   0.01
  24   6    -0.01   0.02  -0.01    -0.01  -0.00  -0.03     0.01   0.01   0.00
  25  17    -0.00   0.01   0.01     0.00  -0.01  -0.00    -0.00   0.01   0.00
  26   1    -0.09  -0.10  -0.01     0.08   0.08   0.01    -0.08  -0.08  -0.00
  27   1    -0.25  -0.12   0.11     0.21   0.11  -0.09    -0.19  -0.10   0.08
  28   1     0.22  -0.05  -0.20    -0.19   0.05   0.17     0.19  -0.05  -0.16
  29   1    -0.00   0.03   0.14     0.01  -0.02  -0.12    -0.02   0.01   0.11
  30   1     0.08  -0.01  -0.12    -0.08   0.01   0.11     0.07  -0.02  -0.10
  31   1     0.02  -0.04  -0.17    -0.02   0.03   0.14     0.02  -0.03  -0.14
  32   1    -0.00   0.06  -0.00     0.00  -0.04   0.00     0.00   0.05   0.01
  33   1    -0.00  -0.04   0.03    -0.00   0.06  -0.09     0.00  -0.05   0.06
  34   1     0.01   0.00   0.00     0.01  -0.02   0.06    -0.01   0.01  -0.03
  35   1     0.03  -0.04   0.15    -0.00   0.01  -0.03    -0.05   0.05  -0.17
  36   1    -0.11   0.13  -0.45    -0.00   0.01  -0.03     0.11  -0.15   0.50
  37   1     0.07  -0.06   0.26     0.01  -0.02   0.04    -0.07   0.09  -0.31
  38   1     0.01  -0.01   0.04     0.02  -0.03   0.10     0.02  -0.02   0.06
  39   1    -0.02   0.04  -0.12    -0.07   0.08  -0.27    -0.05   0.07  -0.22
  40   1     0.01  -0.02   0.05     0.03  -0.03   0.13     0.02  -0.04   0.12
  41   1    -0.03   0.04  -0.17    -0.07   0.09  -0.29    -0.02   0.03  -0.10
[...]
                        a                      a                      a 
 Frequencies --  2974.6552              2981.4334              3090.9939
 Red. masses --     1.5354                 1.6110                 1.7785
 Frc consts  --     0.0000                 0.0000                 0.0000
 IR Inten    --    73.2530                 0.3788                32.8988
 Raman Activ --     0.0000                 0.0000                 0.0000
 Depolar     --     0.0000                 0.0000                 0.0000
 Atom AN      X      Y      Z        X      Y      Z        X      Y      Z
   1   7    -0.00  -0.01   0.00    -0.00  -0.02   0.01    -0.00   0.00  -0.00
   2   6    -0.14   0.01  -0.06    -0.12  -0.10  -0.04    -0.00   0.00  -0.00
   3   6    -0.01   0.14   0.06    -0.03  -0.16  -0.04    -0.00   0.00   0.00
   4   8    -0.00   0.01  -0.00     0.00  -0.01   0.00    -0.00  -0.00  -0.00
   5   6     0.00   0.00   0.00    -0.00  -0.00  -0.00     0.00  -0.00  -0.00
   6   6     0.00  -0.00  -0.00    -0.00   0.00   0.00     0.00  -0.00  -0.00
   7   6    -0.00   0.00   0.00     0.00  -0.00  -0.00    -0.00  -0.00  -0.00
   8   6     0.00  -0.00  -0.00    -0.00   0.00   0.00     0.00   0.00   0.00
   9   6     0.00   0.00  -0.00    -0.00  -0.00  -0.00    -0.00   0.00   0.00
  10   6     0.00   0.00   0.00     0.00   0.00   0.00    -0.00   0.00   0.00
  11   6    -0.00   0.00   0.00    -0.00  -0.00  -0.00    -0.02   0.02   0.01
  12   6     0.00   0.00   0.00     0.00   0.00  -0.00    -0.06  -0.22  -0.05
  13   6    -0.00  -0.00  -0.00     0.00   0.00  -0.00     0.08   0.02  -0.01
  14   6    -0.00   0.00   0.00     0.00  -0.00  -0.00     0.00   0.00  -0.00
  15   6    -0.00  -0.00   0.00     0.00  -0.00   0.00    -0.00  -0.00  -0.00
  16   6    -0.00   0.00   0.00    -0.00   0.00   0.00     0.00  -0.00  -0.00
  17   6     0.00   0.00   0.00     0.00  -0.00   0.00     0.00   0.00   0.00
  18   6     0.00  -0.00  -0.00    -0.00  -0.00   0.00    -0.01  -0.00   0.00
  19   6     0.00   0.00  -0.00     0.00   0.00   0.00     0.00   0.00  -0.00
  20   6    -0.00   0.00   0.00     0.00   0.00  -0.00     0.02   0.01  -0.00
  21   6    -0.00  -0.00  -0.00    -0.00   0.00   0.00    -0.04   0.04   0.02
  22   6     0.00  -0.00  -0.00    -0.00  -0.00  -0.00    -0.00  -0.02  -0.00
  23   6    -0.00  -0.00   0.00     0.00  -0.00  -0.00    -0.00  -0.00  -0.00
  24   6     0.00  -0.00   0.00    -0.00   0.00   0.00    -0.00   0.00   0.00
  25  17     0.00   0.00   0.00     0.00   0.00   0.00     0.00  -0.00   0.00
  26   1    -0.02   0.02  -0.01    -0.02   0.02  -0.01     0.01  -0.01   0.00
  27   1    -0.00  -0.00   0.00    -0.00  -0.00  -0.00     0.00   0.00   0.00
  28   1     0.01   0.02   0.00     0.02   0.04   0.00     0.00   0.00  -0.00
  29   1     0.39  -0.39   0.22     0.21  -0.23   0.12     0.00  -0.00   0.00
  30   1     0.13   0.36   0.01     0.23   0.58   0.03    -0.00  -0.00  -0.00
  31   1    -0.19  -0.57  -0.05     0.20   0.62   0.06    -0.00  -0.00  -0.00
  32   1     0.24   0.06  -0.15    -0.12  -0.04   0.07     0.00   0.00  -0.00
  33   1     0.00   0.00   0.00     0.00  -0.00  -0.00    -0.00   0.00   0.00
  34   1     0.00  -0.00  -0.00     0.00   0.00   0.00     0.00   0.00   0.00
  35   1     0.00  -0.00  -0.00    -0.00   0.00  -0.00     0.09  -0.09  -0.05
  36   1    -0.00  -0.00  -0.00    -0.00  -0.00  -0.00     0.21   0.81   0.19
  37   1     0.00   0.00  -0.00    -0.00  -0.00   0.00    -0.32  -0.10   0.05
  38   1     0.00  -0.00  -0.00     0.00  -0.00   0.00    -0.00   0.00   0.00
  39   1    -0.00  -0.00   0.00     0.00   0.00   0.00    -0.00  -0.01  -0.00
  40   1    -0.00  -0.00   0.00     0.00  -0.00   0.00     0.02   0.01  -0.00
  41   1     0.00   0.00  -0.00    -0.00  -0.00   0.00    -0.08  -0.03   0.01
  42   1     0.00  -0.00  -0.00     0.00  -0.00  -0.00     0.16  -0.14  -0.08
  43   1     0.00   0.00   0.00     0.00   0.00   0.00     0.01   0.06   0.01
                    112                    113                    114
                        a                      a                      a 
 Frequencies --  3092.3577              3094.0559              3108.4353
 Red. masses --     1.7795                 1.7808                 1.8623
 Frc consts  --     0.0000                 0.0000                 0.0000
 IR Inten    --    47.2603                23.0177                16.9596
 Raman Activ --     0.0000                 0.0000                 0.0000
 Depolar     --     0.0000                 0.0000                 0.0000
 Atom AN      X      Y      Z        X      Y      Z        X      Y      Z
   1   7     0.00  -0.00   0.00    -0.00   0.00  -0.00    -0.00   0.00  -0.00
   2   6     0.00   0.00   0.00    -0.00   0.00  -0.00    -0.00   0.00  -0.00
   3   6     0.00  -0.00  -0.00    -0.00   0.00   0.00    -0.00   0.00   0.00
   4   8     0.00   0.00   0.00     0.00   0.00  -0.00    -0.00  -0.00  -0.00
   5   6     0.00   0.00   0.00    -0.00  -0.00  -0.00     0.00   0.00  -0.00
   6   6    -0.00   0.00   0.00     0.00  -0.00  -0.00    -0.00   0.00   0.00
   7   6     0.00   0.00   0.00     0.00   0.01   0.00    -0.00  -0.01  -0.00
   8   6     0.00   0.00   0.00     0.00   0.00   0.00     0.00  -0.00  -0.00
   9   6     0.00  -0.00  -0.00    -0.00  -0.00  -0.00    -0.00   0.00   0.00
  10   6    -0.00  -0.00  -0.00     0.00   0.00  -0.00     0.00  -0.00  -0.00
  11   6    -0.00   0.00   0.00     0.00  -0.00  -0.00     0.02  -0.02  -0.01
  12   6     0.02   0.06   0.01    -0.00  -0.01  -0.00     0.01   0.04   0.01
  13   6    -0.02  -0.01   0.00     0.01   0.00  -0.00     0.11   0.03  -0.02
  14   6    -0.00  -0.00   0.00     0.00   0.00  -0.00     0.00  -0.00  -0.00
  15   6     0.00  -0.00  -0.00     0.00  -0.00  -0.00    -0.00   0.00   0.00
  16   6     0.00  -0.00  -0.00     0.02  -0.02  -0.01    -0.01   0.01   0.01
  17   6     0.02   0.06   0.01     0.05   0.22   0.05    -0.02  -0.07  -0.02
  18   6    -0.04  -0.01   0.01    -0.09  -0.03   0.01    -0.13  -0.04   0.02
  19   6     0.00   0.00  -0.00    -0.01  -0.00   0.00    -0.00   0.01   0.00
  20   6     0.08   0.03  -0.01    -0.01  -0.00   0.00     0.16   0.06  -0.02
  21   6    -0.16   0.14   0.08     0.05  -0.05  -0.03     0.05  -0.05  -0.03
  22   6    -0.01  -0.03  -0.01     0.00   0.01   0.00     0.01   0.03   0.01
  23   6    -0.00  -0.00  -0.00    -0.00   0.00   0.00     0.00   0.00   0.00
  24   6     0.00  -0.00  -0.00     0.00  -0.00  -0.00     0.00  -0.00  -0.00
  25  17    -0.00   0.00  -0.00     0.00  -0.00   0.00    -0.00   0.00  -0.00
  26   1    -0.00   0.00  -0.00     0.00  -0.00   0.00     0.01  -0.00   0.00
  27   1    -0.00  -0.00  -0.00     0.00   0.00   0.00     0.00   0.00   0.00
  28   1    -0.00  -0.00   0.00     0.00   0.00  -0.00     0.00   0.00  -0.00
  29   1    -0.00   0.00  -0.00     0.00  -0.00   0.00     0.00  -0.00   0.00
  30   1    -0.00  -0.00  -0.00    -0.00  -0.00  -0.00    -0.00  -0.00  -0.00
  31   1     0.00   0.00  -0.00    -0.00   0.00   0.00    -0.00  -0.00  -0.00
  32   1    -0.00  -0.00   0.00     0.00   0.00  -0.00     0.00   0.00  -0.00
  33   1     0.00  -0.00  -0.00    -0.01   0.01   0.00     0.01  -0.01  -0.00
  34   1    -0.00  -0.01  -0.00    -0.01  -0.02  -0.01     0.00   0.02   0.01
  35   1    -0.01   0.00   0.00    -0.00   0.00   0.00    -0.06   0.06   0.03
  36   1    -0.06  -0.21  -0.05     0.01   0.04   0.01    -0.03  -0.12  -0.03
  37   1     0.09   0.03  -0.01    -0.03  -0.01   0.00    -0.37  -0.12   0.06
  38   1    -0.02   0.02   0.01    -0.08   0.08   0.04     0.05  -0.05  -0.02
  39   1    -0.06  -0.23  -0.05    -0.20  -0.79  -0.18     0.06   0.23   0.05
  40   1     0.13   0.04  -0.02     0.34   0.11  -0.05     0.46   0.15  -0.06
  41   1    -0.32  -0.11   0.04     0.06   0.02  -0.01    -0.57  -0.20   0.08
  42   1     0.56  -0.51  -0.28    -0.19   0.17   0.09    -0.16   0.15   0.08
  43   1     0.03   0.12   0.03    -0.01  -0.05  -0.01    -0.03  -0.12  -0.03
                    115                    116                    117
                        a                      a                      a 
 Frequencies --  3108.7819              3112.8530              3123.6653
 Red. masses --     1.8565                 1.8528                 1.8581
 Frc consts  --     0.0000                 0.0000                 0.0000
 IR Inten    --    56.8601                83.3067                 2.8287
 Raman Activ --     0.0000                 0.0000                 0.0000
 Depolar     --     0.0000                 0.0000                 0.0000
 Atom AN      X      Y      Z        X      Y      Z        X      Y      Z
   1   7    -0.00   0.00  -0.00     0.00  -0.00   0.00     0.00  -0.00   0.00
   2   6    -0.00   0.00  -0.00     0.00   0.00   0.00     0.00  -0.00   0.00
   3   6    -0.00   0.00   0.00     0.00   0.00   0.00     0.00  -0.00   0.00
   4   8    -0.00  -0.00  -0.00    -0.00  -0.00  -0.00    -0.00  -0.00  -0.00
   5   6     0.00   0.00  -0.00     0.00   0.00   0.00     0.00  -0.00  -0.00
   6   6    -0.00   0.00   0.00    -0.01   0.01   0.00     0.02  -0.02  -0.01
   7   6     0.00   0.00   0.00    -0.00  -0.01  -0.00     0.01   0.02   0.01
   8   6     0.00  -0.00  -0.00    -0.00  -0.00  -0.00     0.00   0.00   0.00
   9   6    -0.00   0.00   0.00    -0.00   0.00   0.00     0.00  -0.00  -0.00
  10   6     0.00  -0.00  -0.00    -0.00  -0.00  -0.00    -0.01  -0.00   0.00
  11   6     0.02  -0.02  -0.01    -0.01   0.00   0.00    -0.12   0.11   0.06
  12   6     0.02   0.09   0.02     0.00   0.02   0.00     0.01   0.04   0.01
  13   6     0.21   0.07  -0.03     0.03   0.01  -0.00     0.02   0.01  -0.00
  14   6     0.01  -0.00  -0.00     0.00  -0.00  -0.00     0.00  -0.00  -0.00
  15   6     0.00  -0.00  -0.00    -0.00  -0.00   0.00     0.00  -0.00  -0.00
  16   6     0.01  -0.01  -0.00    -0.02   0.02   0.01     0.01  -0.01  -0.01
  17   6     0.01   0.04   0.01    -0.02  -0.07  -0.02    -0.00  -0.00  -0.00
  18   6     0.09   0.03  -0.01    -0.18  -0.06   0.03     0.00   0.00  -0.00
  19   6     0.00  -0.00  -0.00    -0.01  -0.00   0.00     0.00   0.00   0.00
  20   6    -0.06  -0.02   0.01    -0.16  -0.06   0.02     0.03   0.01  -0.00
  21   6    -0.03   0.02   0.01    -0.04   0.04   0.02     0.04  -0.04  -0.02
  22   6     0.00   0.00  -0.00    -0.00  -0.03  -0.01    -0.04  -0.18  -0.04
  23   6     0.00  -0.00  -0.00    -0.00  -0.00   0.00    -0.01  -0.00   0.00
  24   6    -0.00   0.00   0.00     0.00   0.00  -0.00     0.00   0.00   0.00
  25  17    -0.00   0.00  -0.00    -0.00   0.00  -0.00     0.00   0.00  -0.00
  26   1     0.01  -0.01   0.01    -0.00   0.00  -0.00    -0.00   0.00  -0.00
  27   1     0.00   0.00   0.00    -0.00  -0.00  -0.00    -0.00  -0.00  -0.00
  28   1     0.00   0.00   0.00     0.00  -0.00   0.00    -0.00  -0.00   0.00
  29   1     0.00  -0.00   0.00    -0.00   0.00  -0.00    -0.00   0.00  -0.00
  30   1    -0.00  -0.00  -0.00    -0.00  -0.00  -0.00    -0.00  -0.00   0.00
  31   1    -0.00  -0.00  -0.00     0.00  -0.00  -0.00    -0.00   0.00  -0.00
  32   1     0.00   0.00  -0.00    -0.00  -0.00   0.00    -0.00  -0.00   0.00
  33   1     0.00  -0.00  -0.00     0.02  -0.02  -0.01    -0.06   0.06   0.03
  34   1    -0.00  -0.01  -0.00     0.01   0.03   0.01    -0.02  -0.08  -0.02
  35   1    -0.07   0.07   0.04     0.01  -0.01  -0.01     0.42  -0.40  -0.22
  36   1    -0.07  -0.28  -0.07    -0.01  -0.05  -0.01    -0.03  -0.13  -0.03
  37   1    -0.75  -0.24   0.11    -0.09  -0.03   0.01    -0.07  -0.02   0.01
  38   1    -0.03   0.03   0.01     0.07  -0.07  -0.04    -0.05   0.05   0.03
  39   1    -0.03  -0.14  -0.03     0.06   0.23   0.05     0.00   0.01   0.00
  40   1    -0.31  -0.10   0.04     0.61   0.21  -0.09    -0.00  -0.00   0.00
  41   1     0.21   0.07  -0.03     0.56   0.19  -0.08    -0.09  -0.03   0.01
  42   1     0.08  -0.07  -0.04     0.14  -0.13  -0.07    -0.11   0.10   0.06
  43   1     0.00   0.00   0.00     0.02   0.11   0.03     0.15   0.64   0.15
                    118                    119                    120
                        a                      a                      a 
 Frequencies --  3123.9308              3131.0495              3137.2923
 Red. masses --     1.7985                 1.8634                 1.8110
 Frc consts  --     0.0000                 0.0000                 0.0000
 IR Inten    --    13.6286                 6.6752                58.3224
 Raman Activ --     0.0000                 0.0000                 0.0000
 Depolar     --     0.0000                 0.0000                 0.0000
 Atom AN      X      Y      Z        X      Y      Z        X      Y      Z
   1   7    -0.00   0.00  -0.00     0.00  -0.00   0.00    -0.00   0.00  -0.00
   2   6    -0.00   0.00   0.00     0.00  -0.00   0.00    -0.00  -0.00  -0.00
   3   6    -0.00   0.00  -0.00     0.00  -0.00   0.00    -0.00   0.00   0.00
   4   8     0.00   0.00  -0.00    -0.00  -0.00   0.00     0.00  -0.00   0.00
   5   6    -0.01   0.00   0.00     0.01   0.00  -0.00    -0.00   0.00   0.00
   6   6    -0.14   0.13   0.08     0.11  -0.10  -0.06     0.00  -0.00  -0.00
   7   6    -0.03  -0.13  -0.03    -0.02  -0.10  -0.03    -0.00  -0.02  -0.00
   8   6    -0.00  -0.00  -0.00    -0.00   0.00   0.00    -0.00  -0.00   0.00
   9   6     0.00   0.00  -0.00     0.00   0.00   0.00    -0.00   0.00   0.00
  10   6    -0.00  -0.00   0.00    -0.00  -0.00  -0.00     0.01  -0.00  -0.00
  11   6    -0.02   0.02   0.01    -0.00   0.00   0.00     0.13  -0.13  -0.07
  12   6     0.00   0.00   0.00     0.00   0.00   0.00    -0.01  -0.03  -0.01
  13   6    -0.00   0.00   0.00     0.00   0.00  -0.00    -0.01  -0.00   0.00
  14   6     0.00  -0.00  -0.00    -0.00   0.00   0.00    -0.00   0.00   0.00
  15   6    -0.00  -0.00   0.00    -0.01  -0.00   0.00     0.00  -0.00  -0.00
  16   6    -0.06   0.06   0.03    -0.14   0.13   0.07     0.01  -0.01  -0.00
  17   6     0.01   0.03   0.01     0.01   0.04   0.01     0.00  -0.00  -0.00
  18   6     0.02   0.00  -0.00     0.02   0.00  -0.00     0.00   0.00  -0.00
  19   6     0.00  -0.00  -0.00     0.00  -0.00  -0.00     0.00   0.00   0.00
  20   6     0.01   0.00  -0.00     0.00   0.00  -0.00     0.01   0.01  -0.00
  21   6     0.01  -0.01  -0.00     0.00  -0.00  -0.00     0.02  -0.02  -0.01
  22   6    -0.01  -0.02  -0.01    -0.00  -0.01  -0.00    -0.04  -0.17  -0.04
  23   6    -0.00  -0.00   0.00    -0.00   0.00   0.00    -0.00  -0.00  -0.00
  24   6     0.00  -0.00  -0.00     0.00  -0.00  -0.00     0.00   0.00   0.00
  25  17     0.00   0.00  -0.00    -0.00   0.00   0.00     0.00  -0.00   0.00
  26   1     0.01  -0.01   0.01    -0.01   0.01  -0.00     0.01  -0.01   0.00
  27   1     0.00   0.00   0.00    -0.00  -0.00  -0.00     0.00   0.00   0.00
  28   1    -0.00   0.00   0.00     0.00  -0.00  -0.00     0.00   0.00  -0.00
  29   1     0.00  -0.00   0.00    -0.00   0.00  -0.00     0.00  -0.00   0.00
  30   1    -0.00  -0.00  -0.00     0.00   0.00   0.00     0.00   0.00   0.00
  31   1     0.00  -0.01   0.00    -0.00   0.00  -0.00    -0.00  -0.00  -0.00
  32   1     0.00  -0.00  -0.00    -0.00   0.00   0.00     0.00   0.00  -0.00
  33   1     0.51  -0.47  -0.28    -0.37   0.34   0.20    -0.01   0.01   0.00
  34   1     0.12   0.48   0.12     0.07   0.32   0.08     0.02   0.07   0.02
  35   1     0.07  -0.06  -0.04     0.01  -0.01  -0.01    -0.48   0.45   0.25
  36   1    -0.00  -0.01  -0.00    -0.00  -0.01  -0.00     0.02   0.09   0.02
  37   1     0.00   0.00   0.00    -0.00  -0.00   0.00     0.04   0.01  -0.01
  38   1     0.20  -0.19  -0.10     0.48  -0.46  -0.24    -0.03   0.03   0.02
  39   1    -0.02  -0.08  -0.02    -0.03  -0.12  -0.03    -0.00  -0.00  -0.00
  40   1    -0.05  -0.02   0.01    -0.05  -0.02   0.01    -0.01  -0.00   0.00
  41   1    -0.03  -0.01   0.00    -0.01  -0.00   0.00    -0.04  -0.01   0.00
  42   1    -0.02   0.02   0.01    -0.01   0.01   0.00    -0.06   0.06   0.03
  43   1     0.02   0.08   0.02     0.01   0.03   0.01     0.14   0.61   0.14
                    121                    122                    123
                        a                      a                      a 
 Frequencies --  3141.1551              3176.0180              3190.6882
 Red. masses --     1.8335                 1.9927                 1.5470
 Frc consts  --     0.0000                 0.0000                 0.0000
 IR Inten    --    12.2278               220.9222                56.8825
 Raman Activ --     0.0000                 0.0000                 0.0000
 Depolar     --     0.0000                 0.0000                 0.0000
 Atom AN      X      Y      Z        X      Y      Z        X      Y      Z
   1   7     0.00  -0.00   0.00     0.17  -0.09   0.19     0.04  -0.11  -0.17
   2   6     0.00  -0.00   0.00     0.01  -0.00   0.00     0.01  -0.00  -0.00
   3   6     0.00   0.00   0.00    -0.00   0.00  -0.00     0.00   0.00  -0.00
   4   8    -0.00  -0.00  -0.00     0.00   0.00  -0.00     0.00  -0.00   0.00
   5   6     0.00   0.00   0.00    -0.00   0.00   0.00    -0.00   0.00   0.00
   6   6     0.06  -0.05  -0.03    -0.00   0.00   0.00    -0.00   0.00   0.00
   7   6    -0.05  -0.20  -0.05    -0.00   0.00   0.00    -0.00  -0.00  -0.00
   8   6    -0.00  -0.00   0.00     0.00  -0.00  -0.00     0.00  -0.00  -0.00
   9   6     0.00   0.00   0.00     0.00   0.00  -0.00     0.00   0.00  -0.00
  10   6    -0.00   0.00   0.00     0.00   0.00   0.00     0.00   0.00   0.00
  11   6    -0.01   0.01   0.01     0.00  -0.00  -0.00     0.00  -0.00  -0.00
  12   6     0.00   0.00   0.00     0.00  -0.00  -0.00     0.00  -0.00  -0.00
  13   6     0.00   0.00  -0.00     0.00   0.00  -0.00     0.00   0.00  -0.00
  14   6    -0.00   0.00   0.00     0.00   0.00  -0.00     0.00   0.00  -0.00
  15   6     0.00  -0.00  -0.00    -0.00  -0.00  -0.00    -0.00  -0.00   0.00
  16   6     0.10  -0.10  -0.05    -0.00   0.00   0.00     0.00  -0.00  -0.00
  17   6    -0.00  -0.02  -0.01     0.00   0.00   0.00    -0.00  -0.00  -0.00
  18   6    -0.01  -0.00   0.00     0.00   0.00  -0.00    -0.00  -0.00   0.00
  19   6    -0.00   0.00   0.00    -0.00   0.00  -0.00     0.00   0.00  -0.00
  20   6    -0.00  -0.00   0.00     0.00   0.00  -0.00    -0.00   0.00   0.00
  21   6    -0.00   0.00   0.00     0.00  -0.00  -0.00     0.00  -0.00  -0.00
  22   6     0.00   0.02   0.00    -0.00  -0.00  -0.00     0.00   0.00   0.00
  23   6     0.00   0.00   0.00    -0.00   0.00   0.00    -0.00  -0.00   0.00
  24   6    -0.00   0.00   0.00    -0.00   0.00   0.00    -0.00   0.00   0.00
  25  17     0.00   0.00   0.00     0.00  -0.00   0.00     0.00   0.00   0.00
  26   1    -0.01   0.01  -0.00    -0.58   0.54  -0.35    -0.27   0.24  -0.19
  27   1    -0.00  -0.00  -0.01    -0.05  -0.12  -0.37     0.14   0.23   0.84
  28   1    -0.00  -0.01   0.00    -0.01  -0.08   0.02    -0.02  -0.07  -0.02
  29   1    -0.00   0.00  -0.00    -0.02   0.02  -0.01    -0.01   0.01  -0.00
  30   1     0.00   0.00   0.00    -0.00  -0.01  -0.00    -0.00  -0.00   0.00
  31   1    -0.00   0.00  -0.00    -0.00  -0.01  -0.00    -0.00  -0.00   0.00
  32   1    -0.00   0.00   0.00     0.00  -0.00   0.00    -0.00  -0.00   0.00
  33   1    -0.19   0.17   0.10     0.02  -0.02  -0.01     0.00  -0.00  -0.00
  34   1     0.17   0.69   0.18    -0.00  -0.00  -0.00     0.00   0.00   0.00
  35   1     0.04  -0.04  -0.02    -0.01   0.01   0.01    -0.00   0.00   0.00
  36   1    -0.00  -0.01  -0.00     0.00   0.01   0.00     0.00   0.00   0.00
  37   1    -0.01  -0.00   0.00    -0.02  -0.01   0.00    -0.01  -0.00   0.00
  38   1    -0.37   0.35   0.19     0.00  -0.00  -0.00    -0.00   0.00   0.00
  39   1     0.02   0.06   0.01    -0.00  -0.00  -0.00     0.00   0.00   0.00
  40   1     0.03   0.01  -0.00    -0.00  -0.00   0.00     0.00   0.00  -0.00
  41   1     0.01   0.00  -0.00    -0.00  -0.00   0.00     0.00   0.00  -0.00
  42   1     0.01  -0.01  -0.00    -0.00   0.00   0.00    -0.00   0.00  -0.00
  43   1    -0.01  -0.05  -0.01     0.00   0.01   0.00    -0.00  -0.00  -0.00
