 Entering Gaussian System
 *********************************************
 Gaussian 98:
 frequency output generated by the xtb code
 *********************************************
                         Standard orientation:
 --------------------------------------------------------------------
  Center     Atomic     Atomic              Coordinates (Angstroms)
  Number     Number      Type              X           Y           Z
 --------------------------------------------------------------------
    1          7             0       -1.202269    0.241256    0.000004
    2          6             0        0.048377   -0.573920   -0.000009
    3          6             0        1.314752    0.265093   -0.000015
    4          1             0       -2.043682   -0.354409    0.001378
    5          1             0       -1.253849    0.846125   -0.832067
    6          1             0       -1.252513    0.847948    0.830823
    7          1             0        0.036300   -1.240002   -0.876238
    8          1             0        0.036277   -1.240079    0.876152
    9          1             0        1.362722    0.910371   -0.880766
   10          1             0        2.216838   -0.354362    0.001323
   11          1             0        1.361528    0.912044    0.879574
 --------------------------------------------------------------------
     1 basis functions        1 primitive gaussians
     1 alpha electrons        1 beta electrons

 Harmonic frequencies (cm**-1), IR intensities (km*mol⁻¹),
 Raman scattering activities (A**4/amu), Raman depolarization ratios,
 reduced masses (AMU), force constants (mDyne/A) and normal coordinates:
                      1                      2                      3
                        a                      a                      a 
 Frequencies --   203.1224               293.4582               369.1704
 Red. masses --     1.5439                 2.1703                 8.0583
 Frc consts  --     0.0000                 0.0000                 0.0000
 IR Inten    --     0.0037                 2.5303                13.7636
 Raman Activ --     0.0000                 0.0000                 0.0000
 Depolar     --     0.0000                 0.0000                 0.0000
 Atom AN      X      Y      Z        X      Y      Z        X      Y      Z
   1   7     0.00  -0.00   0.02    -0.00  -0.00   0.17    -0.45  -0.13  -0.00
   2   6    -0.00   0.00   0.16    -0.00   0.00  -0.26     0.03   0.41   0.00
   3   6     0.00  -0.00  -0.15     0.00  -0.00   0.05     0.45  -0.14  -0.00
   4   1    -0.00  -0.00  -0.54     0.00  -0.00   0.15     0.01  -0.22  -0.00
   5   1     0.29   0.37   0.25    -0.10  -0.01   0.04    -0.26  -0.05  -0.00
   6   1    -0.29  -0.37   0.25     0.10   0.01   0.04    -0.26  -0.05   0.00
   7   1    -0.01  -0.04   0.08    -0.01   0.07  -0.13     0.01   0.11   0.00
   8   1     0.01   0.04   0.08     0.01  -0.07  -0.13     0.01   0.11  -0.00
   9   1     0.02  -0.14  -0.14     0.30  -0.33  -0.21     0.26  -0.05   0.00
  10   1    -0.00   0.00   0.07    -0.00   0.00   0.56     0.00  -0.23  -0.00
  11   1    -0.02   0.13  -0.14    -0.30   0.33  -0.21     0.26  -0.05   0.00
                      4                      5                      6
                        a                      a                      a 
 Frequencies --   816.0826               892.7675               908.4646
 Red. masses --     1.7582                 8.5676                 2.1434
 Frc consts  --     0.0000                 0.0000                 0.0000
 IR Inten    --    42.9920                20.2767                 6.4580
 Raman Activ --     0.0000                 0.0000                 0.0000
 Depolar     --     0.0000                 0.0000                 0.0000
 Atom AN      X      Y      Z        X      Y      Z        X      Y      Z
   1   7    -0.00   0.00   0.08    -0.50   0.15  -0.00     0.00   0.00   0.23
   2   6     0.00  -0.00   0.24     0.15  -0.41  -0.00     0.00  -0.00  -0.10
   3   6     0.00   0.00   0.03     0.40   0.09   0.00     0.00  -0.00  -0.17
   4   1    -0.00   0.00  -0.10    -0.31   0.29   0.00     0.00  -0.00  -0.15
   5   1     0.26  -0.21  -0.14     0.05   0.06   0.01     0.34  -0.24  -0.13
   6   1    -0.26   0.21  -0.14     0.05   0.06  -0.01    -0.34   0.24  -0.13
   7   1     0.03   0.43  -0.26     0.01  -0.10  -0.00    -0.31  -0.08   0.04
   8   1    -0.03  -0.43  -0.26     0.01  -0.10   0.00     0.31   0.08   0.04
   9   1    -0.18  -0.16  -0.12    -0.04   0.05   0.01     0.27   0.21   0.13
  10   1     0.00   0.00  -0.09     0.28   0.26  -0.00     0.00   0.00   0.15
  11   1     0.18   0.16  -0.12    -0.04   0.05  -0.01    -0.28  -0.21   0.13
                      7                      8                      9
                        a                      a                      a 
 Frequencies --   917.4101              1052.0850              1145.2238
 Red. masses --     3.4419                 8.8645                 7.0118
 Frc consts  --     0.0000                 0.0000                 0.0000
 IR Inten    --    28.4704                29.8256                23.3117
 Raman Activ --     0.0000                 0.0000                 0.0000
 Depolar     --     0.0000                 0.0000                 0.0000
 Atom AN      X      Y      Z        X      Y      Z        X      Y      Z
   1   7    -0.05  -0.33   0.00    -0.24   0.24   0.00     0.10   0.19  -0.00
   2   6    -0.16   0.10  -0.00     0.63  -0.12   0.00    -0.20  -0.49  -0.00
   3   6    -0.02   0.23  -0.00    -0.41  -0.05  -0.00     0.10   0.45  -0.00
   4   1    -0.34   0.37  -0.00    -0.04   0.03  -0.00     0.19  -0.18  -0.00
   5   1     0.35  -0.03   0.01    -0.09   0.06   0.00    -0.17   0.00  -0.02
   6   1     0.35  -0.03  -0.02    -0.09   0.06  -0.00    -0.17   0.01   0.02
   7   1     0.10   0.02   0.01     0.24  -0.01  -0.02    -0.12  -0.14   0.00
   8   1     0.10   0.02  -0.01     0.24  -0.01   0.02    -0.12  -0.14  -0.00
   9   1     0.26   0.02  -0.01     0.06  -0.07  -0.02     0.30   0.06  -0.02
  10   1    -0.24  -0.29   0.00    -0.28  -0.27   0.00    -0.20  -0.22  -0.00
  11   1     0.26   0.02   0.01     0.06  -0.07   0.02     0.30   0.06   0.02
                     10                     11                     12
                        a                      a                      a 
 Frequencies --  1175.3497              1253.2109              1324.1722
 Red. masses --     5.7683                 2.1508                 3.6168
 Frc consts  --     0.0000                 0.0000                 0.0000
 IR Inten    --    15.6566                14.9381                14.8709
 Raman Activ --     0.0000                 0.0000                 0.0000
 Depolar     --     0.0000                 0.0000                 0.0000
 Atom AN      X      Y      Z        X      Y      Z        X      Y      Z
   1   7    -0.00   0.00   0.24     0.00   0.00   0.21     0.05  -0.20   0.00
   2   6     0.00  -0.00  -0.49    -0.00  -0.00  -0.02     0.41   0.07  -0.00
   3   6    -0.00   0.00   0.34     0.00  -0.00  -0.23    -0.02   0.10  -0.00
   4   1    -0.00   0.00  -0.09    -0.00  -0.00  -0.06    -0.13   0.14   0.00
   5   1     0.18  -0.14  -0.05     0.10  -0.10  -0.03    -0.05   0.07   0.08
   6   1    -0.18   0.14  -0.05    -0.10   0.10  -0.03    -0.05   0.07  -0.08
   7   1     0.05  -0.29   0.09     0.62  -0.04   0.02    -0.58   0.01   0.01
   8   1    -0.05   0.29   0.09    -0.62   0.04   0.02    -0.58   0.01  -0.01
   9   1    -0.26  -0.22  -0.10     0.14   0.13   0.05    -0.03  -0.05  -0.05
  10   1     0.00   0.00  -0.17    -0.00   0.00   0.07    -0.08  -0.08   0.00
  11   1     0.26   0.22  -0.10    -0.14  -0.13   0.05    -0.03  -0.05   0.05
                     13                     14                     15
                        a                      a                      a 
 Frequencies --  1394.3162              1432.1120              1434.3374
 Red. masses --     2.9709                 2.2409                 1.6135
 Frc consts  --     0.0000                 0.0000                 0.0000
 IR Inten    --   203.8768                79.0074                76.5161
 Raman Activ --     0.0000                 0.0000                 0.0000
 Depolar     --     0.0000                 0.0000                 0.0000
 Atom AN      X      Y      Z        X      Y      Z        X      Y      Z
   1   7     0.34  -0.15  -0.00     0.03   0.16  -0.00     0.00   0.00   0.21
   2   6    -0.11  -0.04  -0.00     0.02   0.04  -0.00     0.00  -0.00   0.03
   3   6     0.06  -0.01   0.00     0.26   0.11   0.00    -0.00  -0.00  -0.02
   4   1    -0.30   0.45   0.00    -0.06   0.11  -0.00    -0.00  -0.00  -0.73
   5   1    -0.47   0.10   0.11    -0.03  -0.38  -0.29    -0.41  -0.17  -0.08
   6   1    -0.47   0.10  -0.11    -0.02  -0.38   0.29     0.41   0.17  -0.08
   7   1     0.16   0.04  -0.03    -0.01  -0.05   0.04    -0.03   0.02  -0.00
   8   1     0.16   0.04   0.03    -0.01  -0.05  -0.04     0.03  -0.02  -0.00
   9   1    -0.06   0.02   0.01    -0.35  -0.00  -0.04    -0.04   0.02   0.01
  10   1    -0.02  -0.05  -0.00    -0.22  -0.35   0.00     0.00   0.00   0.07
  11   1    -0.06   0.02  -0.01    -0.35  -0.00   0.03     0.05  -0.02   0.01
                     16                     17                     18
                        a                      a                      a 
 Frequencies --  1441.4094              1480.4041              1484.5934
 Red. masses --     2.3414                 1.4795                 1.8574
 Frc consts  --     0.0000                 0.0000                 0.0000
 IR Inten    --    13.0310                32.0018                 6.5648
 Raman Activ --     0.0000                 0.0000                 0.0000
 Depolar     --     0.0000                 0.0000                 0.0000
 Atom AN      X      Y      Z        X      Y      Z        X      Y      Z
   1   7    -0.08  -0.11   0.00    -0.00   0.00   0.02     0.01   0.00   0.00
   2   6    -0.08  -0.02   0.00    -0.00  -0.00   0.05     0.04   0.25   0.00
   3   6     0.27   0.13   0.00    -0.00   0.00   0.20    -0.04  -0.11   0.00
   4   1     0.12  -0.19  -0.00    -0.00  -0.00  -0.07    -0.02   0.03  -0.00
   5   1     0.10   0.36   0.26    -0.04  -0.02  -0.01    -0.04   0.04   0.03
   6   1     0.10   0.36  -0.26     0.04   0.01  -0.01    -0.04   0.04  -0.03
   7   1     0.09  -0.04   0.02     0.01   0.03  -0.00     0.01  -0.49   0.38
   8   1     0.09  -0.04  -0.02    -0.01  -0.02  -0.00     0.01  -0.49  -0.38
   9   1    -0.34  -0.05  -0.07     0.44  -0.15  -0.07     0.03   0.20   0.15
  10   1    -0.20  -0.32   0.00     0.00  -0.00  -0.71    -0.01  -0.02  -0.00
  11   1    -0.34  -0.05   0.07    -0.44   0.15  -0.07     0.03   0.20  -0.16
                     19                     20                     21
                        a                      a                      a 
 Frequencies --  1491.7453              2919.6353              2943.8467
 Red. masses --     1.6971                 1.9724                 1.5237
 Frc consts  --     0.0000                 0.0000                 0.0000
 IR Inten    --    13.8247                 0.2481                 2.7882
 Raman Activ --     0.0000                 0.0000                 0.0000
 Depolar     --     0.0000                 0.0000                 0.0000
 Atom AN      X      Y      Z        X      Y      Z        X      Y      Z
   1   7     0.02   0.01  -0.00    -0.00   0.00  -0.00     0.00   0.00  -0.00
   2   6    -0.05   0.13  -0.00    -0.00   0.00   0.30    -0.00  -0.21   0.00
   3   6    -0.04   0.20  -0.00     0.00  -0.00  -0.02    -0.01   0.03  -0.00
   4   1    -0.02   0.04   0.00    -0.00  -0.00  -0.00    -0.00  -0.00  -0.00
   5   1    -0.03  -0.03  -0.02     0.00  -0.01   0.01     0.00  -0.01   0.02
   6   1    -0.03  -0.03   0.02    -0.00   0.01   0.01     0.00  -0.01  -0.02
   7   1     0.06  -0.19   0.15    -0.00  -0.41  -0.53    -0.00   0.39   0.57
   8   1     0.06  -0.19  -0.15     0.00   0.41  -0.53    -0.00   0.39  -0.57
   9   1     0.04  -0.49  -0.37    -0.00  -0.05   0.05    -0.00  -0.04   0.06
  10   1     0.11   0.18   0.00     0.00  -0.00  -0.01     0.04  -0.03   0.00
  11   1     0.04  -0.49   0.37     0.00   0.05   0.05    -0.00  -0.04  -0.06
                     22                     23                     24
                        a                      a                      a 
 Frequencies --  2993.1857              2999.5511              3010.6125
 Red. masses --     1.9016                 1.9552                 1.3378
 Frc consts  --     0.0000                 0.0000                 0.0000
 IR Inten    --     1.5020                 9.2898                 8.4784
 Raman Activ --     0.0000                 0.0000                 0.0000
 Depolar     --     0.0000                 0.0000                 0.0000
 Atom AN      X      Y      Z        X      Y      Z        X      Y      Z
   1   7    -0.00   0.00   0.00     0.00  -0.00   0.00     0.00   0.00  -0.00
   2   6     0.00  -0.02  -0.00    -0.00   0.00  -0.04    -0.00  -0.02   0.00
   3   6     0.19  -0.21  -0.00    -0.00   0.00  -0.29    -0.08  -0.15   0.00
   4   1    -0.00  -0.00   0.00     0.00  -0.00   0.00    -0.01  -0.01   0.00
   5   1    -0.00  -0.00   0.01     0.00  -0.00  -0.00    -0.00  -0.00  -0.00
   6   1    -0.00  -0.00  -0.01    -0.00   0.00  -0.00    -0.00  -0.00   0.00
   7   1    -0.00   0.03   0.05    -0.00   0.04   0.05    -0.00   0.03   0.05
   8   1    -0.00   0.03  -0.05     0.00  -0.04   0.06    -0.00   0.03  -0.05
   9   1     0.03   0.10  -0.18    -0.02  -0.41   0.53     0.02   0.37  -0.54
  10   1    -0.74   0.52  -0.00     0.00  -0.00  -0.04     0.26  -0.21   0.00
  11   1     0.03   0.11   0.19     0.02   0.41   0.53     0.02   0.37   0.54
                     25                     26                     27
                        a                      a                      a 
 Frequencies --  3211.0433              3218.1326              3236.7456
 Red. masses --     2.0219                 2.0454                 1.2877
 Frc consts  --     0.0000                 0.0000                 0.0000
 IR Inten    --    86.4119                84.0926                25.8482
 Raman Activ --     0.0000                 0.0000                 0.0000
 Depolar     --     0.0000                 0.0000                 0.0000
 Atom AN      X      Y      Z        X      Y      Z        X      Y      Z
   1   7     0.17   0.22  -0.00     0.00   0.00   0.28    -0.09   0.11   0.00
   2   6     0.00   0.01  -0.00     0.00  -0.00   0.01    -0.01   0.01   0.00
   3   6    -0.00   0.00  -0.00    -0.00  -0.00  -0.00    -0.00  -0.00  -0.00
   4   1    -0.69  -0.51   0.00    -0.00  -0.00   0.03     0.35   0.27  -0.00
   5   1     0.03  -0.16   0.25    -0.02   0.41  -0.54     0.01  -0.35   0.51
   6   1     0.03  -0.16  -0.25     0.02  -0.41  -0.54     0.01  -0.36  -0.51
   7   1    -0.00  -0.01  -0.01    -0.00  -0.01  -0.01     0.00  -0.01  -0.01
   8   1    -0.00  -0.01   0.01     0.00   0.01  -0.01     0.00  -0.01   0.01
   9   1    -0.00  -0.00   0.00     0.00  -0.00   0.00    -0.00   0.00  -0.00
  10   1     0.00  -0.00   0.00     0.00  -0.00  -0.00     0.01  -0.00   0.00
  11   1    -0.00  -0.00  -0.00    -0.00   0.00   0.00    -0.00   0.00   0.00
