 Entering Gaussian System
 *********************************************
 Gaussian 98:
 frequency output generated by the xtb code
 *********************************************
                         Standard orientation:
 --------------------------------------------------------------------
  Center     Atomic     Atomic              Coordinates (Angstroms)
  Number     Number      Type              X           Y           Z
 --------------------------------------------------------------------
    1          7             0       -2.306390   -0.899341   -1.466711
    2          6             0       -2.092863   -2.048370   -0.544649
    3          6             0       -1.404366   -1.620231    0.748668
    4          6             0       -0.103943   -0.913729    0.505332
    5          6             0        1.071103   -1.628965    0.318749
    6          6             0        2.259675   -0.983542    0.053594
    7          6             0        2.312982    0.408838   -0.041699
    8          8             0        3.469945    1.143721   -0.308434
    9          6             0        4.635981    0.369755   -0.476337
   10          6             0        1.124186    1.118874    0.138504
   11          6             0       -0.060226    0.469841    0.403299
   12         17             0       -3.400479    1.789809    0.469819
   13          1             0       -2.778104   -0.122027   -0.974210
   14          1             0       -2.875684   -1.151949   -2.290638
   15          1             0       -1.402499   -0.530096   -1.809834
   16          1             0       -1.490309   -2.811134   -1.052190
   17          1             0       -3.054505   -2.527955   -0.322735
   18          1             0       -1.231178   -2.485521    1.399999
   19          1             0       -2.067541   -0.956357    1.315229
   20          1             0        1.043077   -2.704775    0.380871
   21          1             0        3.155532   -1.562927   -0.083968
   22          1             0        4.844161   -0.192375    0.435153
   23          1             0        5.472544    1.040890   -0.676011
   24          1             0        4.515714   -0.306016   -1.324385
   25          1             0        1.156422    2.192334    0.061082
   26          1             0       -0.971903    1.032656    0.520992
 --------------------------------------------------------------------
     1 basis functions        1 primitive gaussians
     1 alpha electrons        1 beta electrons

 Harmonic frequencies (cm**-1), IR intensities (km*mol⁻¹),
 Raman scattering activities (A**4/amu), Raman depolarization ratios,
 reduced masses (AMU), force constants (mDyne/A) and normal coordinates:
                      1                      2                      3
                        a                      a                      a 
 Frequencies --  -138.5661                48.4651                60.0723
 Red. masses --    19.3700                12.4934                23.2477
 Frc consts  --     0.0000                 0.0000                 0.0000
 IR Inten    --   130.7312                 0.9341                10.2857
 Raman Activ --     0.0000                 0.0000                 0.0000
 Depolar     --     0.0000                 0.0000                 0.0000
 Atom AN      X      Y      Z        X      Y      Z        X      Y      Z
   1   7     0.25  -0.46  -0.32    -0.04   0.14   0.07    -0.12   0.05   0.01
   2   6     0.12  -0.24  -0.03    -0.01  -0.00  -0.11     0.04   0.09   0.02
   3   6    -0.03   0.02  -0.03     0.08  -0.21  -0.08     0.03   0.20  -0.01
   4   6    -0.03   0.02  -0.02     0.05  -0.15  -0.06     0.06   0.13  -0.06
   5   6    -0.03   0.01  -0.03     0.14  -0.07   0.23     0.03   0.05  -0.03
   6   6    -0.03  -0.00  -0.02     0.11  -0.01   0.24     0.07  -0.03  -0.03
   7   6    -0.02   0.00   0.00    -0.02  -0.03  -0.08     0.16  -0.04  -0.06
   8   8    -0.01  -0.01   0.01    -0.08   0.03  -0.14     0.25  -0.14  -0.04
   9   6    -0.02  -0.01  -0.01     0.04   0.11   0.23     0.20  -0.18   0.15
  10   6    -0.01   0.01   0.01    -0.12  -0.11  -0.37     0.20   0.04  -0.12
  11   6    -0.02   0.02  -0.00    -0.08  -0.16  -0.34     0.15   0.12  -0.12
  12  17    -0.15   0.49   0.32    -0.04   0.26   0.21    -0.68  -0.16   0.14
  13   1    -0.03  -0.15  -0.18    -0.01   0.02   0.06    -0.10  -0.02  -0.01
  14   1     0.16  -0.19  -0.13    -0.02   0.07   0.01     0.01  -0.02  -0.02
  15   1     0.08  -0.09  -0.01    -0.01   0.05   0.03    -0.04   0.07   0.03
  16   1     0.06  -0.09   0.05    -0.01   0.02  -0.07     0.03   0.04   0.01
  17   1     0.03  -0.06  -0.02     0.00  -0.01  -0.03     0.03  -0.00   0.02
  18   1    -0.02   0.04   0.04     0.04  -0.09  -0.07    -0.00   0.08   0.02
  19   1    -0.03   0.03  -0.06     0.03  -0.09   0.02     0.01   0.08  -0.03
  20   1    -0.01   0.00  -0.01     0.07  -0.02   0.13    -0.01   0.02   0.00
  21   1    -0.01  -0.00  -0.01     0.05   0.02   0.15     0.01  -0.03   0.00
  22   1    -0.01  -0.02  -0.01     0.01   0.13   0.13     0.02  -0.04   0.06
  23   1    -0.00  -0.00   0.01    -0.01   0.04   0.01     0.07  -0.07   0.05
  24   1    -0.00   0.01  -0.01     0.05  -0.06   0.13     0.08  -0.07   0.05
  25   1     0.00   0.00   0.01    -0.06  -0.03  -0.17     0.08   0.01  -0.04
  26   1    -0.01   0.01   0.00    -0.04  -0.06  -0.13     0.05   0.05  -0.04
                      4                      5                      6
                        a                      a                      a 
 Frequencies --    71.4271                87.6038               112.4240
 Red. masses --    11.0488                20.4214                11.1605
 Frc consts  --     0.0000                 0.0000                 0.0000
 IR Inten    --     8.4594                17.2369                24.8459
 Raman Activ --     0.0000                 0.0000                 0.0000
 Depolar     --     0.0000                 0.0000                 0.0000
 Atom AN      X      Y      Z        X      Y      Z        X      Y      Z
   1   7     0.12   0.18  -0.07     0.07  -0.04  -0.21    -0.51  -0.24  -0.04
   2   6     0.16   0.07  -0.19     0.05   0.03  -0.10    -0.18  -0.13   0.02
   3   6     0.00  -0.05  -0.07    -0.16   0.24  -0.06     0.03   0.01  -0.13
   4   6     0.03  -0.03   0.13    -0.12   0.19  -0.00     0.02   0.01  -0.20
   5   6     0.06  -0.02   0.31    -0.13   0.13   0.20     0.07   0.03  -0.01
   6   6     0.06  -0.02   0.31    -0.09   0.05   0.20     0.11   0.05   0.18
   7   6     0.03  -0.03   0.16    -0.05   0.03  -0.01     0.11   0.05   0.18
   8   8     0.01  -0.04   0.03    -0.00  -0.05  -0.07     0.15   0.07   0.36
   9   6    -0.10  -0.07  -0.53    -0.04  -0.13   0.03     0.05   0.04  -0.17
  10   6     0.02  -0.03   0.10    -0.03   0.10  -0.19     0.07   0.03   0.00
  11   6     0.01  -0.03   0.07    -0.07   0.17  -0.18     0.03   0.01  -0.20
  12  17    -0.25   0.03  -0.05     0.37  -0.44   0.29     0.10   0.08   0.02
  13   1    -0.04   0.00  -0.01     0.02  -0.02  -0.05    -0.03  -0.02   0.03
  14   1     0.08   0.05  -0.05     0.02  -0.02  -0.05    -0.26  -0.07   0.07
  15   1     0.03   0.11   0.04     0.02  -0.01  -0.06    -0.17  -0.11  -0.15
  16   1     0.08   0.06  -0.07     0.05   0.01   0.01    -0.07  -0.04  -0.01
  17   1     0.06  -0.02  -0.10     0.02  -0.01  -0.05    -0.03  -0.05   0.08
  18   1    -0.02  -0.03  -0.04    -0.07   0.10   0.03     0.02   0.02  -0.02
  19   1    -0.02  -0.03  -0.02    -0.07   0.10  -0.08     0.02   0.01  -0.03
  20   1     0.02  -0.00   0.12    -0.05   0.04   0.10     0.02   0.01   0.01
  21   1     0.02  -0.00   0.13    -0.03   0.00   0.11     0.04   0.02   0.09
  22   1     0.07  -0.06  -0.20    -0.02  -0.01   0.03     0.07  -0.07  -0.11
  23   1    -0.04  -0.03  -0.22    -0.00  -0.06  -0.02     0.01   0.01  -0.05
  24   1    -0.14   0.01  -0.17    -0.02  -0.06   0.03    -0.06   0.08  -0.10
  25   1     0.00  -0.01   0.01     0.00   0.03  -0.09     0.02   0.01   0.00
  26   1    -0.00  -0.01  -0.00    -0.02   0.06  -0.09     0.00   0.00  -0.09
                      7                      8                      9
                        a                      a                      a 
 Frequencies --   162.7628               189.7185               239.3721
 Red. masses --     9.4537                 8.3689                 7.9928
 Frc consts  --     0.0000                 0.0000                 0.0000
 IR Inten    --    10.1008                 2.6725                 2.7282
 Raman Activ --     0.0000                 0.0000                 0.0000
 Depolar     --     0.0000                 0.0000                 0.0000
 Atom AN      X      Y      Z        X      Y      Z        X      Y      Z
   1   7    -0.38  -0.08  -0.05    -0.10   0.03   0.30    -0.16   0.02  -0.09
   2   6     0.25  -0.12  -0.22     0.40  -0.16  -0.07     0.09   0.10  -0.02
   3   6     0.00  -0.03  -0.12     0.07  -0.09   0.06    -0.17   0.24   0.07
   4   6     0.01   0.04   0.12    -0.04   0.08   0.04     0.01  -0.07   0.17
   5   6     0.00   0.03   0.09    -0.08   0.06  -0.08    -0.03  -0.15   0.13
   6   6    -0.00   0.01   0.04    -0.10   0.04  -0.16    -0.00  -0.23  -0.07
   7   6    -0.00   0.01  -0.04    -0.07   0.05  -0.03     0.03  -0.23  -0.07
   8   8    -0.05  -0.03  -0.39     0.03  -0.02   0.28    -0.11   0.00   0.04
   9   6     0.02  -0.03   0.13    -0.10  -0.18   0.02     0.16   0.43  -0.03
  10   6     0.05   0.03   0.22    -0.09   0.05  -0.17     0.06  -0.18  -0.08
  11   6     0.06   0.05   0.31    -0.10   0.07  -0.15     0.06  -0.09   0.02
  12  17     0.06   0.09  -0.03     0.09   0.08  -0.04     0.05   0.00  -0.01
  13   1    -0.04  -0.04   0.07    -0.16  -0.10   0.12    -0.12  -0.03  -0.04
  14   1    -0.21  -0.02   0.06     0.06  -0.00   0.02     0.01  -0.05  -0.04
  15   1    -0.17   0.01  -0.15    -0.06   0.18   0.17    -0.06   0.08   0.00
  16   1     0.18   0.07  -0.10     0.25   0.09  -0.06     0.10   0.08   0.02
  17   1     0.14  -0.18  -0.09     0.18  -0.21  -0.09     0.05  -0.05  -0.04
  18   1    -0.01  -0.00  -0.02     0.05  -0.01   0.02    -0.15   0.10   0.09
  19   1    -0.04  -0.02  -0.07    -0.03  -0.06  -0.00    -0.05   0.15  -0.07
  20   1    -0.00   0.01   0.02    -0.03   0.02  -0.02    -0.03  -0.04   0.06
  21   1    -0.00  -0.00   0.00    -0.04   0.00  -0.08    -0.00  -0.07  -0.07
  22   1     0.01   0.16   0.14    -0.10  -0.21  -0.07    -0.00  -0.03  -0.10
  23   1    -0.01  -0.02  -0.08     0.02  -0.07   0.15     0.01   0.23   0.21
  24   1     0.03  -0.16   0.15    -0.04   0.09  -0.10     0.19   0.27  -0.15
  25   1     0.02   0.01   0.08    -0.03   0.01  -0.07     0.04  -0.06  -0.05
  26   1     0.02   0.02   0.12    -0.03   0.02  -0.06     0.02  -0.01  -0.01
                     10                     11                     12
                        a                      a                      a 
 Frequencies --   247.3340               277.3629               327.6493
 Red. masses --     3.5054                 5.8793                 9.4252
 Frc consts  --     0.0000                 0.0000                 0.0000
 IR Inten    --     1.3035                 2.6405                15.0543
 Raman Activ --     0.0000                 0.0000                 0.0000
 Depolar     --     0.0000                 0.0000                 0.0000
 Atom AN      X      Y      Z        X      Y      Z        X      Y      Z
   1   7    -0.13  -0.02   0.12    -0.18  -0.03  -0.13    -0.15   0.01  -0.25
   2   6    -0.11  -0.04   0.04    -0.21   0.05  -0.02     0.10   0.26   0.07
   3   6    -0.06   0.05  -0.03     0.05  -0.10  -0.08     0.06   0.20   0.13
   4   6    -0.04  -0.01  -0.16     0.06  -0.05   0.05     0.23  -0.17   0.20
   5   6    -0.03  -0.02  -0.14     0.16   0.06   0.21     0.22  -0.13  -0.05
   6   6     0.02  -0.03   0.07     0.06   0.15   0.04     0.08   0.07  -0.15
   7   6     0.04  -0.02   0.09     0.00   0.15  -0.06    -0.07   0.09  -0.05
   8   8    -0.01   0.02  -0.00     0.05   0.05  -0.25    -0.05   0.11   0.22
   9   6     0.05   0.11  -0.01    -0.04  -0.17   0.06    -0.25  -0.18   0.06
  10   6     0.04  -0.02   0.09    -0.02   0.07   0.12    -0.13  -0.01  -0.19
  11   6     0.01  -0.00  -0.03     0.02  -0.04   0.10     0.05  -0.19   0.08
  12  17     0.15  -0.04  -0.05     0.08  -0.04  -0.01     0.02  -0.02   0.00
  13   1    -0.41  -0.17  -0.08    -0.25  -0.08  -0.13    -0.10   0.00  -0.13
  14   1     0.33  -0.10  -0.19     0.16  -0.09  -0.15    -0.02  -0.12  -0.04
  15   1    -0.00   0.27   0.41    -0.03   0.13   0.16    -0.07   0.04  -0.11
  16   1    -0.02   0.00   0.00    -0.12  -0.03  -0.02     0.05   0.07   0.04
  17   1    -0.02  -0.03   0.01    -0.08   0.07   0.04     0.04   0.05   0.03
  18   1    -0.02   0.04   0.02     0.02  -0.07  -0.07    -0.09   0.04   0.05
  19   1    -0.00   0.04  -0.02     0.04  -0.06   0.03     0.06   0.13   0.00
  20   1    -0.02  -0.01  -0.06     0.08   0.02   0.09     0.10  -0.04  -0.05
  21   1     0.01  -0.01   0.06     0.01   0.05  -0.03     0.04   0.05  -0.06
  22   1     0.17   0.23   0.09    -0.26  -0.27  -0.07    -0.01   0.04   0.06
  23   1    -0.05   0.03  -0.27     0.09  -0.08   0.36    -0.05  -0.13  -0.15
  24   1    -0.06  -0.15   0.16     0.11   0.16  -0.16    -0.20  -0.14   0.11
  25   1     0.02  -0.00   0.05    -0.04   0.02   0.05    -0.09  -0.00  -0.09
  26   1     0.01   0.00  -0.00    -0.01  -0.03   0.02    -0.01  -0.10   0.04
                     13                     14                     15
                        a                      a                      a 
 Frequencies --   361.1417               379.3566               392.8117
 Red. masses --     9.4129                 8.9017                 9.8182
 Frc consts  --     0.0000                 0.0000                 0.0000
 IR Inten    --    12.8475                 0.5022                 1.8845
 Raman Activ --     0.0000                 0.0000                 0.0000
 Depolar     --     0.0000                 0.0000                 0.0000
 Atom AN      X      Y      Z        X      Y      Z        X      Y      Z
   1   7     0.09   0.03   0.20     0.01  -0.00   0.05    -0.06  -0.01  -0.15
   2   6     0.10  -0.06   0.04    -0.01  -0.05  -0.01     0.10   0.18   0.09
   3   6    -0.01   0.30  -0.09    -0.05   0.02  -0.03     0.38  -0.04   0.02
   4   6     0.12  -0.11  -0.34    -0.01  -0.03  -0.02     0.12   0.25  -0.10
   5   6     0.13  -0.14  -0.10    -0.07  -0.03  -0.41    -0.05   0.00  -0.08
   6   6     0.12  -0.03   0.14     0.08   0.05   0.44     0.08  -0.24   0.11
   7   6    -0.04  -0.01   0.14     0.02   0.03   0.03    -0.08  -0.25   0.09
   8   8    -0.23   0.05  -0.21     0.02   0.01  -0.06    -0.34  -0.12   0.00
   9   6    -0.27  -0.07   0.05     0.01  -0.01  -0.01    -0.24   0.06   0.05
  10   6     0.03   0.01   0.27    -0.08  -0.02  -0.37     0.09   0.01  -0.01
  11   6     0.03  -0.11  -0.21     0.08   0.00   0.41    -0.00   0.25  -0.02
  12  17    -0.02   0.03  -0.00    -0.00   0.01  -0.01     0.02  -0.02   0.00
  13   1     0.08   0.01   0.10     0.01  -0.00   0.02    -0.07  -0.00  -0.10
  14   1    -0.02   0.07   0.07     0.01   0.02   0.00     0.01  -0.11  -0.03
  15   1     0.03  -0.02   0.03     0.01   0.00   0.03    -0.04   0.03  -0.06
  16   1     0.06   0.00   0.02     0.00  -0.01  -0.00    -0.02   0.02   0.01
  17   1     0.04  -0.05   0.00    -0.00  -0.02  -0.01     0.03   0.08   0.09
  18   1    -0.10   0.19   0.13    -0.04   0.03   0.02     0.24  -0.09  -0.13
  19   1     0.02   0.23  -0.16    -0.01   0.04  -0.04     0.12  -0.14   0.16
  20   1     0.05  -0.04  -0.01    -0.04  -0.02  -0.26    -0.11   0.00  -0.03
  21   1     0.05   0.01   0.06     0.05   0.02   0.24     0.02  -0.07   0.05
  22   1    -0.19  -0.08   0.00    -0.06  -0.08  -0.04    -0.07  -0.00   0.00
  23   1    -0.02  -0.05   0.13     0.03   0.00   0.11    -0.08   0.04   0.05
  24   1    -0.03   0.03  -0.03     0.04   0.07  -0.07    -0.03   0.03  -0.01
  25   1     0.02   0.01   0.14    -0.06  -0.01  -0.24     0.13  -0.00  -0.03
  26   1    -0.01  -0.06  -0.07     0.04   0.00   0.22    -0.00   0.07  -0.00
                     16                     17                     18
                        a                      a                      a 
 Frequencies --   455.0897               502.9394               541.6974
 Red. masses --    10.0609                10.3979                 8.9076
 Frc consts  --     0.0000                 0.0000                 0.0000
 IR Inten    --     1.6425                 3.6316                 4.9540
 Raman Activ --     0.0000                 0.0000                 0.0000
 Depolar     --     0.0000                 0.0000                 0.0000
 Atom AN      X      Y      Z        X      Y      Z        X      Y      Z
   1   7    -0.04   0.03  -0.16     0.00   0.00  -0.02     0.01  -0.03   0.09
   2   6     0.16   0.21   0.11    -0.06  -0.04  -0.05    -0.11  -0.15  -0.11
   3   6    -0.00  -0.05   0.27    -0.16  -0.11   0.07     0.10   0.06  -0.25
   4   6    -0.06  -0.10   0.06    -0.11   0.03   0.28     0.23   0.08   0.35
   5   6    -0.09  -0.04  -0.25    -0.09   0.12  -0.08     0.10  -0.05   0.03
   6   6    -0.09   0.12   0.15     0.10  -0.10  -0.02    -0.00   0.01  -0.12
   7   6     0.00   0.12   0.36     0.34  -0.05   0.25    -0.07   0.02   0.43
   8   8     0.10  -0.14  -0.25     0.02   0.42  -0.15    -0.14  -0.26  -0.06
   9   6     0.24  -0.01  -0.05    -0.26   0.00   0.04     0.04   0.00  -0.01
  10   6    -0.13   0.02   0.18     0.25  -0.23  -0.03    -0.07   0.18  -0.10
  11   6    -0.17  -0.13  -0.27     0.10  -0.01  -0.14     0.02   0.09  -0.00
  12  17     0.01  -0.01   0.01    -0.00   0.00   0.00    -0.00   0.01   0.00
  13   1    -0.04   0.03  -0.10     0.01   0.00   0.00     0.02  -0.03   0.08
  14   1    -0.03  -0.11   0.01    -0.00   0.02  -0.01     0.01   0.08  -0.01
  15   1    -0.05   0.02  -0.12     0.01  -0.01   0.00     0.03  -0.01   0.08
  16   1     0.12   0.10   0.05    -0.00  -0.00  -0.01    -0.15  -0.11  -0.07
  17   1     0.06  -0.00  -0.03    -0.02  -0.02  -0.04    -0.05   0.05   0.07
  18   1     0.02  -0.07   0.00    -0.04  -0.05  -0.01    -0.05   0.06   0.00
  19   1     0.02  -0.05   0.14    -0.07  -0.07   0.03    -0.00   0.06  -0.15
  20   1    -0.01  -0.02  -0.18    -0.05   0.03  -0.14    -0.02  -0.02  -0.18
  21   1    -0.02   0.05  -0.03    -0.05  -0.13  -0.12    -0.01   0.04  -0.27
  22   1     0.05  -0.01  -0.02    -0.19   0.00   0.04     0.06   0.03   0.00
  23   1     0.04   0.05   0.04     0.04  -0.14   0.01    -0.05   0.08  -0.01
  24   1     0.15   0.01  -0.03    -0.16  -0.02   0.04     0.08  -0.01  -0.00
  25   1    -0.10   0.01   0.01     0.07  -0.07  -0.13    -0.04   0.04  -0.24
  26   1    -0.08  -0.06  -0.16     0.05   0.06  -0.15    -0.04  -0.02  -0.15
                     19                     20                     21
                        a                      a                      a 
 Frequencies --   607.7832               680.7132               713.9018
 Red. masses --    11.1785                11.1837                10.4768
 Frc consts  --     0.0000                 0.0000                 0.0000
 IR Inten    --     3.8518                 3.8865                63.3114
 Raman Activ --     0.0000                 0.0000                 0.0000
 Depolar     --     0.0000                 0.0000                 0.0000
 Atom AN      X      Y      Z        X      Y      Z        X      Y      Z
   1   7     0.00   0.01   0.01     0.01   0.01   0.00    -0.01   0.02  -0.05
   2   6     0.00   0.00   0.01     0.05   0.06   0.07    -0.13  -0.03   0.00
   3   6     0.00   0.07  -0.03     0.04   0.04  -0.00    -0.32  -0.13   0.23
   4   6    -0.03   0.10  -0.00    -0.11  -0.04  -0.51    -0.09  -0.06  -0.11
   5   6     0.20   0.40  -0.05    -0.01  -0.04   0.30     0.21   0.27  -0.02
   6   6     0.43  -0.05  -0.09    -0.13  -0.04  -0.26     0.25   0.14  -0.12
   7   6     0.03  -0.10   0.01     0.11   0.04   0.49     0.02   0.02   0.10
   8   8     0.03  -0.06  -0.00     0.06   0.10  -0.10    -0.27  -0.37   0.05
   9   6     0.08  -0.06  -0.01     0.03  -0.00  -0.01    -0.13  -0.00   0.02
  10   6    -0.25  -0.39   0.07    -0.09  -0.09  -0.26     0.14   0.15  -0.09
  11   6    -0.50   0.07   0.10     0.00  -0.02   0.30     0.25   0.01  -0.01
  12  17     0.00  -0.00  -0.00    -0.00  -0.00   0.00     0.00  -0.00   0.00
  13   1    -0.00   0.00   0.01    -0.00   0.01  -0.03     0.03   0.04  -0.04
  14   1    -0.00   0.01   0.00     0.00  -0.04   0.01     0.01   0.02  -0.03
  15   1     0.00   0.00   0.00    -0.00  -0.00  -0.02     0.03  -0.05   0.01
  16   1    -0.01  -0.01   0.00     0.06   0.05   0.03     0.14   0.10   0.04
  17   1    -0.00   0.01   0.01     0.03  -0.03  -0.02    -0.01  -0.15  -0.18
  18   1    -0.05   0.05   0.05     0.08   0.01  -0.02    -0.05  -0.07   0.01
  19   1     0.00   0.07  -0.06     0.05   0.00   0.05    -0.06  -0.06   0.12
  20   1     0.02   0.11  -0.01    -0.01  -0.01   0.09     0.14   0.07   0.02
  21   1     0.09  -0.05  -0.03    -0.05  -0.03  -0.12     0.09   0.07   0.00
  22   1     0.03  -0.01  -0.00    -0.03   0.01   0.01     0.05   0.01  -0.01
  23   1     0.01  -0.00  -0.00     0.04  -0.03  -0.00    -0.13   0.12   0.02
  24   1     0.03  -0.01  -0.01    -0.00  -0.01   0.01     0.06   0.01  -0.01
  25   1    -0.03  -0.11   0.01    -0.05  -0.03  -0.13     0.06   0.04  -0.00
  26   1    -0.13   0.04   0.01    -0.00  -0.01   0.09     0.09   0.03   0.02
                     22                     23                     24
                        a                      a                      a 
 Frequencies --   801.5444               815.2826               856.3368
 Red. masses --     4.7892                 7.8201                 7.3071
 Frc consts  --     0.0000                 0.0000                 0.0000
 IR Inten    --    34.5256                 6.2148                35.9046
 Raman Activ --     0.0000                 0.0000                 0.0000
 Depolar     --     0.0000                 0.0000                 0.0000
 Atom AN      X      Y      Z        X      Y      Z        X      Y      Z
   1   7     0.00  -0.01   0.03    -0.06  -0.03  -0.01    -0.03  -0.16   0.17
   2   6    -0.07   0.03   0.05    -0.23  -0.04  -0.02    -0.08   0.17   0.04
   3   6    -0.06   0.05  -0.03    -0.14   0.07   0.06     0.08   0.29  -0.33
   4   6    -0.02  -0.01  -0.20     0.16   0.08   0.08     0.01   0.00   0.15
   5   6     0.06  -0.03   0.21     0.11  -0.31  -0.07    -0.07   0.12  -0.03
   6   6     0.08  -0.00   0.31     0.17  -0.26  -0.09    -0.18   0.18  -0.06
   7   6    -0.07  -0.02  -0.30    -0.12  -0.06   0.09     0.10   0.06  -0.01
   8   8     0.03   0.02   0.07     0.13   0.21  -0.06    -0.06  -0.10   0.01
   9   6     0.01  -0.00   0.00     0.10  -0.02  -0.02    -0.05   0.00   0.01
  10   6     0.01   0.02   0.15    -0.12   0.25  -0.02     0.03  -0.28   0.03
  11   6    -0.00   0.01   0.08    -0.18   0.21  -0.01     0.07  -0.19  -0.01
  12  17    -0.00  -0.00   0.00    -0.00  -0.00   0.00    -0.00  -0.00   0.00
  13   1     0.03   0.06  -0.06     0.09   0.10  -0.07     0.09   0.12  -0.10
  14   1     0.03  -0.00  -0.01     0.05   0.11  -0.09     0.09   0.00  -0.04
  15   1     0.05  -0.09   0.03     0.11  -0.19   0.13     0.13  -0.26   0.16
  16   1     0.12   0.11   0.03     0.19   0.17   0.02     0.15   0.18   0.01
  17   1     0.03  -0.13  -0.07     0.03  -0.27  -0.15     0.10  -0.18   0.05
  18   1     0.06  -0.02  -0.07     0.03  -0.06  -0.10     0.12  -0.06  -0.30
  19   1     0.02  -0.03   0.09    -0.01  -0.08   0.15     0.06  -0.06   0.12
  20   1    -0.07  -0.03  -0.39    -0.03  -0.08   0.10     0.05   0.04   0.03
  21   1    -0.09  -0.03  -0.56     0.12  -0.01   0.13    -0.04   0.03   0.17
  22   1     0.01   0.01   0.01    -0.03  -0.01   0.01     0.02   0.00  -0.01
  23   1     0.00  -0.01  -0.04     0.09  -0.09  -0.00    -0.05   0.05   0.01
  24   1    -0.01  -0.01   0.01    -0.03  -0.01   0.00     0.02   0.01  -0.01
  25   1    -0.05  -0.01  -0.24     0.06   0.07   0.04    -0.08  -0.08  -0.00
  26   1    -0.04  -0.02  -0.16    -0.09  -0.01   0.04     0.04  -0.03  -0.03
                     25                     26                     27
                        a                      a                      a 
 Frequencies --   876.6147               891.8989               894.8752
 Red. masses --     3.4280                 3.6243                 3.8818
 Frc consts  --     0.0000                 0.0000                 0.0000
 IR Inten    --     5.9325                 3.6124                 7.8814
 Raman Activ --     0.0000                 0.0000                 0.0000
 Depolar     --     0.0000                 0.0000                 0.0000
 Atom AN      X      Y      Z        X      Y      Z        X      Y      Z
   1   7    -0.05   0.04   0.02     0.07  -0.16   0.02    -0.12   0.19  -0.06
   2   6    -0.02  -0.02   0.01     0.02   0.08  -0.07    -0.05  -0.12   0.06
   3   6     0.08  -0.04  -0.02    -0.13   0.19  -0.05     0.21  -0.18   0.07
   4   6     0.02   0.01   0.08     0.00   0.00   0.03     0.01   0.01  -0.01
   5   6    -0.01   0.03   0.07    -0.01  -0.05  -0.27    -0.10   0.03  -0.23
   6   6    -0.01   0.03   0.17     0.08   0.01   0.21    -0.06   0.05   0.13
   7   6     0.03   0.01   0.09    -0.00   0.01   0.05     0.03  -0.00  -0.00
   8   8    -0.01  -0.01  -0.02    -0.00   0.00   0.00    -0.00  -0.01   0.01
   9   6    -0.01   0.00  -0.01     0.01  -0.01  -0.00    -0.01   0.01   0.00
  10   6    -0.06  -0.05  -0.35    -0.03  -0.01  -0.06     0.04  -0.04   0.08
  11   6    -0.02  -0.02  -0.14    -0.00  -0.03  -0.01     0.00   0.02   0.04
  12  17     0.00  -0.00  -0.00     0.00   0.00  -0.01    -0.00  -0.01   0.01
  13   1     0.02   0.12  -0.13    -0.00  -0.20   0.23     0.03   0.24  -0.26
  14   1     0.04  -0.03  -0.02    -0.07   0.08   0.03     0.09  -0.03  -0.08
  15   1     0.05  -0.11   0.04    -0.06   0.14  -0.01     0.10  -0.20   0.05
  16   1     0.00   0.05  -0.07     0.01  -0.08   0.14     0.00   0.10  -0.16
  17   1     0.03  -0.06   0.03    -0.04   0.10  -0.03     0.05  -0.15   0.04
  18   1    -0.02   0.03   0.06     0.06  -0.08  -0.22    -0.06   0.10   0.24
  19   1    -0.00   0.03  -0.08    -0.01  -0.10   0.18     0.04   0.12  -0.20
  20   1    -0.04  -0.00  -0.17     0.12   0.02   0.51     0.07   0.04   0.49
  21   1    -0.07  -0.02  -0.30    -0.06  -0.02  -0.45    -0.08  -0.02  -0.23
  22   1    -0.01   0.01   0.01    -0.00   0.01   0.01     0.00   0.01   0.00
  23   1    -0.01   0.00  -0.01    -0.00  -0.00  -0.02    -0.01   0.01  -0.01
  24   1     0.01  -0.01   0.00     0.01  -0.01   0.00    -0.00  -0.00   0.01
  25   1     0.13   0.04   0.67    -0.01   0.00   0.04    -0.03  -0.03  -0.24
  26   1     0.06   0.02   0.33     0.02  -0.01   0.14     0.01   0.02  -0.01
                     28                     29                     30
                        a                      a                      a 
 Frequencies --   916.5268               950.8462              1004.6138
 Red. masses --     6.8641                 3.2073                 9.1090
 Frc consts  --     0.0000                 0.0000                 0.0000
 IR Inten    --    45.0277                 1.9680                 6.7752
 Raman Activ --     0.0000                 0.0000                 0.0000
 Depolar     --     0.0000                 0.0000                 0.0000
 Atom AN      X      Y      Z        X      Y      Z        X      Y      Z
   1   7     0.11  -0.11   0.37    -0.01  -0.03   0.01     0.06  -0.03   0.07
   2   6     0.11   0.30   0.03     0.01   0.03  -0.02    -0.09   0.03  -0.05
   3   6    -0.21  -0.17  -0.28    -0.01   0.01  -0.01    -0.06  -0.07   0.04
   4   6    -0.07  -0.04   0.01    -0.01   0.00   0.01     0.15   0.07  -0.02
   5   6     0.02  -0.00  -0.05     0.02   0.02   0.10     0.13  -0.37   0.00
   6   6     0.14  -0.11  -0.01     0.01  -0.03  -0.05    -0.20   0.29   0.02
   7   6    -0.06  -0.04   0.02    -0.01  -0.01   0.04     0.17   0.08  -0.04
   8   8     0.02   0.03  -0.01     0.00   0.01   0.00     0.10  -0.11  -0.01
   9   6     0.02  -0.00   0.00     0.01  -0.00  -0.00    -0.20   0.03   0.04
  10   6    -0.01   0.19  -0.01     0.03   0.04   0.20     0.13  -0.29   0.00
  11   6     0.01   0.05   0.01    -0.06  -0.03  -0.37    -0.28   0.33   0.01
  12  17     0.00  -0.00   0.01     0.00  -0.00  -0.01     0.00  -0.00  -0.00
  13   1    -0.08   0.11  -0.23     0.01   0.01  -0.01    -0.04  -0.03  -0.01
  14   1     0.05  -0.48   0.22     0.01  -0.01  -0.00    -0.02  -0.12   0.07
  15   1    -0.04  -0.07  -0.13     0.00  -0.01   0.02    -0.04   0.05  -0.07
  16   1    -0.04   0.08  -0.08    -0.01  -0.00  -0.01     0.02   0.03   0.01
  17   1     0.01   0.12   0.02     0.01   0.01   0.02    -0.05  -0.00  -0.15
  18   1    -0.18  -0.07  -0.08    -0.00  -0.00  -0.01    -0.06  -0.02   0.03
  19   1    -0.09  -0.03  -0.14    -0.02  -0.01  -0.01     0.00   0.01  -0.00
  20   1     0.01   0.00   0.09    -0.03  -0.00  -0.10     0.17  -0.11  -0.04
  21   1     0.04  -0.02  -0.02     0.00  -0.01   0.00     0.02   0.20  -0.01
  22   1    -0.01  -0.00   0.00    -0.00  -0.00  -0.00     0.04   0.01  -0.00
  23   1     0.02  -0.02  -0.01     0.01  -0.01  -0.00    -0.12   0.10   0.02
  24   1    -0.01  -0.00   0.00    -0.00   0.00  -0.00     0.03   0.01  -0.01
  25   1     0.03   0.05  -0.03    -0.08  -0.02  -0.38     0.24  -0.09  -0.05
  26   1    -0.02  -0.00  -0.04     0.13   0.03   0.79    -0.02   0.18   0.04
                     31                     32                     33
                        a                      a                      a 
 Frequencies --  1033.6855              1047.2070              1057.4565
 Red. masses --     7.7083                 9.9206                 5.7849
 Frc consts  --     0.0000                 0.0000                 0.0000
 IR Inten    --    17.1097                40.5783                26.7153
 Raman Activ --     0.0000                 0.0000                 0.0000
 Depolar     --     0.0000                 0.0000                 0.0000
 Atom AN      X      Y      Z        X      Y      Z        X      Y      Z
   1   7     0.07   0.39  -0.06     0.10   0.03   0.03     0.19  -0.01   0.06
   2   6     0.03  -0.45   0.29    -0.18  -0.04  -0.01    -0.37  -0.02  -0.07
   3   6    -0.17   0.20  -0.18     0.06  -0.01  -0.02     0.22  -0.02  -0.03
   4   6     0.00   0.08   0.07     0.09   0.01   0.03     0.10   0.03   0.07
   5   6     0.04  -0.08  -0.02     0.02   0.06  -0.01    -0.10   0.14   0.00
   6   6     0.04  -0.01  -0.01    -0.12   0.14   0.01    -0.01  -0.10   0.00
   7   6    -0.00   0.04   0.00    -0.12  -0.08   0.03     0.04   0.01  -0.00
   8   8     0.04  -0.01  -0.01    -0.50   0.19   0.08     0.22  -0.08  -0.04
   9   6    -0.04  -0.00   0.02     0.49  -0.15  -0.08    -0.19   0.09   0.03
  10   6    -0.01  -0.05  -0.00     0.04  -0.14   0.00    -0.07   0.07   0.00
  11   6     0.02  -0.06  -0.02     0.07   0.02  -0.03     0.04  -0.10  -0.02
  12  17     0.00  -0.00   0.00     0.00  -0.00  -0.00     0.00   0.00  -0.00
  13   1    -0.10   0.14  -0.20    -0.06  -0.04  -0.01    -0.09  -0.10   0.03
  14   1     0.01  -0.20   0.08    -0.03  -0.12   0.09    -0.06  -0.18   0.14
  15   1    -0.08   0.15  -0.21    -0.06   0.09  -0.11    -0.10   0.17  -0.18
  16   1    -0.01  -0.10   0.04     0.08   0.05   0.05     0.15   0.12   0.08
  17   1    -0.04  -0.06   0.02    -0.06  -0.07  -0.20    -0.11  -0.15  -0.39
  18   1     0.31   0.08  -0.10     0.03   0.03   0.03     0.04   0.07   0.09
  19   1    -0.20  -0.19   0.06     0.09   0.06   0.01     0.25   0.16   0.02
  20   1     0.04  -0.02   0.02     0.09   0.02  -0.01    -0.17   0.05   0.04
  21   1     0.04   0.04   0.00    -0.02   0.07   0.01    -0.06  -0.13   0.03
  22   1     0.02   0.00  -0.00    -0.06  -0.03   0.01     0.01   0.01  -0.01
  23   1    -0.04   0.03   0.00     0.26  -0.21  -0.03    -0.09   0.07   0.01
  24   1     0.01   0.01  -0.01    -0.06  -0.03   0.01     0.01   0.01   0.00
  25   1    -0.07  -0.01   0.01     0.16  -0.05  -0.02    -0.18   0.02   0.04
  26   1    -0.01  -0.06   0.03     0.05   0.05   0.01    -0.02  -0.09   0.04
                     34                     35                     36
                        a                      a                      a 
 Frequencies --  1075.7195              1131.5482              1136.4962
 Red. masses --     7.2326                 5.0074                 3.8069
 Frc consts  --     0.0000                 0.0000                 0.0000
 IR Inten    --     9.6985                30.7396                 2.0063
 Raman Activ --     0.0000                 0.0000                 0.0000
 Depolar     --     0.0000                 0.0000                 0.0000
 Atom AN      X      Y      Z        X      Y      Z        X      Y      Z
   1   7    -0.02  -0.11   0.20    -0.01   0.01   0.04     0.00   0.00   0.00
   2   6    -0.04   0.02  -0.51     0.01  -0.06  -0.10    -0.00  -0.00   0.00
   3   6     0.03   0.23   0.38     0.01   0.12   0.06     0.00   0.01   0.00
   4   6    -0.00   0.11  -0.04     0.03  -0.15   0.00     0.00  -0.00   0.00
   5   6     0.04  -0.05  -0.00     0.01   0.18  -0.01     0.00   0.01  -0.00
   6   6     0.03  -0.02   0.00    -0.13   0.08   0.02    -0.01   0.00  -0.00
   7   6    -0.02   0.05  -0.00    -0.02  -0.19   0.02     0.01  -0.01  -0.01
   8   8    -0.04   0.02   0.00     0.17  -0.19  -0.03     0.05   0.00   0.22
   9   6     0.02  -0.04  -0.00    -0.06   0.29   0.01    -0.08  -0.01  -0.42
  10   6    -0.02  -0.08   0.01    -0.01   0.15  -0.01    -0.00   0.01   0.00
  11   6     0.07  -0.08   0.01    -0.10  -0.04   0.02    -0.01  -0.00   0.00
  12  17     0.00  -0.00   0.00    -0.00   0.00   0.00     0.00  -0.00   0.00
  13   1    -0.01   0.07  -0.11    -0.01   0.03  -0.04    -0.00   0.00  -0.00
  14   1     0.05  -0.17   0.05     0.01  -0.03   0.01     0.00  -0.01   0.00
  15   1     0.02  -0.12   0.01     0.00  -0.03  -0.01    -0.00   0.00  -0.00
  16   1    -0.20  -0.04  -0.29    -0.03  -0.04  -0.03    -0.00   0.00  -0.01
  17   1    -0.06   0.12  -0.11    -0.01   0.02  -0.00    -0.00  -0.00  -0.00
  18   1     0.33   0.14   0.12     0.07   0.02  -0.02     0.01   0.00   0.00
  19   1    -0.18  -0.12   0.09     0.00  -0.01   0.06    -0.00  -0.00   0.00
  20   1    -0.03  -0.01   0.01     0.33   0.04  -0.07     0.02   0.00  -0.00
  21   1     0.04   0.04  -0.01    -0.16  -0.17   0.04    -0.00  -0.01   0.02
  22   1     0.02  -0.00  -0.00    -0.15  -0.02  -0.01    -0.43   0.35   0.22
  23   1    -0.01   0.01   0.00     0.18  -0.18  -0.03     0.05   0.01   0.24
  24   1     0.02  -0.00  -0.01    -0.18   0.02   0.06     0.47  -0.33   0.10
  25   1    -0.14  -0.02   0.02     0.44   0.02  -0.08     0.01   0.00  -0.01
  26   1     0.01  -0.04  -0.03    -0.22  -0.32   0.05    -0.01  -0.02   0.00
                     37                     38                     39
                        a                      a                      a 
 Frequencies --  1154.2246              1173.7563              1194.4525
 Red. masses --     5.5385                 7.1005                 3.9021
 Frc consts  --     0.0000                 0.0000                 0.0000
 IR Inten    --    43.3146               136.6519                 3.6108
 Raman Activ --     0.0000                 0.0000                 0.0000
 Depolar     --     0.0000                 0.0000                 0.0000
 Atom AN      X      Y      Z        X      Y      Z        X      Y      Z
   1   7    -0.01   0.00  -0.01     0.02  -0.02  -0.02     0.07  -0.14  -0.10
   2   6     0.02   0.01   0.03    -0.03   0.04   0.02    -0.13   0.30   0.19
   3   6    -0.04  -0.03   0.00     0.03  -0.02  -0.03     0.01  -0.15  -0.15
   4   6     0.05   0.07  -0.02    -0.12   0.03   0.03    -0.10   0.05   0.05
   5   6     0.03  -0.13   0.00     0.02   0.07  -0.01     0.05  -0.05  -0.02
   6   6     0.03   0.03  -0.01     0.01   0.03  -0.00     0.00  -0.06   0.00
   7   6     0.24   0.07  -0.05    -0.48  -0.17   0.10     0.02   0.01  -0.00
   8   8    -0.08  -0.35   0.03     0.31  -0.06  -0.05    -0.02   0.01   0.00
   9   6     0.04   0.35  -0.03    -0.12   0.20   0.01     0.01  -0.01   0.00
  10   6    -0.04  -0.01   0.01    -0.01  -0.14   0.01     0.02   0.04  -0.01
  11   6    -0.02   0.13  -0.01     0.15  -0.12  -0.02    -0.02  -0.03   0.01
  12  17     0.00  -0.00   0.00    -0.00   0.00   0.00     0.00   0.00  -0.00
  13   1     0.01   0.00   0.00     0.00  -0.03   0.03     0.03  -0.15   0.15
  14   1     0.00  -0.00  -0.00    -0.00   0.01  -0.00    -0.07   0.10  -0.01
  15   1     0.00  -0.00   0.01    -0.00   0.02  -0.00    -0.01   0.08   0.04
  16   1    -0.00  -0.00   0.00     0.01   0.04  -0.01     0.05   0.23  -0.07
  17   1    -0.00   0.01  -0.00     0.02  -0.03   0.02     0.04  -0.09   0.01
  18   1    -0.04  -0.02  -0.01     0.08   0.05   0.04     0.40   0.28   0.27
  19   1    -0.03  -0.02  -0.02     0.00   0.01  -0.03    -0.32  -0.16  -0.27
  20   1     0.00  -0.03   0.00    -0.10   0.02   0.02     0.28  -0.02  -0.04
  21   1    -0.02  -0.04   0.00     0.26   0.44  -0.08    -0.04  -0.08   0.01
  22   1    -0.27  -0.01   0.01    -0.07   0.02   0.01     0.01  -0.01  -0.00
  23   1     0.31  -0.30  -0.04     0.15  -0.17  -0.02    -0.01   0.02   0.00
  24   1    -0.27   0.01   0.09    -0.07   0.02   0.02     0.00   0.00  -0.00
  25   1    -0.49   0.02   0.09     0.13  -0.05  -0.02    -0.03   0.01   0.01
  26   1     0.08   0.17  -0.02     0.21   0.24  -0.05    -0.04  -0.05   0.01
                     40                     41                     42
                        a                      a                      a 
 Frequencies --  1205.9276              1232.4044              1256.0040
 Red. masses --     2.9630                 3.0951                 7.9555
 Frc consts  --     0.0000                 0.0000                 0.0000
 IR Inten    --    13.5164                11.4491                61.7279
 Raman Activ --     0.0000                 0.0000                 0.0000
 Depolar     --     0.0000                 0.0000                 0.0000
 Atom AN      X      Y      Z        X      Y      Z        X      Y      Z
   1   7    -0.01   0.04   0.03    -0.26  -0.01   0.07    -0.04   0.02   0.01
   2   6     0.01  -0.07  -0.08     0.19   0.05   0.02     0.01   0.00  -0.08
   3   6     0.08   0.08   0.01    -0.04  -0.14  -0.11     0.12   0.07  -0.10
   4   6    -0.18  -0.11   0.05     0.08   0.09   0.02    -0.39  -0.29   0.14
   5   6     0.04   0.01  -0.00     0.02   0.03  -0.01    -0.11  -0.17   0.03
   6   6    -0.03  -0.14   0.01    -0.05  -0.01   0.01     0.25   0.00  -0.05
   7   6    -0.14  -0.11   0.03    -0.06  -0.04   0.01     0.25   0.23  -0.06
   8   8     0.08   0.10  -0.02     0.03   0.02  -0.01    -0.13  -0.10   0.03
   9   6    -0.02  -0.05   0.01    -0.01  -0.00  -0.00     0.03   0.01  -0.01
  10   6    -0.08   0.07   0.01     0.01  -0.05  -0.00    -0.02   0.19  -0.01
  11   6     0.01   0.09  -0.01     0.04  -0.00  -0.01    -0.19  -0.07   0.04
  12  17    -0.00  -0.00   0.00    -0.00   0.00   0.00     0.00  -0.00   0.00
  13   1    -0.01   0.04  -0.04     0.08   0.16  -0.07     0.01   0.03  -0.01
  14   1     0.02  -0.05   0.01     0.08   0.05  -0.10     0.02  -0.04  -0.00
  15   1    -0.00  -0.02  -0.02     0.04  -0.16   0.12     0.01  -0.03   0.01
  16   1     0.00  -0.05   0.03     0.14  -0.23   0.48     0.05  -0.05   0.11
  17   1    -0.00   0.01   0.01    -0.21   0.33  -0.46    -0.01   0.04  -0.02
  18   1     0.02  -0.02  -0.05     0.14   0.10   0.10     0.28   0.14   0.07
  19   1     0.17   0.11   0.07    -0.03  -0.01  -0.09     0.20   0.12   0.05
  20   1     0.61  -0.02  -0.12     0.04   0.01  -0.00    -0.16  -0.05   0.04
  21   1    -0.12  -0.22   0.04    -0.00   0.01   0.00     0.11   0.06  -0.02
  22   1     0.05  -0.00  -0.01     0.01   0.00   0.00    -0.05   0.01   0.01
  23   1    -0.07   0.08   0.01    -0.00  -0.00   0.00     0.02  -0.02  -0.00
  24   1     0.06  -0.01  -0.01     0.01  -0.00  -0.00    -0.05   0.01   0.01
  25   1    -0.19   0.02   0.03    -0.06  -0.01   0.01     0.30   0.05  -0.06
  26   1     0.25   0.44  -0.06    -0.02  -0.06   0.00     0.07   0.20  -0.02
                     43                     44                     45
                        a                      a                      a 
 Frequencies --  1282.0736              1324.0826              1334.1860
 Red. masses --     3.9028                 4.2203                 9.7836
 Frc consts  --     0.0000                 0.0000                 0.0000
 IR Inten    --     1.9195                20.8190                13.7947
 Raman Activ --     0.0000                 0.0000                 0.0000
 Depolar     --     0.0000                 0.0000                 0.0000
 Atom AN      X      Y      Z        X      Y      Z        X      Y      Z
   1   7    -0.02  -0.02  -0.02     0.02   0.19   0.01    -0.01   0.02  -0.02
   2   6     0.03   0.01   0.08    -0.15   0.07  -0.36     0.06   0.04  -0.02
   3   6    -0.09   0.00   0.01    -0.09  -0.14   0.02    -0.28  -0.10  -0.08
   4   6     0.24  -0.04  -0.04     0.05   0.12  -0.02     0.29  -0.27   0.00
   5   6     0.20   0.02  -0.04     0.12  -0.00  -0.02    -0.23   0.03   0.04
   6   6    -0.03   0.06   0.00    -0.06  -0.04   0.01     0.10   0.31  -0.04
   7   6    -0.18   0.23   0.02    -0.09   0.09   0.01     0.12  -0.39   0.00
   8   8     0.05  -0.06  -0.01     0.01  -0.01   0.00     0.04   0.07  -0.01
   9   6     0.03   0.06  -0.01     0.01   0.02  -0.00    -0.02  -0.04   0.01
  10   6    -0.14  -0.05   0.03     0.07  -0.05  -0.01    -0.31   0.00   0.05
  11   6     0.00  -0.13   0.01    -0.00  -0.04   0.00     0.16   0.26  -0.05
  12  17    -0.00  -0.00   0.00     0.00   0.00   0.00    -0.00   0.00  -0.00
  13   1     0.02  -0.00   0.02    -0.06  -0.06   0.11     0.02  -0.03   0.06
  14   1     0.01   0.00  -0.01     0.05  -0.21   0.05     0.02  -0.04  -0.01
  15   1     0.00   0.00   0.02     0.05  -0.12  -0.04     0.02  -0.03   0.02
  16   1    -0.04   0.03  -0.07     0.21  -0.15   0.48    -0.03   0.01  -0.05
  17   1    -0.03   0.03  -0.08     0.19  -0.14   0.50     0.05  -0.00   0.12
  18   1     0.04   0.01  -0.00     0.06   0.07   0.12     0.27   0.15   0.13
  19   1    -0.14  -0.09  -0.03     0.01  -0.00   0.00     0.14   0.05   0.14
  20   1    -0.32   0.02   0.06    -0.04   0.00   0.00    -0.11   0.01   0.02
  21   1    -0.30  -0.46   0.09    -0.06  -0.08   0.02    -0.03  -0.00   0.01
  22   1    -0.04  -0.03  -0.02    -0.01  -0.01  -0.01     0.02  -0.00  -0.00
  23   1    -0.01   0.03   0.00     0.01  -0.00  -0.00    -0.04   0.04   0.00
  24   1    -0.03  -0.03   0.04    -0.00  -0.01   0.01     0.02  -0.00  -0.01
  25   1     0.28  -0.03  -0.05    -0.01  -0.01   0.01    -0.06  -0.00   0.02
  26   1     0.24   0.35  -0.06    -0.01  -0.03   0.01     0.03   0.04  -0.00
                     46                     47                     48
                        a                      a                      a 
 Frequencies --  1344.5104              1376.3192              1398.1313
 Red. masses --     6.0821                 2.4166                 2.3756
 Frc consts  --     0.0000                 0.0000                 0.0000
 IR Inten    --     6.3815               126.1812                16.4651
 Raman Activ --     0.0000                 0.0000                 0.0000
 Depolar     --     0.0000                 0.0000                 0.0000
 Atom AN      X      Y      Z        X      Y      Z        X      Y      Z
   1   7    -0.02  -0.03  -0.03     0.17  -0.21   0.14    -0.03  -0.07   0.00
   2   6     0.15  -0.00   0.08    -0.01   0.01  -0.11    -0.02  -0.00  -0.02
   3   6    -0.36  -0.17  -0.14    -0.07  -0.06   0.00    -0.01  -0.02   0.00
   4   6    -0.00   0.21   0.05     0.01   0.01   0.00     0.01   0.04  -0.00
   5   6     0.21   0.02  -0.04     0.01  -0.02  -0.00    -0.01   0.01   0.00
   6   6    -0.14  -0.16   0.03     0.01   0.03  -0.00    -0.01  -0.02   0.00
   7   6    -0.11   0.16   0.01    -0.03   0.01   0.00    -0.04  -0.00   0.01
   8   8    -0.01  -0.02   0.00     0.00  -0.00   0.00     0.10  -0.06  -0.02
   9   6     0.00   0.02  -0.00     0.01   0.00  -0.00     0.26  -0.14  -0.04
  10   6     0.23  -0.04  -0.04    -0.01  -0.02   0.00    -0.02  -0.02   0.01
  11   6    -0.09  -0.09   0.02     0.02   0.03  -0.01     0.03  -0.00  -0.00
  12  17    -0.00  -0.00  -0.00     0.01  -0.01   0.00    -0.00   0.00   0.00
  13   1     0.03  -0.01   0.03    -0.28   0.15  -0.56     0.19   0.12  -0.01
  14   1    -0.00   0.01  -0.01    -0.33   0.51   0.09     0.05  -0.04  -0.03
  15   1     0.02  -0.01   0.04    -0.08   0.18  -0.02    -0.07   0.19   0.03
  16   1    -0.13   0.05  -0.26     0.08  -0.02   0.13     0.01   0.00   0.01
  17   1     0.01   0.05   0.01     0.03   0.03   0.14     0.01  -0.01   0.05
  18   1     0.18   0.13   0.12     0.08   0.02   0.02    -0.01   0.00   0.01
  19   1     0.47   0.25   0.29     0.04   0.05  -0.01     0.02   0.01   0.01
  20   1     0.01   0.01   0.01    -0.02  -0.00   0.01     0.03   0.00  -0.00
  21   1    -0.03  -0.02   0.01    -0.02  -0.04   0.01     0.03   0.05  -0.01
  22   1    -0.00  -0.01  -0.01    -0.01  -0.00  -0.00    -0.44   0.20   0.23
  23   1     0.02  -0.02  -0.00    -0.00   0.00  -0.00    -0.28   0.37   0.02
  24   1     0.00  -0.00   0.01     0.00  -0.01   0.01    -0.49   0.18  -0.08
  25   1    -0.05  -0.01   0.01    -0.01  -0.01  -0.01     0.01  -0.01  -0.00
  26   1    -0.06  -0.09   0.03     0.01   0.01  -0.00    -0.00  -0.02  -0.01
                     49                     50                     51
                        a                      a                      a 
 Frequencies --  1403.9769              1425.6742              1438.5139
 Red. masses --     2.0373                 9.3250                 2.2486
 Frc consts  --     0.0000                 0.0000                 0.0000
 IR Inten    --    78.4014                 8.5081                83.5953
 Raman Activ --     0.0000                 0.0000                 0.0000
 Depolar     --     0.0000                 0.0000                 0.0000
 Atom AN      X      Y      Z        X      Y      Z        X      Y      Z
   1   7     0.08   0.19  -0.01    -0.03  -0.03   0.05    -0.03  -0.05   0.25
   2   6     0.07   0.01   0.07    -0.00  -0.00   0.00    -0.03   0.01   0.01
   3   6     0.00  -0.00  -0.01     0.02  -0.07  -0.02    -0.02  -0.01  -0.00
   4   6    -0.03   0.05   0.00    -0.14   0.28   0.01     0.03  -0.05  -0.00
   5   6    -0.05  -0.03   0.01    -0.27  -0.23   0.07     0.06   0.04  -0.01
   6   6     0.05   0.00  -0.01     0.34   0.08  -0.07    -0.07  -0.01   0.01
   7   6    -0.03   0.04   0.00    -0.16   0.29   0.01     0.04  -0.06  -0.00
   8   8     0.04  -0.03  -0.00     0.02  -0.07   0.00    -0.01   0.01   0.00
   9   6     0.09  -0.04  -0.01     0.00   0.07  -0.01     0.00  -0.01   0.00
  10   6    -0.05  -0.04   0.01    -0.25  -0.25   0.06     0.06   0.06  -0.01
  11   6     0.06   0.01  -0.02     0.35   0.11  -0.07    -0.08  -0.03   0.01
  12  17     0.01  -0.00  -0.00    -0.00   0.00   0.00     0.00  -0.00   0.00
  13   1    -0.53  -0.36   0.05     0.07   0.03   0.03    -0.08  -0.05   0.03
  14   1    -0.15   0.10   0.08     0.13   0.03  -0.10     0.46   0.27  -0.39
  15   1     0.21  -0.54  -0.07    -0.07   0.05  -0.12    -0.20  -0.11  -0.62
  16   1    -0.05  -0.01  -0.05     0.01   0.02  -0.02     0.05   0.07  -0.02
  17   1    -0.03   0.03  -0.12     0.00   0.01   0.02    -0.01   0.03   0.06
  18   1    -0.01  -0.02  -0.02    -0.08  -0.01   0.02     0.04   0.01   0.01
  19   1     0.01   0.01  -0.01     0.10   0.06   0.03    -0.02  -0.00  -0.01
  20   1     0.04  -0.01  -0.01     0.18  -0.08  -0.03    -0.04   0.01   0.01
  21   1     0.02  -0.00  -0.00    -0.02  -0.17   0.01     0.00   0.03  -0.00
  22   1    -0.16   0.05   0.07     0.00  -0.09  -0.06    -0.00   0.02   0.01
  23   1    -0.10   0.13   0.00     0.02  -0.01  -0.00    -0.01   0.01  -0.00
  24   1    -0.16   0.05  -0.02     0.02  -0.08   0.07    -0.01   0.01  -0.01
  25   1     0.03  -0.01  -0.00     0.14  -0.08  -0.02    -0.03   0.02   0.00
  26   1     0.01  -0.03   0.02    -0.04  -0.21   0.02     0.01   0.05   0.00
                     52                     53                     54
                        a                      a                      a 
 Frequencies --  1475.3717              1480.8422              1483.3604
 Red. masses --     5.4751                 2.0113                 1.5276
 Frc consts  --     0.0000                 0.0000                 0.0000
 IR Inten    --    88.0222                15.5101                 4.2904
 Raman Activ --     0.0000                 0.0000                 0.0000
 Depolar     --     0.0000                 0.0000                 0.0000
 Atom AN      X      Y      Z        X      Y      Z        X      Y      Z
   1   7     0.00  -0.00   0.01    -0.00   0.01   0.00     0.00   0.00   0.00
   2   6     0.01   0.02  -0.01     0.03   0.13   0.04     0.01   0.02   0.00
   3   6    -0.08  -0.05   0.00    -0.13  -0.07   0.21    -0.00  -0.00  -0.00
   4   6     0.24   0.17  -0.06     0.04   0.04   0.00     0.01   0.01  -0.00
   5   6    -0.17   0.08   0.03    -0.02   0.00   0.00    -0.01   0.00   0.00
   6   6    -0.06  -0.22   0.02    -0.01  -0.02   0.00    -0.00  -0.01   0.01
   7   6     0.21   0.15  -0.05     0.02   0.02  -0.00     0.01   0.00  -0.00
   8   8    -0.03  -0.06   0.01    -0.00   0.00   0.00    -0.01  -0.00  -0.03
   9   6    -0.11  -0.12   0.03     0.01   0.01   0.00    -0.04  -0.01  -0.21
  10   6    -0.28   0.03   0.05    -0.02  -0.00   0.00    -0.01   0.00   0.00
  11   6     0.03  -0.18   0.00     0.00  -0.01  -0.00    -0.00  -0.01   0.00
  12  17     0.00  -0.00   0.00    -0.00   0.00  -0.00     0.00  -0.00   0.00
  13   1    -0.01   0.00  -0.02     0.02   0.01   0.01    -0.01  -0.00  -0.01
  14   1    -0.00   0.01  -0.00     0.03  -0.00  -0.02    -0.00   0.01  -0.00
  15   1    -0.00   0.00  -0.01    -0.01   0.02  -0.02    -0.00  -0.00  -0.01
  16   1    -0.04  -0.04   0.01    -0.25  -0.23   0.06    -0.03  -0.03   0.01
  17   1     0.02  -0.04   0.01     0.12  -0.31  -0.11     0.02  -0.04  -0.01
  18   1    -0.03   0.01   0.03     0.35  -0.23  -0.38    -0.00   0.00   0.01
  19   1     0.00  -0.02   0.03     0.01   0.40  -0.43     0.00  -0.00   0.01
  20   1     0.17   0.02  -0.03     0.00   0.00   0.00     0.01   0.00  -0.00
  21   1     0.07   0.08  -0.02     0.01   0.02  -0.00     0.00   0.01  -0.03
  22   1     0.15   0.38   0.20    -0.02  -0.04  -0.02     0.43   0.17  -0.00
  23   1     0.15  -0.21  -0.03    -0.02   0.02  -0.02     0.13   0.05   0.70
  24   1     0.07   0.35  -0.29     0.01  -0.03   0.02    -0.41  -0.16   0.18
  25   1     0.17   0.00  -0.03     0.01  -0.00  -0.00     0.00   0.00  -0.00
  26   1     0.10   0.09  -0.02    -0.01  -0.02   0.00     0.00   0.00  -0.00
                     55                     56                     57
                        a                      a                      a 
 Frequencies --  1486.7465              1489.5560              1572.4898
 Red. masses --     4.2775                 3.2524                11.6134
 Frc consts  --     0.0000                 0.0000                 0.0000
 IR Inten    --    14.1354                27.3543                 3.9237
 Raman Activ --     0.0000                 0.0000                 0.0000
 Depolar     --     0.0000                 0.0000                 0.0000
 Atom AN      X      Y      Z        X      Y      Z        X      Y      Z
   1   7     0.01  -0.01   0.02    -0.00   0.00  -0.03    -0.00   0.00  -0.00
   2   6     0.03   0.10   0.00    -0.06  -0.20  -0.04     0.00  -0.01   0.00
   3   6    -0.03  -0.01  -0.07    -0.10  -0.06   0.12     0.02  -0.04  -0.00
   4   6     0.20   0.11  -0.05     0.16   0.10  -0.03    -0.25   0.49   0.02
   5   6    -0.13   0.10   0.02    -0.08   0.07   0.01     0.25  -0.20  -0.04
   6   6    -0.09  -0.21   0.03    -0.07  -0.15   0.02     0.00   0.32  -0.02
   7   6     0.21   0.05  -0.04     0.13   0.05  -0.03     0.21  -0.44  -0.01
   8   8    -0.03   0.02   0.01    -0.02   0.01   0.00     0.00   0.05  -0.00
   9   6     0.07   0.10  -0.01     0.03   0.05  -0.02    -0.01  -0.02   0.00
  10   6    -0.18   0.08   0.03    -0.14   0.03   0.02    -0.22   0.18   0.03
  11   6    -0.03  -0.19   0.02    -0.00  -0.11   0.01     0.00  -0.35   0.02
  12  17     0.00  -0.00   0.00    -0.00   0.00  -0.00    -0.00   0.00   0.00
  13   1    -0.01   0.02  -0.04     0.02  -0.03   0.04     0.00   0.00  -0.00
  14   1     0.00   0.03  -0.01    -0.02  -0.05   0.03    -0.00  -0.00   0.00
  15   1    -0.02   0.02  -0.02     0.03  -0.02   0.06     0.00   0.00   0.01
  16   1    -0.18  -0.18   0.05     0.37   0.35  -0.09     0.00   0.00  -0.00
  17   1     0.09  -0.22  -0.08    -0.17   0.44   0.21    -0.00   0.00  -0.00
  18   1    -0.14   0.09   0.15     0.15  -0.12  -0.18    -0.06  -0.02  -0.01
  19   1    -0.01  -0.15   0.17    -0.00   0.18  -0.20     0.06   0.05   0.00
  20   1     0.14   0.03  -0.02     0.08   0.02  -0.02    -0.06  -0.05   0.01
  21   1     0.14   0.20  -0.04     0.08   0.12  -0.02    -0.08  -0.05   0.02
  22   1    -0.13  -0.34  -0.18    -0.03  -0.15  -0.08     0.01   0.00   0.00
  23   1    -0.12   0.15  -0.02    -0.05   0.07   0.03    -0.02   0.01   0.00
  24   1    -0.01  -0.30   0.24    -0.03  -0.15   0.12     0.01   0.00  -0.01
  25   1     0.12   0.02  -0.02     0.08   0.01  -0.01     0.05   0.04  -0.01
  26   1     0.10   0.11  -0.02     0.05   0.05  -0.01     0.07   0.02  -0.02
                     58                     59                     60
                        a                      a                      a 
 Frequencies --  1615.9390              2924.7800              2940.4917
 Red. masses --    11.5496                 1.9634                 1.9446
 Frc consts  --     0.0000                 0.0000                 0.0000
 IR Inten    --    43.4777              1225.7278                30.5779
 Raman Activ --     0.0000                 0.0000                 0.0000
 Depolar     --     0.0000                 0.0000                 0.0000
 Atom AN      X      Y      Z        X      Y      Z        X      Y      Z
   1   7     0.00   0.00  -0.00    -0.12   0.18   0.13    -0.02   0.04   0.03
   2   6    -0.01  -0.00  -0.01     0.08  -0.04  -0.05    -0.16   0.04   0.08
   3   6    -0.04  -0.02   0.02     0.01  -0.02   0.01     0.09  -0.20   0.04
   4   6     0.28   0.13  -0.06    -0.00  -0.00   0.00     0.00  -0.01   0.00
   5   6    -0.48  -0.07   0.10    -0.00   0.00  -0.00     0.00   0.00  -0.00
   6   6     0.31   0.25  -0.07     0.00   0.00  -0.00    -0.00  -0.00   0.00
   7   6    -0.18  -0.06   0.04    -0.00  -0.00  -0.00     0.00   0.00  -0.00
   8   8     0.00  -0.00   0.00     0.00   0.00   0.00    -0.00  -0.00   0.00
   9   6     0.01  -0.00  -0.00     0.00   0.00   0.00     0.00  -0.00   0.00
  10   6     0.41   0.10  -0.08    -0.00   0.00   0.00     0.00  -0.00  -0.00
  11   6    -0.32  -0.33   0.08     0.01  -0.01  -0.00    -0.00   0.00   0.00
  12  17    -0.00  -0.00  -0.00     0.00  -0.01  -0.01     0.00  -0.00  -0.00
  13   1     0.00   0.00  -0.00     0.43  -0.66  -0.43     0.08  -0.12  -0.08
  14   1    -0.00  -0.00   0.00    -0.02   0.00  -0.01    -0.01   0.00  -0.00
  15   1     0.00  -0.00   0.01     0.05   0.04  -0.01    -0.00   0.00   0.00
  16   1     0.01   0.00   0.00    -0.18   0.21   0.15     0.26  -0.33  -0.21
  17   1    -0.00   0.00   0.01    -0.10  -0.06   0.02     0.33   0.17  -0.07
  18   1    -0.01  -0.01  -0.00    -0.01   0.05  -0.04    -0.09   0.47  -0.36
  19   1    -0.01  -0.00  -0.00    -0.00  -0.00   0.00    -0.25   0.24   0.22
  20   1     0.12  -0.03  -0.02    -0.00  -0.00  -0.00    -0.00  -0.00   0.00
  21   1    -0.01  -0.08   0.01    -0.00   0.00  -0.00    -0.00   0.00  -0.00
  22   1    -0.00   0.01   0.01    -0.00   0.00  -0.00    -0.00   0.00  -0.00
  23   1     0.00  -0.00  -0.00    -0.00  -0.00   0.00     0.00   0.00  -0.00
  24   1    -0.01   0.00  -0.00    -0.00  -0.00  -0.00    -0.00  -0.00  -0.00
  25   1    -0.07   0.04   0.01     0.00  -0.00   0.00    -0.00   0.00   0.00
  26   1     0.03   0.11  -0.01    -0.03   0.02   0.00     0.00   0.00  -0.00
                     61                     62                     63
                        a                      a                      a 
 Frequencies --  2945.7146              2969.7395              2971.8332
 Red. masses --     1.9135                 1.5185                 1.9290
 Frc consts  --     0.0000                 0.0000                 0.0000
 IR Inten    --    57.4964                21.6356                44.5851
 Raman Activ --     0.0000                 0.0000                 0.0000
 Depolar     --     0.0000                 0.0000                 0.0000
 Atom AN      X      Y      Z        X      Y      Z        X      Y      Z
   1   7     0.03  -0.05  -0.04    -0.02   0.03   0.02     0.00  -0.00  -0.00
   2   6     0.20  -0.00  -0.08     0.06   0.18   0.03    -0.00  -0.00   0.00
   3   6     0.06  -0.15   0.07     0.04   0.02  -0.08    -0.00   0.00   0.00
   4   6    -0.00  -0.01   0.00     0.00   0.00  -0.00    -0.00  -0.00   0.00
   5   6     0.00   0.00  -0.00    -0.00  -0.00   0.00     0.00  -0.00   0.00
   6   6    -0.00  -0.00  -0.00     0.00   0.00   0.00     0.00  -0.00  -0.00
   7   6     0.00   0.00  -0.00    -0.00  -0.00   0.00     0.00   0.00  -0.00
   8   8    -0.00   0.00   0.00     0.00   0.00   0.00    -0.00   0.00   0.01
   9   6     0.00   0.00  -0.00     0.00   0.00   0.01     0.06   0.08   0.27
  10   6     0.00  -0.00  -0.00    -0.00  -0.00   0.00    -0.00  -0.00   0.00
  11   6    -0.00   0.00   0.00     0.00  -0.00  -0.00     0.00  -0.00  -0.00
  12  17    -0.00   0.00   0.00     0.00  -0.00  -0.00    -0.00   0.00   0.00
  13   1    -0.12   0.18   0.12     0.06  -0.10  -0.07    -0.00   0.00   0.00
  14   1     0.01   0.00   0.01    -0.01   0.00  -0.00    -0.00  -0.00  -0.00
  15   1    -0.00  -0.00  -0.00     0.03   0.02  -0.01    -0.00  -0.00   0.00
  16   1    -0.18   0.25   0.15     0.35  -0.39  -0.27    -0.00   0.01   0.00
  17   1    -0.52  -0.26   0.12    -0.57  -0.25   0.15     0.01   0.01  -0.00
  18   1    -0.10   0.49  -0.36     0.06  -0.24   0.17    -0.00   0.00  -0.00
  19   1    -0.09   0.07   0.09    -0.19   0.20   0.15     0.01  -0.01  -0.01
  20   1    -0.00  -0.01   0.00     0.00   0.01  -0.00     0.00   0.00  -0.00
  21   1     0.00   0.00  -0.00     0.00  -0.00  -0.00    -0.01   0.00  -0.00
  22   1     0.00  -0.00   0.00    -0.00   0.01  -0.01    -0.07   0.27  -0.37
  23   1    -0.00  -0.00   0.00    -0.00  -0.00   0.00    -0.02  -0.02   0.05
  24   1    -0.00  -0.00  -0.00    -0.00  -0.01  -0.01    -0.10  -0.53  -0.64
  25   1    -0.00   0.00   0.00    -0.00   0.00  -0.00     0.00   0.00   0.00
  26   1     0.01  -0.01  -0.00    -0.00   0.00   0.00    -0.00   0.00   0.00
                     64                     65                     66
                        a                      a                      a 
 Frequencies --  2975.4866              2977.9657              3007.2689
 Red. masses --     1.6161                 1.5700                 1.5979
 Frc consts  --     0.0000                 0.0000                 0.0000
 IR Inten    --     6.7253                22.6403                26.5224
 Raman Activ --     0.0000                 0.0000                 0.0000
 Depolar     --     0.0000                 0.0000                 0.0000
 Atom AN      X      Y      Z        X      Y      Z        X      Y      Z
   1   7    -0.02   0.02   0.01    -0.00   0.00   0.00     0.00   0.00   0.00
   2   6    -0.02   0.09   0.04    -0.00   0.00   0.00     0.00  -0.00  -0.00
   3   6    -0.12   0.07   0.16    -0.01   0.00   0.01     0.00  -0.00  -0.00
   4   6    -0.01   0.00   0.00    -0.00  -0.00   0.00    -0.00   0.00  -0.00
   5   6     0.00  -0.00  -0.00     0.00  -0.00  -0.00     0.00  -0.00  -0.00
   6   6     0.00   0.00  -0.00     0.01  -0.00  -0.00    -0.00   0.00   0.00
   7   6    -0.00  -0.00   0.00     0.00   0.00  -0.00     0.00  -0.00  -0.00
   8   8     0.00  -0.00  -0.00    -0.02   0.01   0.00    -0.01   0.00   0.00
   9   6    -0.00  -0.01   0.00     0.02   0.20  -0.10    -0.19  -0.13   0.04
  10   6    -0.00   0.00  -0.00    -0.00  -0.00   0.00     0.00  -0.00  -0.00
  11   6     0.01  -0.00  -0.00     0.00  -0.00  -0.00     0.00  -0.00  -0.00
  12  17     0.00  -0.00  -0.00    -0.00  -0.00  -0.00    -0.00   0.00  -0.00
  13   1     0.05  -0.07  -0.04     0.00  -0.00  -0.00     0.00  -0.00  -0.00
  14   1    -0.00   0.00   0.00    -0.00   0.00  -0.00    -0.00  -0.00  -0.00
  15   1     0.01   0.01  -0.00     0.00   0.00  -0.00    -0.00  -0.00   0.00
  16   1     0.23  -0.27  -0.18     0.01  -0.01  -0.01    -0.00   0.00   0.00
  17   1    -0.14  -0.05   0.04    -0.00  -0.00   0.00    -0.00  -0.00   0.00
  18   1    -0.07   0.27  -0.17    -0.00   0.01  -0.01    -0.00   0.00  -0.00
  19   1     0.49  -0.50  -0.40     0.02  -0.02  -0.02    -0.00   0.00   0.00
  20   1     0.00   0.00  -0.00     0.00  -0.00   0.00    -0.00   0.00   0.00
  21   1    -0.00   0.00   0.00    -0.02   0.01   0.00     0.00  -0.00  -0.00
  22   1    -0.01   0.02  -0.03     0.16  -0.41   0.71    -0.00  -0.08   0.10
  23   1     0.01   0.00  -0.00    -0.11  -0.07   0.01     0.72   0.60  -0.17
  24   1     0.00   0.01   0.02    -0.05  -0.26  -0.39    -0.04  -0.09  -0.08
  25   1     0.00  -0.00   0.00     0.00   0.00  -0.00     0.00   0.00  -0.00
  26   1    -0.01   0.01   0.00    -0.00   0.00   0.00    -0.00   0.00   0.00
                     67                     68                     69
                        a                      a                      a 
 Frequencies --  3097.7202              3098.8530              3129.9098
 Red. masses --     1.8499                 1.8243                 1.8460
 Frc consts  --     0.0000                 0.0000                 0.0000
 IR Inten    --   132.0542                51.6250                 7.5087
 Raman Activ --     0.0000                 0.0000                 0.0000
 Depolar     --     0.0000                 0.0000                 0.0000
 Atom AN      X      Y      Z        X      Y      Z        X      Y      Z
   1   7    -0.01   0.00   0.00    -0.00   0.00   0.00    -0.00   0.00  -0.00
   2   6     0.00   0.00  -0.00    -0.00   0.00   0.00    -0.00   0.00  -0.00
   3   6    -0.00   0.00   0.00    -0.00   0.00   0.00     0.00   0.00  -0.00
   4   6    -0.01  -0.01   0.00     0.00   0.00  -0.00     0.00  -0.00   0.00
   5   6    -0.00  -0.16   0.01     0.01   0.21  -0.01    -0.00   0.00  -0.00
   6   6    -0.01   0.01   0.00     0.03  -0.02  -0.00    -0.01   0.00   0.00
   7   6    -0.00  -0.00   0.00     0.00  -0.00  -0.00     0.01   0.01  -0.00
   8   8     0.00   0.00  -0.00     0.00   0.00  -0.00    -0.00  -0.00   0.00
   9   6    -0.00   0.00   0.00    -0.00  -0.00   0.00    -0.00   0.00   0.00
  10   6     0.00  -0.02   0.00     0.00  -0.02   0.00     0.01   0.27  -0.02
  11   6    -0.19   0.12   0.03    -0.14   0.08   0.02    -0.04   0.02   0.00
  12  17     0.00   0.00   0.00     0.00   0.00   0.00     0.00  -0.00   0.00
  13   1     0.01  -0.02  -0.01     0.01  -0.01  -0.01     0.00  -0.00  -0.00
  14   1     0.00   0.00   0.00    -0.00  -0.00  -0.00     0.00   0.00   0.00
  15   1     0.01   0.01  -0.00     0.00   0.00   0.00    -0.00   0.00   0.00
  16   1    -0.00   0.00   0.00     0.00  -0.01  -0.00     0.00  -0.00  -0.00
  17   1    -0.00  -0.00   0.00    -0.00  -0.00   0.00    -0.00  -0.00   0.00
  18   1     0.00   0.00  -0.00    -0.00  -0.01   0.01     0.00  -0.00   0.00
  19   1     0.01  -0.01  -0.00     0.01  -0.01  -0.01    -0.00   0.00   0.00
  20   1     0.01   0.56  -0.03    -0.02  -0.76   0.05    -0.00  -0.01   0.00
  21   1     0.07  -0.04  -0.01    -0.13   0.08   0.02     0.04  -0.02  -0.01
  22   1     0.00  -0.00   0.00    -0.00   0.00  -0.00     0.00  -0.00   0.00
  23   1     0.00   0.00  -0.00     0.00   0.00  -0.00     0.00  -0.00   0.00
  24   1    -0.00  -0.00  -0.00     0.00   0.00   0.00    -0.00  -0.00  -0.00
  25   1     0.00   0.09  -0.01     0.00   0.07  -0.01    -0.02  -0.95   0.07
  26   1     0.64  -0.41  -0.09     0.47  -0.30  -0.06     0.09  -0.06  -0.01
                     70                     71                     72
                        a                      a                      a 
 Frequencies --  3134.2695              3167.2390              3196.1680
 Red. masses --     1.8366                 1.8414                 1.6726
 Frc consts  --     0.0000                 0.0000                 0.0000
 IR Inten    --    31.4828                54.2627                25.0845
 Raman Activ --     0.0000                 0.0000                 0.0000
 Depolar     --     0.0000                 0.0000                 0.0000
 Atom AN      X      Y      Z        X      Y      Z        X      Y      Z
   1   7    -0.00  -0.00  -0.00     0.23   0.11  -0.03     0.10   0.04   0.20
   2   6     0.00  -0.00  -0.00     0.01   0.01  -0.00     0.00  -0.00   0.00
   3   6     0.00  -0.00  -0.00    -0.00   0.00   0.00    -0.00  -0.00   0.00
   4   6    -0.00   0.00   0.00    -0.00  -0.00  -0.00    -0.00  -0.00  -0.00
   5   6     0.00  -0.06   0.00     0.00  -0.00   0.00    -0.00  -0.00   0.00
   6   6     0.22  -0.14  -0.03     0.00  -0.00  -0.00     0.00  -0.00  -0.00
   7   6     0.01   0.00  -0.00     0.00   0.00   0.00     0.00   0.00   0.00
   8   8     0.00  -0.00   0.00    -0.00  -0.00   0.00    -0.00  -0.00   0.00
   9   6     0.00  -0.00  -0.00     0.00  -0.00  -0.00     0.00  -0.00  -0.00
  10   6    -0.00   0.01  -0.00     0.00  -0.00  -0.00    -0.00   0.00   0.00
  11   6     0.00  -0.00  -0.00    -0.00   0.00  -0.00    -0.00   0.00   0.00
  12  17     0.00  -0.00   0.00     0.00  -0.00  -0.00     0.00  -0.00  -0.00
  13   1    -0.00   0.00   0.00     0.05  -0.04  -0.04    -0.01   0.04   0.04
  14   1     0.00   0.00   0.00    -0.07  -0.04  -0.14    -0.54  -0.25  -0.75
  15   1     0.00   0.00  -0.00    -0.84  -0.33   0.31     0.16   0.07  -0.03
  16   1    -0.00   0.00   0.00     0.00  -0.01  -0.00    -0.00   0.00   0.00
  17   1     0.00   0.00   0.00    -0.03  -0.01   0.01     0.00   0.00  -0.00
  18   1     0.00   0.00  -0.00     0.00  -0.00   0.00    -0.00   0.00  -0.00
  19   1    -0.00   0.00   0.00     0.00  -0.00  -0.00     0.00  -0.00  -0.00
  20   1     0.00   0.16  -0.01     0.00   0.01  -0.00     0.00   0.00   0.00
  21   1    -0.79   0.50   0.12    -0.00   0.00   0.00    -0.00   0.00   0.00
  22   1    -0.00   0.01  -0.01     0.00   0.00  -0.00     0.00  -0.00   0.00
  23   1     0.00   0.00  -0.00    -0.00  -0.00   0.00    -0.00  -0.00   0.00
  24   1     0.00   0.01   0.01     0.00   0.00   0.00     0.00   0.00   0.00
  25   1     0.00  -0.05   0.00     0.00   0.00   0.00    -0.00  -0.00   0.00
  26   1    -0.02   0.01   0.00     0.01  -0.01  -0.00     0.00  -0.00   0.00
