23
 energy: -23.608488517744 gnorm: 0.000552832467 xtb: 6.5.1 (fef0646)
N            0.93112927889411       -0.04762388361666        0.07392252688846
C            2.41462816977893       -0.03700237866475        0.08679759043838
C            2.93741578278954        1.18888724359276        0.82713680098627
C            4.46562352014459        1.21056561519563        0.83906820934524
C            5.00309380069766        2.43391315044175        1.57917236153675
C            6.52955230284569        2.46804348126520        1.59763119558210
C            7.05693031322069        3.69177935787848        2.33821435068121
H            0.57619700592217       -0.87288288138341       -0.42236388184468
H            0.57713799002523        0.79643571215820       -0.39171675521985
H            0.57124495775841       -0.05926847970141        1.03552894795661
H            2.78198667070516       -0.02967135878702       -0.93919768162145
H            2.77526793770315       -0.94181178261839        0.57559044576047
H            2.58403077074213        1.18692529351853        1.85900239851036
H            2.58326289217123        2.10126446314892        0.34574498785656
H            4.84494967476987        1.22159559855053       -0.18452372290514
H            4.84634101522401        0.30903530073259        1.32280007557134
H            4.63825699418710        2.43091742542654        2.60881395987971
H            4.63611055119951        3.34455412283096        1.10030067849853
H            6.90752403155821        2.47837987351371        0.57268925937510
H            6.90975578576867        1.56489226142413        2.08055922522228
H            6.71098580595806        4.60700338465084        1.86227014250077
H            8.14451147873541        3.69999863796175        2.34139951555020
H            6.71348326920048        3.69305984248112        3.37062936945079
