23
 energy: -23.497760281634 gnorm: 0.000495661138 xtb: 6.5.1 (fef0646)
N            0.90687778921047        0.05650335171861        0.09419248259279
C            2.40621766698467        0.06395313007387        0.07846382808384
C            2.92293201300827        0.53497230986990       -1.27235242827745
C            4.45449142258211        0.54416490280595       -1.29785489953076
C            4.98809160720648        1.01565413454471       -2.64972948073683
C            6.51520182304862        1.02766955276018       -2.68463446238199
C            7.03826180734630        1.49892846072212       -4.03558299613980
H            0.53933569201894       -0.25959064445979        1.00030012319505
H            0.55672316659538       -0.56863207035411       -0.64403535047473
H            0.55459995524134        1.00412896328924       -0.09625261504390
H            2.75773779280336       -0.94697553882833        0.28855371809759
H            2.75555431942021        0.72655132713573        0.87132128506557
H            2.56254866622853        1.54441006928291       -1.47975236989093
H            2.56294759243701       -0.12699113538744       -2.06235119043112
H            4.82808406536499       -0.46049680386751       -1.09436791704529
H            4.82779766182465        1.20455839114264       -0.51373561331898
H            4.61787162319906        2.02186398331436       -2.85625586872703
H            4.61771861119202        0.35622217092870       -3.43722860181584
H            6.88949347809397        0.02262113486616       -2.48071013651561
H            6.88967972398112        1.68767211128257       -1.89980248790586
H            6.69318905726945        0.84213916484342       -4.83060194867625
H            8.12449054391588        1.50054356565813       -4.04069018549577
H            6.69344392102715        2.50781946865798       -4.24945288462671
