      -----------------------------------------------------------      
     |                   =====================                   |     
     |                           x T B                           |     
     |                   =====================                   |     
     |                         S. Grimme                         |     
     |          Mulliken Center for Theoretical Chemistry        |     
     |                    University of Bonn                     |     
      -----------------------------------------------------------      

   * xtb version 6.5.1 (fef0646) compiled by 'conda@b96dff2e9fd6' on 2023-01-04

   xtb is free software: you can redistribute it and/or modify it under
   the terms of the GNU Lesser General Public License as published by
   the Free Software Foundation, either version 3 of the License, or
   (at your option) any later version.
   
   xtb is distributed in the hope that it will be useful,
   but WITHOUT ANY WARRANTY; without even the implied warranty of
   MERCHANTABILITY or FITNESS FOR A PARTICULAR PURPOSE.  See the
   GNU Lesser General Public License for more details.
   
   Cite this work as:
   * C. Bannwarth, E. Caldeweyher, S. Ehlert, A. Hansen, P. Pracht,
     J. Seibert, S. Spicher, S. Grimme, WIREs Comput. Mol. Sci., 2020, 11,
     e01493. DOI: 10.1002/wcms.1493
   
   for GFN2-xTB:
   * C. Bannwarth, S. Ehlert and S. Grimme., J. Chem. Theory Comput., 2019,
     15, 1652-1671. DOI: 10.1021/acs.jctc.8b01176
   for GFN1-xTB:
   * S. Grimme, C. Bannwarth, P. Shushkov, J. Chem. Theory Comput., 2017,
     13, 1989-2009. DOI: 10.1021/acs.jctc.7b00118
   for GFN0-xTB:
   * P. Pracht, E. Caldeweyher, S. Ehlert, S. Grimme, ChemRxiv, 2019, preprint.
     DOI: 10.26434/chemrxiv.8326202.v1
   for GFN-FF:
   * S. Spicher and S. Grimme, Angew. Chem. Int. Ed., 2020, 59, 15665-15673.
     DOI: 10.1002/anie.202004239
   
   for ALPB and GBSA implicit solvation:
   * S. Ehlert, M. Stahn, S. Spicher, S. Grimme, J. Chem. Theory Comput.,
     2021, 17, 4250-4261. DOI: 10.1021/acs.jctc.1c00471
   
   for DFT-D4:
   * E. Caldeweyher, C. Bannwarth and S. Grimme, J. Chem. Phys., 2017,
     147, 034112. DOI: 10.1063/1.4993215
   * E. Caldeweyher, S. Ehlert, A. Hansen, H. Neugebauer, S. Spicher,
     C. Bannwarth and S. Grimme, J. Chem. Phys., 2019, 150, 154122.
     DOI: 10.1063/1.5090222
   * E. Caldeweyher, J.-M. Mewes, S. Ehlert and S. Grimme, Phys. Chem. Chem. Phys.
     2020, 22, 8499-8512. DOI: 10.1039/D0CP00502A
   
   for sTDA-xTB:
   * S. Grimme and C. Bannwarth, J. Chem. Phys., 2016, 145, 054103.
     DOI: 10.1063/1.4959605
   
   in the mass-spec context:
   * V. Asgeirsson, C. Bauer and S. Grimme, Chem. Sci., 2017, 8, 4879.
     DOI: 10.1039/c7sc00601b
   * J. Koopman and S. Grimme, ACS Omega 2019, 4, 12, 15120-15133.
     DOI: 10.1021/acsomega.9b02011
   
   for metadynamics refer to:
   * S. Grimme, J. Chem. Theory Comput., 2019, 155, 2847-2862
     DOI: 10.1021/acs.jctc.9b00143
   
   for SPH calculations refer to:
   * S. Spicher and S. Grimme, J. Chem. Theory Comput., 2021, 17, 1701-1714
     DOI: 10.1021/acs.jctc.0c01306
   
   with help from (in alphabetical order)
   P. Atkinson, C. Bannwarth, F. Bohle, G. Brandenburg, E. Caldeweyher
   M. Checinski, S. Dohm, S. Ehlert, S. Ehrlich, I. Gerasimov, C. Hölzer
   A. Katbashev, J. Koopman, C. Lavigne, S. Lehtola, F. März, M. Müller,
   F. Musil, H. Neugebauer, J. Pisarek, C. Plett, P. Pracht, F. Pultar,
   J. Seibert, P. Shushkov, S. Spicher, M. Stahn, M. Steiner, T. Strunk,
   J. Stückrath, T. Rose, and J. Unsleber
   
 * started run on 2023/01/23 at 14:08:02.974     

           -------------------------------------------------
          |                Calculation Setup                |
           -------------------------------------------------

          program call               : xtb init.xyz --opt -c 0 -u 0 -P 16
          hostname                   : gpg-woodward
          coordinate file            : init.xyz
          omp threads                :                    16

   ID    Z sym.   atoms
    1    7 N      1
    2    6 C      2-7, 9-11
    3    8 O      8
    4   17 Cl     12
    5    1 H      13-26

molecular fragmentation (1/2 indicates fragments):
11111111111211111111111111
# atoms in fragment 1/2:    25     1
 fragment masses (1/2) :      152.21       35.45
CMA distance (Bohr)    :  11.344
constraining FC (au)   :  0.0500

           -------------------------------------------------
          |                 G F N 2 - x T B                 |
           -------------------------------------------------

        Reference                      10.1021/acs.jctc.8b01176
      * Hamiltonian:
        H0-scaling (s, p, d)           1.850000    2.230000    2.230000
        zeta-weighting                 0.500000
      * Dispersion:
        s8                             2.700000
        a1                             0.520000
        a2                             5.000000
        s9                             5.000000
      * Repulsion:
        kExp                           1.500000    1.000000
        rExp                           1.000000
      * Coulomb:
        alpha                          2.000000
        third order                    shell-resolved
        anisotropic                    true
        a3                             3.000000
        a5                             4.000000
        cn-shift                       1.200000
        cn-exp                         4.000000
        max-rad                        5.000000


          ...................................................
          :                      SETUP                      :
          :.................................................:
          :  # basis functions                  68          :
          :  # atomic orbitals                  67          :
          :  # shells                           39          :
          :  # electrons                        68          :
          :  max. iterations                   250          :
          :  Hamiltonian                  GFN2-xTB          :
          :  restarted?                      false          :
          :  GBSA solvation                  false          :
          :  PC potential                    false          :
          :  electronic temp.          300.0000000     K    :
          :  accuracy                    1.0000000          :
          :  -> integral cutoff          0.2500000E+02      :
          :  -> integral neglect         0.1000000E-07      :
          :  -> SCF convergence          0.1000000E-05 Eh   :
          :  -> wf. convergence          0.1000000E-03 e    :
          :  Broyden damping             0.4000000          :
          ...................................................

 iter      E             dE          RMSdq      gap      omega  full diag
   1    -38.2488368 -0.382488E+02  0.458E+00    3.97       0.0  T
   2    -38.3837596 -0.134923E+00  0.257E+00    3.88       1.0  T
   3    -38.3874793 -0.371965E-02  0.128E+00    3.01       1.0  T
   4    -38.3870838  0.395525E-03  0.559E-01    2.77       1.0  T
   5    -38.3908057 -0.372191E-02  0.261E-01    2.71       1.0  T
   6    -38.3910906 -0.284937E-03  0.184E-01    2.72       1.0  T
   7    -38.3913729 -0.282308E-03  0.100E-01    2.75       1.0  T
   8    -38.3914780 -0.105101E-03  0.439E-02    2.73       1.0  T
   9    -38.3914931 -0.150442E-04  0.152E-02    2.73       1.3  T
  10    -38.3914938 -0.737944E-06  0.539E-03    2.73       3.6  T
  11    -38.3914942 -0.379442E-06  0.231E-03    2.73       8.5  T
  12    -38.3914942 -0.515890E-07  0.100E-03    2.73      19.6  T
  13    -38.3914942 -0.589324E-08  0.378E-04    2.73      51.9  T
  14    -38.3914942 -0.494758E-09  0.243E-04    2.73      80.6  T

   *** convergence criteria satisfied after 14 iterations ***

         #    Occupation            Energy/Eh            Energy/eV
      -------------------------------------------------------------
         1        2.0000           -0.9493913             -25.8343
       ...           ...                  ...                  ...
        28        2.0000           -0.4514314             -12.2841
        29        2.0000           -0.4316074             -11.7446
        30        2.0000           -0.4141436             -11.2694
        31        2.0000           -0.3882151             -10.5639
        32        2.0000           -0.3496974              -9.5158
        33        2.0000           -0.3386291              -9.2146
        34        2.0000           -0.3383852              -9.2079 (HOMO)
        35                         -0.2381256              -6.4797 (LUMO)
        36                         -0.2284196              -6.2156
        37                         -0.1096521              -2.9838
        38                         -0.0801594              -2.1812
        39                          0.0128631               0.3500
       ...                                ...                  ...
        67                          0.6224891              16.9388
      -------------------------------------------------------------
                  HL-Gap            0.1002596 Eh            2.7282 eV
             Fermi-level           -0.2882554 Eh           -7.8438 eV

 SCC (total)                   0 d,  0 h,  0 min,  0.052 sec
 SCC setup                      ...        0 min,  0.000 sec (  0.392%)
 Dispersion                     ...        0 min,  0.000 sec (  0.677%)
 classical contributions        ...        0 min,  0.000 sec (  0.161%)
 integral evaluation            ...        0 min,  0.001 sec (  2.729%)
 iterations                     ...        0 min,  0.046 sec ( 88.032%)
 molecular gradient             ...        0 min,  0.003 sec (  6.094%)
 printout                       ...        0 min,  0.001 sec (  1.281%)

         :::::::::::::::::::::::::::::::::::::::::::::::::::::
         ::                     SUMMARY                     ::
         :::::::::::::::::::::::::::::::::::::::::::::::::::::
         :: total energy             -37.914971924130 Eh    ::
         :: gradient norm              0.060107317445 Eh/a0 ::
         :: HOMO-LUMO gap              2.728201295025 eV    ::
         ::.................................................::
         :: SCC energy               -38.391494227786 Eh    ::
         :: -> isotropic ES            0.102795401074 Eh    ::
         :: -> anisotropic ES         -0.018811564703 Eh    ::
         :: -> anisotropic XC          0.006496606215 Eh    ::
         :: -> dispersion             -0.020234050841 Eh    ::
         :: repulsion energy           0.476578619346 Eh    ::
         :: add. restraining           0.000000000000 Eh    ::
         :: total charge               0.000000000000 e     ::
         :::::::::::::::::::::::::::::::::::::::::::::::::::::

      ----------------------------------------------------------- 
     |                   =====================                   |
     |                        A N C O P T                        |
     |                   =====================                   |
     |               Approximate Normal Coordinate               |
     |                Rational Function Optimizer                |
      ----------------------------------------------------------- 

          ...................................................
          :                      SETUP                      :
          :.................................................:
          :   optimization level            normal          :
          :   max. optcycles                   200          :
          :   ANC micro-cycles                  20          :
          :   degrees of freedom                72          :
          :.................................................:
          :   RF solver                   davidson          :
          :   write xtbopt.log                true          :
          :   linear?                        false          :
          :   energy convergence         0.5000000E-05 Eh   :
          :   grad. convergence          0.1000000E-02 Eh/α :
          :   maximium RF displ.         1.0000000          :
          :   Hlow (freq-cutoff)         0.1000000E-01      :
          :   Hmax (freq-cutoff)         5.0000000          :
          :   S6 in model hess.         20.0000000          :
          ...................................................

generating ANC from model Hessian ...
Using Lindh-Hessian (1995)
 Shifting diagonal of input Hessian by    9.8098658344949932E-003
 Lowest  eigenvalues of input Hessian
    0.000000    0.000000    0.000000    0.000000    0.000000    0.000000
    0.010000    0.010337    0.011061    0.011631    0.013122    0.013855
    0.015153    0.017153    0.021315    0.023386    0.024283    0.026684
 Highest eigenvalues
    1.528391    1.555971    1.716938    1.840089    1.959024    2.055366


........................................................................
.............................. CYCLE    1 ..............................
........................................................................
   1    -38.3914942 -0.383915E+02  0.158E-04    2.73       0.0  T
   2    -38.3914942 -0.957030E-10  0.128E-04    2.73     153.6  T
   3    -38.3914942 -0.503277E-10  0.102E-04    2.73     191.5  T
     SCC iter.                  ...        0 min,  0.010 sec
     gradient                   ...        0 min,  0.003 sec
 * total energy  :   -37.9149719 Eh     change       -0.4770371E-09 Eh
   gradient norm :     0.0601069 Eh/α   predicted     0.0000000E+00 (-100.00%)
   displ. norm   :     0.2818756 α      lambda       -0.1136355E-01
   maximum displ.:     0.1422850 α      in ANC's #17, #21, #43, ...

........................................................................
.............................. CYCLE    2 ..............................
........................................................................
   1    -38.4116294 -0.384116E+02  0.301E-01    2.96       0.0  T
   2    -38.4118577 -0.228230E-03  0.181E-01    3.02       1.0  T
   3    -38.4118749 -0.172670E-04  0.556E-02    3.10       1.0  T
   4    -38.4118810 -0.608057E-05  0.298E-02    3.12       1.0  T
   5    -38.4118882 -0.721756E-05  0.201E-02    3.12       1.0  T
   6    -38.4118909 -0.263731E-05  0.122E-02    3.12       1.6  T
   7    -38.4118924 -0.149137E-05  0.588E-03    3.12       3.3  T
   8    -38.4118927 -0.317972E-06  0.206E-03    3.12       9.5  T
   9    -38.4118928 -0.758189E-07  0.654E-04    3.12      30.0  T
  10    -38.4118928 -0.263407E-08  0.309E-04    3.12      63.4  T
     SCC iter.                  ...        0 min,  0.032 sec
     gradient                   ...        0 min,  0.003 sec
 * total energy  :   -37.9227402 Eh     change       -0.7768295E-02 Eh
   gradient norm :     0.0442921 Eh/α   predicted    -0.6133544E-02 ( -21.04%)
   displ. norm   :     0.3486365 α      lambda       -0.6891489E-02
   maximum displ.:     0.1624107 α      in ANC's #12, #3, #43, ...

........................................................................
.............................. CYCLE    3 ..............................
........................................................................
   1    -38.4243573 -0.384244E+02  0.245E-01    3.22       0.0  T
   2    -38.4245324 -0.175058E-03  0.147E-01    3.28       1.0  T
   3    -38.4245436 -0.112183E-04  0.492E-02    3.35       1.0  T
   4    -38.4245509 -0.730504E-05  0.251E-02    3.37       1.0  T
   5    -38.4245563 -0.541320E-05  0.164E-02    3.37       1.2  T
   6    -38.4245578 -0.148146E-05  0.106E-02    3.37       1.8  T
   7    -38.4245588 -0.105259E-05  0.494E-03    3.37       4.0  T
   8    -38.4245590 -0.172440E-06  0.204E-03    3.37       9.6  T
   9    -38.4245591 -0.740123E-07  0.771E-04    3.37      25.4  T
  10    -38.4245591 -0.387305E-08  0.529E-04    3.37      37.1  T
     SCC iter.                  ...        0 min,  0.030 sec
     gradient                   ...        0 min,  0.003 sec
 * total energy  :   -37.9273630 Eh     change       -0.4622778E-02 Eh
   gradient norm :     0.0334775 Eh/α   predicted    -0.3864869E-02 ( -16.40%)
   displ. norm   :     0.2756309 α      lambda       -0.3506837E-02
   maximum displ.:     0.1166415 α      in ANC's #12, #3, #43, ...

........................................................................
.............................. CYCLE    4 ..............................
........................................................................
   1    -38.4243606 -0.384244E+02  0.231E-01    3.44       0.0  T
   2    -38.4246427 -0.282141E-03  0.136E-01    3.54       1.0  T
   3    -38.4246708 -0.280517E-04  0.596E-02    3.63       1.0  T
   4    -38.4246790 -0.819754E-05  0.328E-02    3.67       1.0  T
   5    -38.4246861 -0.717740E-05  0.251E-02    3.67       1.0  T
   6    -38.4246916 -0.546946E-05  0.139E-02    3.67       1.4  T
   7    -38.4246939 -0.230990E-05  0.647E-03    3.67       3.0  T
   8    -38.4246943 -0.434020E-06  0.191E-03    3.67      10.2  T
   9    -38.4246944 -0.581001E-07  0.101E-03    3.67      19.3  T
  10    -38.4246944 -0.702235E-08  0.661E-04    3.67      29.7  T
  11    -38.4246944 -0.268350E-08  0.443E-04    3.67      44.3  T
     SCC iter.                  ...        0 min,  0.030 sec
     gradient                   ...        0 min,  0.002 sec
 * total energy  :   -37.9300013 Eh     change       -0.2638336E-02 Eh
   gradient norm :     0.0310637 Eh/α   predicted    -0.1886634E-02 ( -28.49%)
   displ. norm   :     0.2920863 α      lambda       -0.3392088E-02
   maximum displ.:     0.1175803 α      in ANC's #3, #12, #43, ...

........................................................................
.............................. CYCLE    5 ..............................
........................................................................
   1    -38.4229097 -0.384229E+02  0.260E-01    3.71       0.0  T
   2    -38.4232908 -0.381129E-03  0.148E-01    3.83       1.0  T
   3    -38.4233255 -0.346438E-04  0.617E-02    3.95       1.0  T
   4    -38.4233328 -0.734096E-05  0.304E-02    4.00       1.0  T
   5    -38.4233392 -0.637403E-05  0.232E-02    4.00       1.0  T
   6    -38.4233435 -0.433129E-05  0.145E-02    4.00       1.4  T
   7    -38.4233461 -0.254994E-05  0.782E-03    4.00       2.5  T
   8    -38.4233468 -0.768722E-06  0.225E-03    4.00       8.7  T
   9    -38.4233469 -0.607750E-07  0.128E-03    4.00      15.3  T
  10    -38.4233469 -0.108230E-07  0.853E-04    4.00      23.0  T
  11    -38.4233469 -0.451684E-08  0.570E-04    4.00      34.4  T
     SCC iter.                  ...        0 min,  0.028 sec
     gradient                   ...        0 min,  0.002 sec
 * total energy  :   -37.9325645 Eh     change       -0.2563174E-02 Eh
   gradient norm :     0.0226070 Eh/α   predicted    -0.1840742E-02 ( -28.19%)
   displ. norm   :     0.2794690 α      lambda       -0.2891433E-02
   maximum displ.:     0.1320447 α      in ANC's #43, #62, #1, ...

........................................................................
.............................. CYCLE    6 ..............................
........................................................................
   1    -38.4237230 -0.384237E+02  0.302E-01    4.07       0.0  T
   2    -38.4242659 -0.542890E-03  0.168E-01    4.15       1.0  T
   3    -38.4243245 -0.586509E-04  0.781E-02    4.15       1.0  T
   4    -38.4243422 -0.176970E-04  0.420E-02    4.15       1.0  T
   5    -38.4243520 -0.976197E-05  0.339E-02    4.15       1.0  T
   6    -38.4243644 -0.124323E-04  0.197E-02    4.15       1.0  T
   7    -38.4243697 -0.528515E-05  0.107E-02    4.15       1.8  T
   8    -38.4243713 -0.160768E-05  0.279E-03    4.15       7.0  T
   9    -38.4243714 -0.908006E-07  0.123E-03    4.15      15.9  T
  10    -38.4243714 -0.983446E-08  0.650E-04    4.15      30.2  T
  11    -38.4243714 -0.188880E-08  0.442E-04    4.15      44.4  T
     SCC iter.                  ...        0 min,  0.028 sec
     gradient                   ...        0 min,  0.003 sec
 * total energy  :   -37.9342332 Eh     change       -0.1668725E-02 Eh
   gradient norm :     0.0156981 Eh/α   predicted    -0.1558635E-02 (  -6.60%)
   displ. norm   :     0.1999237 α      lambda       -0.1561171E-02
   maximum displ.:     0.0909574 α      in ANC's #17, #3, #12, ...

........................................................................
.............................. CYCLE    7 ..............................
........................................................................
   1    -38.4232734 -0.384233E+02  0.130E-01    4.16       0.0  T
   2    -38.4233109 -0.374839E-04  0.779E-02    4.15       1.0  T
   3    -38.4233167 -0.583703E-05  0.264E-02    4.15       1.0  T
   4    -38.4233185 -0.178712E-05  0.159E-02    4.15       1.2  T
   5    -38.4233208 -0.230338E-05  0.107E-02    4.15       1.8  T
   6    -38.4233218 -0.100380E-05  0.771E-03    4.15       2.5  T
   7    -38.4233224 -0.612157E-06  0.477E-03    4.15       4.1  T
   8    -38.4233228 -0.385488E-06  0.997E-04    4.15      19.7  T
   9    -38.4233228 -0.899730E-08  0.652E-04    4.15      30.1  T
     SCC iter.                  ...        0 min,  0.023 sec
     gradient                   ...        0 min,  0.002 sec
 * total energy  :   -37.9348320 Eh     change       -0.5987177E-03 Eh
   gradient norm :     0.0098896 Eh/α   predicted    -0.8117881E-03 (  35.59%)
   displ. norm   :     0.1027686 α      lambda       -0.5094451E-03
   maximum displ.:     0.0574841 α      in ANC's #3, #2, #12, ...

........................................................................
.............................. CYCLE    8 ..............................
........................................................................
   1    -38.4252949 -0.384253E+02  0.781E-02    4.16       0.0  T
   2    -38.4253099 -0.150164E-04  0.461E-02    4.16       1.0  T
   3    -38.4253133 -0.336195E-05  0.179E-02    4.16       1.1  T
   4    -38.4253145 -0.123223E-05  0.117E-02    4.16       1.7  T
   5    -38.4253152 -0.678726E-06  0.934E-03    4.16       2.1  T
   6    -38.4253163 -0.111082E-05  0.314E-03    4.16       6.2  T
   7    -38.4253164 -0.101347E-06  0.170E-03    4.16      11.5  T
   8    -38.4253165 -0.318622E-07  0.103E-03    4.16      19.1  T
   9    -38.4253165 -0.807239E-08  0.767E-04    4.16      25.6  T
  10    -38.4253165 -0.609256E-08  0.393E-04    4.16      49.9  T
     SCC iter.                  ...        0 min,  0.025 sec
     gradient                   ...        0 min,  0.002 sec
 * total energy  :   -37.9351599 Eh     change       -0.3279257E-03 Eh
   gradient norm :     0.0048069 Eh/α   predicted    -0.2574141E-03 ( -21.50%)
   displ. norm   :     0.0866694 α      lambda       -0.1641747E-03
   maximum displ.:     0.0511629 α      in ANC's #12, #3, #10, ...

........................................................................
.............................. CYCLE    9 ..............................
........................................................................
   1    -38.4262215 -0.384262E+02  0.411E-02    4.17       0.0  T
   2    -38.4262222 -0.643016E-06  0.252E-02    4.17       1.0  T
   3    -38.4262227 -0.564211E-06  0.695E-03    4.17       2.8  T
   4    -38.4262230 -0.281816E-06  0.562E-03    4.17       3.5  T
   5    -38.4262233 -0.251898E-06  0.243E-03    4.17       8.1  T
   6    -38.4262233 -0.628148E-07  0.692E-04    4.17      28.4  T
   7    -38.4262233 -0.133891E-08  0.284E-04    4.17      69.0  T
     SCC iter.                  ...        0 min,  0.018 sec
     gradient                   ...        0 min,  0.003 sec
 * total energy  :   -37.9352678 Eh     change       -0.1079554E-03 Eh
   gradient norm :     0.0029450 Eh/α   predicted    -0.8270722E-04 ( -23.39%)
   displ. norm   :     0.0595565 α      lambda       -0.5596900E-04
   maximum displ.:     0.0436562 α      in ANC's #12, #10, #17, ...

........................................................................
.............................. CYCLE   10 ..............................
........................................................................
   1    -38.4261740 -0.384262E+02  0.191E-02    4.17       0.0  T
   2    -38.4261742 -0.190833E-06  0.115E-02    4.17       1.7  T
   3    -38.4261742  0.131641E-07  0.330E-03    4.17       5.9  T
   4    -38.4261743 -0.134479E-06  0.202E-03    4.17       9.7  T
   5    -38.4261744 -0.224374E-07  0.138E-03    4.17      14.2  T
   6    -38.4261744 -0.167190E-07  0.473E-04    4.17      41.4  T
   7    -38.4261744 -0.166932E-08  0.243E-04    4.17      80.6  T
     SCC iter.                  ...        0 min,  0.018 sec
     gradient                   ...        0 min,  0.002 sec
 * total energy  :   -37.9353092 Eh     change       -0.4139660E-04 Eh
   gradient norm :     0.0021130 Eh/α   predicted    -0.2808603E-04 ( -32.15%)
   displ. norm   :     0.0991106 α      lambda       -0.6495912E-04
   maximum displ.:     0.0692945 α      in ANC's #12, #3, #10, ...

........................................................................
.............................. CYCLE   11 ..............................
........................................................................
   1    -38.4258249 -0.384258E+02  0.228E-02    4.17       0.0  T
   2    -38.4258252 -0.288800E-06  0.135E-02    4.17       1.5  T
   3    -38.4258251  0.106588E-06  0.337E-03    4.17       5.8  T
   4    -38.4258252 -0.186386E-06  0.125E-03    4.17      15.7  T
   5    -38.4258253 -0.104410E-07  0.678E-04    4.17      28.9  T
   6    -38.4258253 -0.227081E-08  0.435E-04    4.17      45.1  T
     SCC iter.                  ...        0 min,  0.015 sec
     gradient                   ...        0 min,  0.002 sec
 * total energy  :   -37.9353575 Eh     change       -0.4829969E-04 Eh
   gradient norm :     0.0018900 Eh/α   predicted    -0.3280104E-04 ( -32.09%)
   displ. norm   :     0.2185266 α      lambda       -0.7292662E-04
   maximum displ.:     0.1343808 α      in ANC's #12, #3, #5, ...

........................................................................
.............................. CYCLE   12 ..............................
........................................................................
   1    -38.4247912 -0.384248E+02  0.502E-02    4.17       0.0  T
   2    -38.4247921 -0.879850E-06  0.303E-02    4.17       1.0  T
   3    -38.4247924 -0.272871E-06  0.640E-03    4.17       3.1  T
   4    -38.4247927 -0.325418E-06  0.452E-03    4.17       4.3  T
   5    -38.4247928 -0.114813E-06  0.288E-03    4.17       6.8  T
   6    -38.4247929 -0.605881E-07  0.145E-03    4.17      13.5  T
   7    -38.4247929 -0.165454E-07  0.658E-04    4.17      29.8  T
   8    -38.4247929 -0.383982E-08  0.138E-04    4.17     142.2  T
     SCC iter.                  ...        0 min,  0.020 sec
     gradient                   ...        0 min,  0.002 sec
 * total energy  :   -37.9354146 Eh     change       -0.5708667E-04 Eh
   gradient norm :     0.0035699 Eh/α   predicted    -0.3723878E-04 ( -34.77%)
   displ. norm   :     0.0505997 α      lambda       -0.3897454E-04
   maximum displ.:     0.0393794 α      in ANC's #3, #2, #6, ...

........................................................................
.............................. CYCLE   13 ..............................
........................................................................
   1    -38.4253438 -0.384253E+02  0.189E-02    4.17       0.0  T
   2    -38.4253439 -0.133873E-06  0.116E-02    4.17       1.7  T
   3    -38.4253440 -0.828253E-07  0.358E-03    4.17       5.5  T
   4    -38.4253441 -0.105240E-06  0.268E-03    4.17       7.3  T
   5    -38.4253442 -0.627100E-07  0.809E-04    4.17      24.2  T
   6    -38.4253442 -0.645894E-08  0.338E-04    4.17      58.1  T
     SCC iter.                  ...        0 min,  0.015 sec
     gradient                   ...        0 min,  0.002 sec
 * total energy  :   -37.9354437 Eh     change       -0.2904524E-04 Eh
   gradient norm :     0.0017402 Eh/α   predicted    -0.1953947E-04 ( -32.73%)
   displ. norm   :     0.1123658 α      lambda       -0.2743123E-04
   maximum displ.:     0.0873993 α      in ANC's #3, #2, #12, ...

........................................................................
.............................. CYCLE   14 ..............................
........................................................................
   1    -38.4260320 -0.384260E+02  0.372E-02    4.16       0.0  T
   2    -38.4260329 -0.936863E-06  0.227E-02    4.16       1.0  T
   3    -38.4260330 -0.753036E-07  0.772E-03    4.16       2.5  T
   4    -38.4260336 -0.611494E-06  0.513E-03    4.16       3.8  T
   5    -38.4260338 -0.148887E-06  0.356E-03    4.16       5.5  T
   6    -38.4260339 -0.113141E-06  0.120E-03    4.16      16.4  T
   7    -38.4260339 -0.169669E-07  0.539E-04    4.16      36.4  T
   8    -38.4260339 -0.186755E-08  0.304E-04    4.16      64.5  T
     SCC iter.                  ...        0 min,  0.021 sec
     gradient                   ...        0 min,  0.002 sec
 * total energy  :   -37.9354594 Eh     change       -0.1577573E-04 Eh
   gradient norm :     0.0014928 Eh/α   predicted    -0.1379350E-04 ( -12.57%)
   displ. norm   :     0.0137307 α      lambda       -0.5761760E-05
   maximum displ.:     0.0075245 α      in ANC's #6, #5, #12, ...

........................................................................
.............................. CYCLE   15 ..............................
........................................................................
   1    -38.4260014 -0.384260E+02  0.738E-03    4.16       0.0  T
   2    -38.4260015 -0.422227E-07  0.449E-03    4.16       4.4  T
   3    -38.4260015 -0.194129E-07  0.123E-03    4.16      16.0  T
   4    -38.4260015 -0.708219E-08  0.946E-04    4.16      20.7  T
   5    -38.4260015 -0.555720E-08  0.697E-04    4.16      28.1  T
     SCC iter.                  ...        0 min,  0.013 sec
     gradient                   ...        0 min,  0.003 sec
 * total energy  :   -37.9354659 Eh     change       -0.6467618E-05 Eh
   gradient norm :     0.0007541 Eh/α   predicted    -0.2910903E-05 ( -54.99%)
   displ. norm   :     0.0487562 α      lambda       -0.7906365E-05
   maximum displ.:     0.0341770 α      in ANC's #3, #2, #5, ...

........................................................................
.............................. CYCLE   16 ..............................
........................................................................
   1    -38.4258832 -0.384259E+02  0.137E-02    4.17       0.0  T
   2    -38.4258833 -0.468872E-07  0.810E-03    4.16       2.4  T
   3    -38.4258832  0.150654E-07  0.125E-03    4.17      15.7  T
   4    -38.4258833 -0.280635E-07  0.501E-04    4.16      39.2  T
   5    -38.4258833 -0.156120E-08  0.316E-04    4.16      62.0  T
     SCC iter.                  ...        0 min,  0.013 sec
     gradient                   ...        0 min,  0.002 sec
 * total energy  :   -37.9354748 Eh     change       -0.8879577E-05 Eh
   gradient norm :     0.0007062 Eh/α   predicted    -0.3960836E-05 ( -55.39%)
   displ. norm   :     0.1126119 α      lambda       -0.1180474E-04
   maximum displ.:     0.0869439 α      in ANC's #3, #2, #1, ...

........................................................................
.............................. CYCLE   17 ..............................
........................................................................
   1    -38.4258896 -0.384259E+02  0.317E-02    4.17       0.0  T
   2    -38.4258898 -0.140097E-06  0.188E-02    4.17       1.0  T
   3    -38.4258898 -0.343753E-08  0.265E-03    4.17       7.4  T
   4    -38.4258899 -0.926196E-07  0.174E-03    4.17      11.3  T
   5    -38.4258899 -0.163898E-07  0.116E-03    4.17      16.9  T
   6    -38.4258899 -0.103563E-07  0.563E-04    4.17      34.8  T
   7    -38.4258899 -0.270212E-08  0.256E-04    4.17      76.6  T
     SCC iter.                  ...        0 min,  0.018 sec
     gradient                   ...        0 min,  0.002 sec
 * total energy  :   -37.9354879 Eh     change       -0.1307652E-04 Eh
   gradient norm :     0.0012585 Eh/α   predicted    -0.5940046E-05 ( -54.57%)
   displ. norm   :     0.1965681 α      lambda       -0.1538032E-04
   maximum displ.:     0.1486708 α      in ANC's #3, #2, #1, ...

........................................................................
.............................. CYCLE   18 ..............................
........................................................................
   1    -38.4256353 -0.384256E+02  0.573E-02    4.16       0.0  T
   2    -38.4256358 -0.524932E-06  0.341E-02    4.16       1.0  T
   3    -38.4256362 -0.365749E-06  0.517E-03    4.16       3.8  T
   4    -38.4256363 -0.121829E-06  0.416E-03    4.16       4.7  T
   5    -38.4256364 -0.118355E-06  0.261E-03    4.16       7.5  T
   6    -38.4256365 -0.692881E-07  0.866E-04    4.16      22.6  T
   7    -38.4256365 -0.603528E-08  0.484E-04    4.16      40.5  T
     SCC iter.                  ...        0 min,  0.018 sec
     gradient                   ...        0 min,  0.002 sec
 * total energy  :   -37.9355035 Eh     change       -0.1560194E-04 Eh
   gradient norm :     0.0015198 Eh/α   predicted    -0.7826419E-05 ( -49.84%)
   displ. norm   :     0.1521049 α      lambda       -0.1134018E-04
   maximum displ.:     0.1060886 α      in ANC's #3, #2, #1, ...

........................................................................
.............................. CYCLE   19 ..............................
........................................................................
   1    -38.4258622 -0.384259E+02  0.465E-02    4.16       0.0  T
   2    -38.4258625 -0.302905E-06  0.277E-02    4.16       1.0  T
   3    -38.4258628 -0.254985E-06  0.431E-03    4.16       4.6  T
   4    -38.4258629 -0.884195E-07  0.348E-03    4.16       5.6  T
   5    -38.4258629 -0.847062E-07  0.178E-03    4.16      11.0  T
   6    -38.4258630 -0.332254E-07  0.650E-04    4.16      30.2  T
   7    -38.4258630 -0.305126E-08  0.328E-04    4.16      59.8  T
     SCC iter.                  ...        0 min,  0.018 sec
     gradient                   ...        0 min,  0.002 sec
 * total energy  :   -37.9355146 Eh     change       -0.1118704E-04 Eh
   gradient norm :     0.0009189 Eh/α   predicted    -0.5729596E-05 ( -48.78%)
   displ. norm   :     0.0886908 α      lambda       -0.6580423E-05
   maximum displ.:     0.0518214 α      in ANC's #3, #2, #1, ...

........................................................................
.............................. CYCLE   20 ..............................
........................................................................
   1    -38.4260060 -0.384260E+02  0.275E-02    4.16       0.0  T
   2    -38.4260062 -0.186887E-06  0.164E-02    4.16       1.2  T
   3    -38.4260063 -0.567011E-07  0.320E-03    4.16       6.1  T
   4    -38.4260064 -0.912596E-07  0.235E-03    4.16       8.4  T
   5    -38.4260064 -0.284061E-07  0.164E-03    4.16      11.9  T
   6    -38.4260064 -0.228553E-07  0.590E-04    4.16      33.3  T
   7    -38.4260064 -0.412152E-08  0.227E-04    4.16      86.3  T
     SCC iter.                  ...        0 min,  0.018 sec
     gradient                   ...        0 min,  0.002 sec
 * total energy  :   -37.9355217 Eh     change       -0.7073153E-05 Eh
   gradient norm :     0.0006854 Eh/α   predicted    -0.3303412E-05 ( -53.30%)
   displ. norm   :     0.0821487 α      lambda       -0.5675895E-05
   maximum displ.:     0.0484857 α      in ANC's #2, #1, #6, ...
 * RMSD in coord.:     0.3376821 α      energy gain  -0.2054980E-01 Eh

generating ANC from model Hessian ...
Using Lindh-Hessian (1995)
 Shifting diagonal of input Hessian by    9.8832888671592633E-003
 Lowest  eigenvalues of input Hessian
    0.000000    0.000000    0.000000    0.000000    0.000000    0.000000
    0.010000    0.010404    0.010676    0.011814    0.013442    0.013689
    0.015409    0.016151    0.018068    0.022341    0.023722    0.025833
 Highest eigenvalues
    1.508784    1.614393    1.784369    1.909156    2.014292    2.120770


........................................................................
.............................. CYCLE   21 ..............................
........................................................................
   1    -38.4260787 -0.384261E+02  0.232E-02    4.16       0.0  T
   2    -38.4260788 -0.859624E-07  0.138E-02    4.16       1.4  T
   3    -38.4260788  0.479037E-08  0.248E-03    4.16       7.9  T
   4    -38.4260789 -0.861508E-07  0.167E-03    4.16      11.8  T
   5    -38.4260789 -0.157027E-07  0.103E-03    4.16      19.0  T
   6    -38.4260789 -0.103495E-07  0.414E-04    4.16      47.3  T
   7    -38.4260789 -0.116758E-08  0.192E-04    4.16     102.0  T
     SCC iter.                  ...        0 min,  0.019 sec
     gradient                   ...        0 min,  0.002 sec
 * total energy  :   -37.9355281 Eh     change       -0.6344533E-05 Eh
   gradient norm :     0.0009294 Eh/α   predicted     0.0000000E+00 (-100.00%)
   displ. norm   :     0.0196743 α      lambda       -0.9043927E-06
   maximum displ.:     0.0128241 α      in ANC's #3, #8, #17, ...

........................................................................
.............................. CYCLE   22 ..............................
........................................................................
   1    -38.4259502 -0.384260E+02  0.615E-03    4.16       0.0  T
   2    -38.4259502 -0.530594E-07  0.354E-03    4.16       5.5  T
   3    -38.4259502  0.353754E-08  0.108E-03    4.16      18.1  T
   4    -38.4259502 -0.103146E-07  0.419E-04    4.16      46.8  T
   5    -38.4259502 -0.185031E-08  0.231E-04    4.16      85.0  T
     SCC iter.                  ...        0 min,  0.015 sec
     gradient                   ...        0 min,  0.002 sec
 * total energy  :   -37.9355329 Eh     change       -0.4878678E-05 Eh
   gradient norm :     0.0003493 Eh/α   predicted    -0.2287275E-05 ( -53.12%)
   displ. norm   :     0.0393639 α      lambda       -0.4240574E-05
   maximum displ.:     0.0299176 α      in ANC's #3, #4, #8, ...

   *** GEOMETRY OPTIMIZATION CONVERGED AFTER 22 ITERATIONS ***

------------------------------------------------------------------------
 total energy gain   :        -0.0205610 Eh      -12.9022 kcal/mol
 total RMSD          :         0.3363118 a0        0.1780 Å
 total power (kW/mol):        -2.4537705 (step)  -95.4710 (real)
------------------------------------------------------------------------

 ANCopt (total)                0 d,  0 h,  0 min,  0.565 sec
 optimizer setup                ...        0 min,  0.000 sec (  0.033%)
 model hessian                  ...        0 min,  0.013 sec (  2.249%)
 ANC generation                 ...        0 min,  0.005 sec (  0.863%)
 coordinate transformation      ...        0 min,  0.000 sec (  0.088%)
 single point calculation       ...        0 min,  0.539 sec ( 95.323%)
 optimization log               ...        0 min,  0.002 sec (  0.411%)
 hessian update                 ...        0 min,  0.001 sec (  0.093%)
 rational function              ...        0 min,  0.003 sec (  0.508%)

================
 final structure:
================
26
 xtb: 6.5.1 (fef0646)
N            1.03528101486435       -1.09425813456474        0.40556931760332
C            2.48662464806557       -1.23061377273343        0.29166930034567
C            2.92718567920726       -0.97388902544915       -1.15235594411410
C            4.42674488496867       -0.97244905951691       -1.24403193663031
C            5.13071618786884       -2.13837176255137       -1.49697285130623
C            6.51542300860681       -2.15203072620812       -1.53999080842040
C            7.22520505646258       -0.97750241744547       -1.32301000625099
O            8.58375523894033       -0.86872896411759       -1.33756094502707
C            9.34774375016394       -2.02269156309244       -1.58491466084558
C            6.52244191705005        0.20142350766644       -1.06809287516205
C            5.14557362624801        0.19895164150044       -1.02818581596886
Cl           0.26025453891096        1.61543443525197       -0.40324439419903
H            0.72455463454860       -1.24651794146539        1.35883319805513
H            0.56239473421117       -1.75472542327167       -0.20303255485012
H            0.62600426888804        0.34693176903427       -0.02337001673100
H            2.83840942325020       -2.22221090933979        0.61034405086097
H            2.94157784838209       -0.48354589815026        0.94591306657399
H            2.52911404471953       -0.00929534389818       -1.46682696841980
H            2.51082020729233       -1.74868599722655       -1.79967158840590
H            4.59418582463094       -3.06061792034955       -1.67110180435944
H            7.02403532136988       -3.08128845271030       -1.74382632474753
H           10.38768559180295       -1.70223352426180       -1.54483972973981
H            9.13716910443536       -2.44123144713689       -2.57468360824906
H            9.17717413659604       -2.78994755543486       -0.82227868862511
H            7.08505718796455        1.10704002707128       -0.90567145284219
H            4.61480812055086        1.11873445839987       -0.83222595854438

 Bond Distances (Angstroems)
 ---------------------------
N1-C2=1.4622         N1-H13=1.0141        N1-H14=1.0150        C2-N1=1.4622         C2-C3=1.5314         C2-H16=1.0994        
C2-H17=1.0923        C3-C2=1.5314         C3-C4=1.5024         C3-H18=1.0899        C3-H19=1.0921        C4-C3=1.5024         
C4-C5=1.3853         C4-C11=1.3912        C5-C4=1.3853         C5-C6=1.3854         C5-H20=1.0811        C6-C5=1.3854         
C6-C7=1.3894         C6-H21=1.0788        C7-C6=1.3894         C7-O8=1.3630         C7-C10=1.3960        O8-C7=1.3630         
O8-C9=1.4059         C9-O8=1.4059         C9-H22=1.0889        C9-H23=1.0951        C9-H24=1.0952        C10-C7=1.3960        
C10-C11=1.3774       C10-H25=1.0785       C11-C4=1.3912        C11-C10=1.3774       C11-H26=1.0799       Cl12-H15=1.3737      
H13-N1=1.0141        H14-N1=1.0150        H15-Cl12=1.3737      H16-C2=1.0994        H17-C2=1.0923        H18-C3=1.0899        
H19-C3=1.0921        H20-C5=1.0811        H21-C6=1.0788        H22-C9=1.0889        H23-C9=1.0951        H24-C9=1.0952        
H25-C10=1.0785       H26-C11=1.0799       
 C  H  Rav=1.0883 sigma=0.0071  Rmin=1.0785  Rmax=1.0994    11
 C  C  Rav=1.4198 sigma=0.0567  Rmin=1.3774  Rmax=1.5314     8
 N  H  Rav=1.0146 sigma=0.0004  Rmin=1.0141  Rmax=1.0150     2
 N  C  Rav=1.4622 sigma=0.0000  Rmin=1.4622  Rmax=1.4622     1
 O  C  Rav=1.3844 sigma=0.0215  Rmin=1.3630  Rmax=1.4059     2
 Cl H  Rav=1.3737 sigma=0.0000  Rmin=1.3737  Rmax=1.3737     1

 selected bond angles (degree)
 --------------------
H13-N1-C2=111.31               H14-N1-C2=110.80               H14-N1-H13=108.86              C3-C2-N1=110.08                
H16-C2-N1=112.28               H16-C2-C3=109.42               H17-C2-N1=107.64               H17-C2-C3=109.29               
H17-C2-H16=108.06              C4-C3-C2=110.17                H18-C3-C2=108.38               H18-C3-C4=110.25               
H19-C3-C2=109.29               H19-C3-C4=110.18               H19-C3-H18=108.52              C5-C4-C3=121.17                
C11-C4-C3=120.47               C11-C4-C5=118.32               C6-C5-C4=121.46                H20-C5-C4=119.68               
H20-C5-C6=118.86               C7-C6-C5=119.83                H21-C6-C5=119.05               H21-C6-C7=121.12               
O8-C7-C6=125.10                C10-C7-C6=119.03               C10-C7-O8=115.87               C9-O8-C7=118.56                
H22-C9-O8=105.72               H23-C9-O8=111.61               H23-C9-H22=109.23              H24-C9-O8=111.59               
H24-C9-H22=109.23              H24-C9-H23=109.37              C11-C10-C7=120.46              H25-C10-C7=118.30              
H25-C10-C11=121.24             

 selected dihedral angles (degree)
 ---------------------------------
C3-C2-N1-H13=180.89           C3-C2-N1-H14= 59.61           H16-C2-N1-H13= 58.72          H16-C2-N1-H14=297.44          
H17-C2-N1-H13=299.92          H17-C2-N1-H14=178.64          C4-C3-C2-N1=174.15            C4-C3-C2-H16=297.99           
C4-C3-C2-H17= 56.13           H18-C3-C2-N1= 53.44           H18-C3-C2-H16=177.29          H18-C3-C2-H17=295.42          
H19-C3-C2-N1=295.35           H19-C3-C2-H16= 59.19          H19-C3-C2-H17=177.33          C5-C4-C3-C2= 89.91            
C5-C4-C3-H18=209.49           C5-C4-C3-H19=329.25           C11-C4-C3-C2=272.22           C11-C4-C3-H18= 31.80          
C11-C4-C3-H19=151.56          C6-C5-C4-C3=182.11            C6-C5-C4-C11=359.85           H20-C5-C4-C3=  2.46           
H20-C5-C4-C11=180.20          C7-C6-C5-C4=  0.16            C7-C6-C5-H20=179.81           H21-C6-C5-C4=180.22           
H21-C6-C5-H20=359.88          O8-C7-C6-C5=179.85            O8-C7-C6-H21=359.79           C10-C7-C6-C5=359.82           
C10-C7-C6-H21=179.75          C9-O8-C7-C6=359.77            C9-O8-C7-C10=179.81           H22-C9-O8-C7=180.24           
H23-C9-O8-C7= 61.59           H24-C9-O8-C7=298.88           C11-C10-C7-C6=  0.20          C11-C10-C7-O8=180.17          
H25-C10-C7-C6=180.26          H25-C10-C7-O8=  0.23          

 CMA Distance (Angstroems)
 ---------------------------
R(CMA):  5.7997
           -------------------------------------------------
          |                Final Singlepoint                |
           -------------------------------------------------

          ...................................................
          :                      SETUP                      :
          :.................................................:
          :  # basis functions                  68          :
          :  # atomic orbitals                  67          :
          :  # shells                           39          :
          :  # electrons                        68          :
          :  max. iterations                   250          :
          :  Hamiltonian                  GFN2-xTB          :
          :  restarted?                      false          :
          :  GBSA solvation                  false          :
          :  PC potential                    false          :
          :  electronic temp.          300.0000000     K    :
          :  accuracy                    1.0000000          :
          :  -> integral cutoff          0.2500000E+02      :
          :  -> integral neglect         0.1000000E-07      :
          :  -> SCF convergence          0.1000000E-05 Eh   :
          :  -> wf. convergence          0.1000000E-03 e    :
          :  Broyden damping             0.4000000          :
          ...................................................

 iter      E             dE          RMSdq      gap      omega  full diag
   1    -38.4259502 -0.384260E+02  0.154E-04    4.16       0.0  T
   2    -38.4259502 -0.854072E-10  0.126E-04    4.16     156.2  T
   3    -38.4259502 -0.494111E-10  0.977E-05    4.16     200.8  T

   *** convergence criteria satisfied after 3 iterations ***

         #    Occupation            Energy/Eh            Energy/eV
      -------------------------------------------------------------
         1        2.0000           -1.0166496             -27.6644
       ...           ...                  ...                  ...
        28        2.0000           -0.4379250             -11.9165
        29        2.0000           -0.4200000             -11.4288
        30        2.0000           -0.4060168             -11.0483
        31        2.0000           -0.3992426             -10.8639
        32        2.0000           -0.3937326             -10.7140
        33        2.0000           -0.3936628             -10.7121
        34        2.0000           -0.3768527             -10.2547 (HOMO)
        35                         -0.2238151              -6.0903 (LUMO)
        36                         -0.2146803              -5.8417
        37                         -0.0922077              -2.5091
        38                         -0.0559446              -1.5223
        39                          0.0170971               0.4652
       ...                                ...                  ...
        67                          0.6667448              18.1430
      -------------------------------------------------------------
                  HL-Gap            0.1530376 Eh            4.1644 eV
             Fermi-level           -0.3003339 Eh           -8.1725 eV

 SCC (total)                   0 d,  0 h,  0 min,  0.014 sec
 SCC setup                      ...        0 min,  0.000 sec (  0.790%)
 Dispersion                     ...        0 min,  0.000 sec (  1.526%)
 classical contributions        ...        0 min,  0.000 sec (  0.251%)
 integral evaluation            ...        0 min,  0.001 sec (  5.921%)
 iterations                     ...        0 min,  0.009 sec ( 67.255%)
 molecular gradient             ...        0 min,  0.003 sec ( 19.252%)
 printout                       ...        0 min,  0.001 sec (  3.658%)

         :::::::::::::::::::::::::::::::::::::::::::::::::::::
         ::                     SUMMARY                     ::
         :::::::::::::::::::::::::::::::::::::::::::::::::::::
         :: total energy             -37.935532944536 Eh    ::
         :: gradient norm              0.000349657288 Eh/a0 ::
         :: HOMO-LUMO gap              4.164364366030 eV    ::
         ::.................................................::
         :: SCC energy               -38.425950228042 Eh    ::
         :: -> isotropic ES            0.042348336919 Eh    ::
         :: -> anisotropic ES         -0.002815806223 Eh    ::
         :: -> anisotropic XC          0.012816417840 Eh    ::
         :: -> dispersion             -0.021022088412 Eh    ::
         :: repulsion energy           0.490464225826 Eh    ::
         :: add. restraining           0.000000000000 Eh    ::
         :: total charge              -0.000000000000 e     ::
         :::::::::::::::::::::::::::::::::::::::::::::::::::::

           -------------------------------------------------
          |                Property Printout                |
           -------------------------------------------------

    * Orbital Energies and Occupations

         #    Occupation            Energy/Eh            Energy/eV
      -------------------------------------------------------------
         1        2.0000           -1.0166496             -27.6644
       ...           ...                  ...                  ...
        22        2.0000           -0.4814653             -13.1013
        23        2.0000           -0.4781050             -13.0099
        24        2.0000           -0.4736130             -12.8877
        25        2.0000           -0.4646270             -12.6431
        26        2.0000           -0.4497421             -12.2381
        27        2.0000           -0.4433494             -12.0642
        28        2.0000           -0.4379250             -11.9165
        29        2.0000           -0.4200000             -11.4288
        30        2.0000           -0.4060168             -11.0483
        31        2.0000           -0.3992426             -10.8639
        32        2.0000           -0.3937326             -10.7140
        33        2.0000           -0.3936628             -10.7121
        34        2.0000           -0.3768527             -10.2547 (HOMO)
        35                         -0.2238151              -6.0903 (LUMO)
        36                         -0.2146803              -5.8417
        37                         -0.0922077              -2.5091
        38                         -0.0559446              -1.5223
        39                          0.0170971               0.4652
        40                          0.0331865               0.9031
        41                          0.0674270               1.8348
        42                          0.0679380               1.8487
        43                          0.0734316               1.9982
        44                          0.0736604               2.0044
        45                          0.0934480               2.5428
       ...                                ...                  ...
        67                          0.6667448              18.1430
      -------------------------------------------------------------
                  HL-Gap            0.1530376 Eh            4.1644 eV
             Fermi-level           -0.3003339 Eh           -8.1725 eV

     #   Z          covCN         q      C6AA      α(0)
     1   7 N        2.696    -0.304    27.829     7.835
     2   6 C        3.734     0.011    20.480     6.459
     3   6 C        3.809    -0.078    21.991     6.675
     4   6 C        2.970     0.000    28.021     8.683
     5   6 C        2.926    -0.041    29.028     8.836
     6   6 C        2.916    -0.069    29.707     8.938
     7   6 C        2.866     0.141    24.932     8.185
     8   8 O        1.705    -0.271    18.487     5.805
     9   6 C        3.644     0.039    20.258     6.470
    10   6 C        2.920    -0.055    29.363     8.886
    11   6 C        2.925    -0.039    28.966     8.826
    12  17 Cl       0.837    -0.487   115.207    16.420
    13   1 H        0.860     0.166     1.298     1.785
    14   1 H        0.860     0.168     1.288     1.778
    15   1 H        0.902     0.333     0.621     1.233
    16   1 H        0.923     0.025     2.658     2.549
    17   1 H        0.924     0.054     2.272     2.357
    18   1 H        0.925     0.069     2.095     2.264
    19   1 H        0.924     0.042     2.422     2.434
    20   1 H        0.926     0.030     2.579     2.511
    21   1 H        0.926     0.034     2.537     2.491
    22   1 H        0.925     0.061     2.186     2.312
    23   1 H        0.924     0.039     2.459     2.452
    24   1 H        0.924     0.038     2.469     2.457
    25   1 H        0.926     0.050     2.324     2.384
    26   1 H        0.926     0.045     2.383     2.414

 Mol. C6AA /au·bohr⁶  :       7379.242615
 Mol. C8AA /au·bohr⁸  :     183259.326447
 Mol. α(0) /au        :        133.438834


Wiberg/Mayer (AO) data.
largest (>0.10) Wiberg bond orders for each atom

 ---------------------------------------------------------------------------
     #   Z sym  total        # sym  WBO       # sym  WBO       # sym  WBO
 ---------------------------------------------------------------------------
     1   7 N    3.240 --     2 C    1.004    13 H    0.959    14 H    0.958
                            15 H    0.208
     2   6 C    3.972 --     1 N    1.004     3 C    0.990    17 H    0.974
                            16 H    0.973
     3   6 C    3.993 --     4 C    1.008     2 C    0.990    19 H    0.973
                            18 H    0.968
     4   6 C    3.988 --     5 C    1.425    11 C    1.389     3 C    1.008
     5   6 C    3.991 --     6 C    1.434     4 C    1.425    20 H    0.970
                            10 C    0.108
     6   6 C    3.988 --     5 C    1.434     7 C    1.379    21 H    0.966
                            11 C    0.103
     7   6 C    3.934 --     6 C    1.379    10 C    1.346     8 O    1.059
     8   8 O    2.228 --     7 C    1.059     9 C    0.987
     9   6 C    3.948 --     8 O    0.987    22 H    0.980    24 H    0.977
                            23 H    0.977
    10   6 C    3.988 --    11 C    1.477     7 C    1.346    25 H    0.968
                             5 C    0.108
    11   6 C    3.991 --    10 C    1.477     4 C    1.389    26 H    0.968
                             6 C    0.103
    12  17 Cl   0.766 --    15 H    0.677
    13   1 H    0.972 --     1 N    0.959
    14   1 H    0.972 --     1 N    0.958
    15   1 H    0.889 --    12 Cl   0.677     1 N    0.208
    16   1 H    0.999 --     2 C    0.973
    17   1 H    0.997 --     2 C    0.974
    18   1 H    0.995 --     3 C    0.968
    19   1 H    0.998 --     3 C    0.973
    20   1 H    0.999 --     5 C    0.970
    21   1 H    0.999 --     6 C    0.966
    22   1 H    0.996 --     9 C    0.980
    23   1 H    0.998 --     9 C    0.977
    24   1 H    0.998 --     9 C    0.977
    25   1 H    0.997 --    10 C    0.968
    26   1 H    0.997 --    11 C    0.968
 ---------------------------------------------------------------------------

Topologies differ in total number of bonds
Writing topology from bond orders to xtbtopo.mol

molecular dipole:
                 x           y           z       tot (Debye)
 q only:        0.774      -2.068       0.379
   full:        0.624      -2.180       0.392       5.849
molecular quadrupole (traceless):
                xx          xy          yy          xz          yz          zz
 q only:        8.819     -11.861      -4.997      -2.507       3.231      -3.822
  q+dip:        5.634     -15.972       1.777      -2.175       3.579      -7.411
   full:        5.418     -16.500       0.252      -2.376       2.805      -5.669

           -------------------------------------------------
          |                Geometry Summary                 |
           -------------------------------------------------

      molecular mass/u    :      187.6668393
   center of mass at/Å    :        4.3886052      -0.5913599      -0.8666019
  moments of inertia/u·Å² :        0.2361225E+03   0.1989514E+04   0.2150162E+04
rotational constants/cm⁻¹ :        0.7139359E-01   0.8473242E-02   0.7840168E-02

 * 23 selected distances

     #   Z          #   Z                                           value/Å
     1   7 N        2   6 C                                       1.4621781
     2   6 C        3   6 C                                       1.5314082 (max)
     4   6 C        5   6 C                                       1.3852548
     5   6 C        6   6 C                                       1.3854423
     6   6 C        7   6 C                                       1.3893842
     7   6 C        8   8 O                                       1.3629755
     8   8 O        9   6 C                                       1.4058778
     7   6 C       10   6 C                                       1.3959676
     4   6 C       11   6 C                                       1.3912168
    10   6 C       11   6 C                                       1.3774488
     1   7 N       13   1 H                                       1.0141233 (min)
     1   7 N       14   1 H                                       1.0150049
     2   6 C       16   1 H                                       1.0993504
     2   6 C       17   1 H                                       1.0923040
     3   6 C       18   1 H                                       1.0898597
     3   6 C       19   1 H                                       1.0921027
     5   6 C       20   1 H                                       1.0810754
     6   6 C       21   1 H                                       1.0787750
     9   6 C       22   1 H                                       1.0889346
     9   6 C       23   1 H                                       1.0950617
     9   6 C       24   1 H                                       1.0951665
    10   6 C       25   1 H                                       1.0784517
    11   6 C       26   1 H                                       1.0798671

 * 5 distinct bonds (by element types)

   Z      Z             #   av. dist./Å        max./Å        min./Å
   1 H    6 C          11     1.0882681     1.0993504     1.0784517
   6 C    6 C           7     1.4080175     1.5314082     1.3774488
   1 H    7 N           2     1.0145641     1.0150049     1.0141233
   6 C    7 N           1     1.4621781     1.4621781     1.4621781
   6 C    8 O           2     1.3844267     1.4058778     1.3629755


optimized geometry written to: xtbopt.xyz


           -------------------------------------------------
          | TOTAL ENERGY              -37.935532944536 Eh   |
          | GRADIENT NORM               0.000349657288 Eh/α |
          | HOMO-LUMO GAP               4.164364366030 eV   |
           -------------------------------------------------

------------------------------------------------------------------------
 * finished run on 2023/01/23 at 14:08:03.626     
------------------------------------------------------------------------
 total:
 * wall-time:     0 d,  0 h,  0 min,  0.652 sec
 *  cpu-time:     0 d,  0 h,  1 min,  2.501 sec
 * ratio c/w:    95.826 speedup
 SCF:
 * wall-time:     0 d,  0 h,  0 min,  0.052 sec
 *  cpu-time:     0 d,  0 h,  0 min,  7.398 sec
 * ratio c/w:   141.026 speedup
 ANC optimizer:
 * wall-time:     0 d,  0 h,  0 min,  0.581 sec
 *  cpu-time:     0 d,  0 h,  0 min, 52.718 sec
 * ratio c/w:    90.769 speedup

