      -----------------------------------------------------------      
     |                   =====================                   |     
     |                           x T B                           |     
     |                   =====================                   |     
     |                         S. Grimme                         |     
     |          Mulliken Center for Theoretical Chemistry        |     
     |                    University of Bonn                     |     
      -----------------------------------------------------------      

   * xtb version 6.5.1 (fef0646) compiled by 'conda@b96dff2e9fd6' on 2023-01-04

   xtb is free software: you can redistribute it and/or modify it under
   the terms of the GNU Lesser General Public License as published by
   the Free Software Foundation, either version 3 of the License, or
   (at your option) any later version.
   
   xtb is distributed in the hope that it will be useful,
   but WITHOUT ANY WARRANTY; without even the implied warranty of
   MERCHANTABILITY or FITNESS FOR A PARTICULAR PURPOSE.  See the
   GNU Lesser General Public License for more details.
   
   Cite this work as:
   * C. Bannwarth, E. Caldeweyher, S. Ehlert, A. Hansen, P. Pracht,
     J. Seibert, S. Spicher, S. Grimme, WIREs Comput. Mol. Sci., 2020, 11,
     e01493. DOI: 10.1002/wcms.1493
   
   for GFN2-xTB:
   * C. Bannwarth, S. Ehlert and S. Grimme., J. Chem. Theory Comput., 2019,
     15, 1652-1671. DOI: 10.1021/acs.jctc.8b01176
   for GFN1-xTB:
   * S. Grimme, C. Bannwarth, P. Shushkov, J. Chem. Theory Comput., 2017,
     13, 1989-2009. DOI: 10.1021/acs.jctc.7b00118
   for GFN0-xTB:
   * P. Pracht, E. Caldeweyher, S. Ehlert, S. Grimme, ChemRxiv, 2019, preprint.
     DOI: 10.26434/chemrxiv.8326202.v1
   for GFN-FF:
   * S. Spicher and S. Grimme, Angew. Chem. Int. Ed., 2020, 59, 15665-15673.
     DOI: 10.1002/anie.202004239
   
   for ALPB and GBSA implicit solvation:
   * S. Ehlert, M. Stahn, S. Spicher, S. Grimme, J. Chem. Theory Comput.,
     2021, 17, 4250-4261. DOI: 10.1021/acs.jctc.1c00471
   
   for DFT-D4:
   * E. Caldeweyher, C. Bannwarth and S. Grimme, J. Chem. Phys., 2017,
     147, 034112. DOI: 10.1063/1.4993215
   * E. Caldeweyher, S. Ehlert, A. Hansen, H. Neugebauer, S. Spicher,
     C. Bannwarth and S. Grimme, J. Chem. Phys., 2019, 150, 154122.
     DOI: 10.1063/1.5090222
   * E. Caldeweyher, J.-M. Mewes, S. Ehlert and S. Grimme, Phys. Chem. Chem. Phys.
     2020, 22, 8499-8512. DOI: 10.1039/D0CP00502A
   
   for sTDA-xTB:
   * S. Grimme and C. Bannwarth, J. Chem. Phys., 2016, 145, 054103.
     DOI: 10.1063/1.4959605
   
   in the mass-spec context:
   * V. Asgeirsson, C. Bauer and S. Grimme, Chem. Sci., 2017, 8, 4879.
     DOI: 10.1039/c7sc00601b
   * J. Koopman and S. Grimme, ACS Omega 2019, 4, 12, 15120-15133.
     DOI: 10.1021/acsomega.9b02011
   
   for metadynamics refer to:
   * S. Grimme, J. Chem. Theory Comput., 2019, 155, 2847-2862
     DOI: 10.1021/acs.jctc.9b00143
   
   for SPH calculations refer to:
   * S. Spicher and S. Grimme, J. Chem. Theory Comput., 2021, 17, 1701-1714
     DOI: 10.1021/acs.jctc.0c01306
   
   with help from (in alphabetical order)
   P. Atkinson, C. Bannwarth, F. Bohle, G. Brandenburg, E. Caldeweyher
   M. Checinski, S. Dohm, S. Ehlert, S. Ehrlich, I. Gerasimov, C. Hölzer
   A. Katbashev, J. Koopman, C. Lavigne, S. Lehtola, F. März, M. Müller,
   F. Musil, H. Neugebauer, J. Pisarek, C. Plett, P. Pracht, F. Pultar,
   J. Seibert, P. Shushkov, S. Spicher, M. Stahn, M. Steiner, T. Strunk,
   J. Stückrath, T. Rose, and J. Unsleber
   
 * started run on 2023/01/24 at 15:16:31.049     

           -------------------------------------------------
          |                Calculation Setup                |
           -------------------------------------------------

          program call               : xtb init.xyz --opt -c 0 -u 0 -P 16 --alpb water
          hostname                   : gpg-woodward
          coordinate file            : init.xyz
          omp threads                :                    16

   ID    Z sym.   atoms
    1    7 N      1
    2    6 C      2-8
    3   17 Cl     9
    4    1 H      10-19

molecular fragmentation (1/2 indicates fragments):
1111111121111111111
# atoms in fragment 1/2:    18     1
 fragment masses (1/2) :      108.16       35.45
CMA distance (Bohr)    :   9.325
constraining FC (au)   :  0.0500

           -------------------------------------------------
          |                 G F N 2 - x T B                 |
           -------------------------------------------------

        Reference                      10.1021/acs.jctc.8b01176
      * Hamiltonian:
        H0-scaling (s, p, d)           1.850000    2.230000    2.230000
        zeta-weighting                 0.500000
      * Dispersion:
        s8                             2.700000
        a1                             0.520000
        a2                             5.000000
        s9                             5.000000
      * Repulsion:
        kExp                           1.500000    1.000000
        rExp                           1.000000
      * Coulomb:
        alpha                          2.000000
        third order                    shell-resolved
        anisotropic                    true
        a3                             3.000000
        a5                             4.000000
        cn-shift                       1.200000
        cn-exp                         4.000000
        max-rad                        5.000000

      * Solvation model:               ALPB
        Solvent                        water
        Parameter file                 internal GFN2-xTB/ALPB
        Dielectric constant                8.0200E+01
        Reference state                gsolv [1 M gas/solution]
        Free energy shift                  1.0808E-03 Eh       6.7819E-01 kcal/mol
        Temperature                        2.9815E+02 K
        Density                            1.0000E+00 kg/L
        Solvent mass                       1.8000E+01 g/mol
        Interaction kernel             P16
        Born radius scaling (c1)           1.4744E+00
        Born radii integrator          GBOBC
        Born offset                        0.0000E+00 a0       0.0000E+00 AA
        H-bond correction              true
        Ion screening                  false
        Surface tension                    1.0000E-05 Eh       1.5569E+01 dyn/cm
        Grid points                               230 per atom

          ...................................................
          :                      SETUP                      :
          :.................................................:
          :  # basis functions                  52          :
          :  # atomic orbitals                  51          :
          :  # shells                           29          :
          :  # electrons                        50          :
          :  max. iterations                   250          :
          :  Hamiltonian                  GFN2-xTB          :
          :  restarted?                      false          :
          :  GBSA solvation                   true          :
          :  PC potential                    false          :
          :  electronic temp.          300.0000000     K    :
          :  accuracy                    1.0000000          :
          :  -> integral cutoff          0.2500000E+02      :
          :  -> integral neglect         0.1000000E-07      :
          :  -> SCF convergence          0.1000000E-05 Eh   :
          :  -> wf. convergence          0.1000000E-03 e    :
          :  Broyden damping             0.4000000          :
          ...................................................

 iter      E             dE          RMSdq      gap      omega  full diag
   1    -27.8697076 -0.278697E+02  0.472E+00    4.61       0.0  T
   2    -27.9439541 -0.742465E-01  0.269E+00    4.65       1.0  T
   3    -27.9480800 -0.412593E-02  0.119E+00    4.63       1.0  T
   4    -27.9488590 -0.778927E-03  0.441E-01    4.63       1.0  T
   5    -27.9499242 -0.106524E-02  0.305E-01    4.63       1.0  T
   6    -27.9504076 -0.483380E-03  0.168E-01    4.63       1.0  T
   7    -27.9505795 -0.171888E-03  0.751E-02    4.63       1.0  T
   8    -27.9506294 -0.498912E-04  0.282E-02    4.62       1.0  T
   9    -27.9506300 -0.611275E-06  0.977E-03    4.62       2.3  T
  10    -27.9506307 -0.741792E-06  0.352E-03    4.62       6.5  T
  11    -27.9506308 -0.573587E-07  0.197E-03    4.62      11.7  T
  12    -27.9506308 -0.130517E-07  0.937E-04    4.62      24.5  T
  13    -27.9506308 -0.424477E-08  0.431E-04    4.62      53.3  T

   *** convergence criteria satisfied after 13 iterations ***

         #    Occupation            Energy/Eh            Energy/eV
      -------------------------------------------------------------
         1        2.0000           -1.0103313             -27.4925
       ...           ...                  ...                  ...
        19        2.0000           -0.4242590             -11.5447
        20        2.0000           -0.4183775             -11.3846
        21        2.0000           -0.4041497             -10.9975
        22        2.0000           -0.4035427             -10.9810
        23        2.0000           -0.4031732             -10.9709
        24        2.0000           -0.3992005             -10.8628
        25        2.0000           -0.3948395             -10.7441 (HOMO)
        26                         -0.2248879              -6.1195 (LUMO)
        27                         -0.2228635              -6.0644
        28                         -0.1001770              -2.7260
        29                         -0.0181764              -0.4946
        30                          0.0714448               1.9441
       ...                                ...                  ...
        51                          0.6315638              17.1857
      -------------------------------------------------------------
                  HL-Gap            0.1699517 Eh            4.6246 eV
             Fermi-level           -0.3098637 Eh           -8.4318 eV

 SCC (total)                   0 d,  0 h,  0 min,  0.028 sec
 SCC setup                      ...        0 min,  0.000 sec (  1.324%)
 Dispersion                     ...        0 min,  0.000 sec (  1.104%)
 classical contributions        ...        0 min,  0.000 sec (  0.231%)
 integral evaluation            ...        0 min,  0.001 sec (  4.084%)
 iterations                     ...        0 min,  0.024 sec ( 83.699%)
 molecular gradient             ...        0 min,  0.002 sec (  8.169%)
 printout                       ...        0 min,  0.000 sec (  0.484%)

         :::::::::::::::::::::::::::::::::::::::::::::::::::::
         ::                     SUMMARY                     ::
         :::::::::::::::::::::::::::::::::::::::::::::::::::::
         :: total energy             -27.567743465985 Eh    ::
         :: total w/o Gsasa/hb       -27.560642373458 Eh    ::
         :: gradient norm              0.041517211181 Eh/a0 ::
         :: HOMO-LUMO gap              4.624620665669 eV    ::
         ::.................................................::
         :: SCC energy               -27.950630785716 Eh    ::
         :: -> isotropic ES            0.108476523052 Eh    ::
         :: -> anisotropic ES         -0.030056491467 Eh    ::
         :: -> anisotropic XC          0.007214487009 Eh    ::
         :: -> dispersion             -0.013990819750 Eh    ::
         :: -> Gsolv                  -0.063135296183 Eh    ::
         ::    -> Gelec               -0.056034203655 Eh    ::
         ::    -> Gsasa               -0.001587290891 Eh    ::
         ::    -> Ghb                 -0.006594561334 Eh    ::
         ::    -> Gshift               0.001080759698 Eh    ::
         :: repulsion energy           0.382868417498 Eh    ::
         :: add. restraining           0.000000000000 Eh    ::
         :: total charge               0.000000000000 e     ::
         :::::::::::::::::::::::::::::::::::::::::::::::::::::

      ----------------------------------------------------------- 
     |                   =====================                   |
     |                        A N C O P T                        |
     |                   =====================                   |
     |               Approximate Normal Coordinate               |
     |                Rational Function Optimizer                |
      ----------------------------------------------------------- 

          ...................................................
          :                      SETUP                      :
          :.................................................:
          :   optimization level            normal          :
          :   max. optcycles                   200          :
          :   ANC micro-cycles                  20          :
          :   degrees of freedom                51          :
          :.................................................:
          :   RF solver                   davidson          :
          :   write xtbopt.log                true          :
          :   linear?                        false          :
          :   energy convergence         0.5000000E-05 Eh   :
          :   grad. convergence          0.1000000E-02 Eh/α :
          :   maximium RF displ.         1.0000000          :
          :   Hlow (freq-cutoff)         0.1000000E-01      :
          :   Hmax (freq-cutoff)         5.0000000          :
          :   S6 in model hess.         20.0000000          :
          ...................................................

generating ANC from model Hessian ...
Using Lindh-Hessian (1995)
 Shifting diagonal of input Hessian by    9.5722097576343701E-003
 Lowest  eigenvalues of input Hessian
    0.000000    0.000000    0.000000    0.000000    0.000000    0.000000
    0.010000    0.010248    0.012723    0.013661    0.016590    0.022612
    0.023507    0.028255    0.031491    0.034589    0.043281    0.052729
 Highest eigenvalues
    1.509304    1.545851    1.622458    1.825543    1.928796    1.942094


........................................................................
.............................. CYCLE    1 ..............................
........................................................................
   1    -27.9506308 -0.279506E+02  0.180E-04    4.62       0.0  T
   2    -27.9506308 -0.115744E-09  0.136E-04    4.62     168.4  T
   3    -27.9506308 -0.482991E-10  0.107E-04    4.62     213.7  T
     SCC iter.                  ...        0 min,  0.005 sec
     gradient                   ...        0 min,  0.002 sec
 * total energy  :   -27.5677435 Eh     change       -0.8964562E-09 Eh
   gradient norm :     0.0415174 Eh/α   predicted     0.0000000E+00 (-100.00%)
   displ. norm   :     0.4734481 α      lambda       -0.9998170E-02
   maximum displ.:     0.2522373 α      in ANC's #1, #11, #5, ...

........................................................................
.............................. CYCLE    2 ..............................
........................................................................
   1    -27.9713150 -0.279713E+02  0.284E-01    4.72       0.0  T
   2    -27.9714055 -0.904566E-04  0.159E-01    4.72       1.0  T
   3    -27.9714131 -0.765785E-05  0.373E-02    4.72       1.0  T
   4    -27.9714146 -0.142178E-05  0.146E-02    4.72       1.6  T
   5    -27.9714154 -0.885059E-06  0.100E-02    4.72       2.3  T
   6    -27.9714158 -0.378167E-06  0.589E-03    4.72       3.9  T
   7    -27.9714160 -0.177746E-06  0.335E-03    4.72       6.9  T
   8    -27.9714161 -0.574439E-07  0.124E-03    4.72      18.5  T
   9    -27.9714161 -0.121823E-07  0.415E-04    4.72      55.3  T
  10    -27.9714161 -0.644299E-09  0.148E-04    4.72     155.3  T
     SCC iter.                  ...        0 min,  0.016 sec
     gradient                   ...        0 min,  0.002 sec
 * total energy  :   -27.5732942 Eh     change       -0.5550722E-02 Eh
   gradient norm :     0.0258592 Eh/α   predicted    -0.6119856E-02 (  10.25%)
   displ. norm   :     0.2318436 α      lambda       -0.1820914E-02
   maximum displ.:     0.1749801 α      in ANC's #1, #6, #2, ...

........................................................................
.............................. CYCLE    3 ..............................
........................................................................
   1    -27.9790528 -0.279791E+02  0.983E-02    4.76       0.0  T
   2    -27.9790595 -0.666076E-05  0.568E-02    4.76       1.0  T
   3    -27.9790609 -0.145589E-05  0.122E-02    4.76       1.9  T
   4    -27.9790614 -0.465810E-06  0.739E-03    4.76       3.1  T
   5    -27.9790615 -0.149528E-06  0.479E-03    4.76       4.8  T
   6    -27.9790617 -0.114389E-06  0.276E-03    4.76       8.3  T
   7    -27.9790617 -0.411527E-07  0.135E-03    4.76      17.0  T
   8    -27.9790617 -0.811372E-08  0.371E-04    4.76      61.8  T
   9    -27.9790617 -0.137395E-08  0.149E-04    4.76     153.6  T
     SCC iter.                  ...        0 min,  0.014 sec
     gradient                   ...        0 min,  0.002 sec
 * total energy  :   -27.5745913 Eh     change       -0.1297158E-02 Eh
   gradient norm :     0.0127757 Eh/α   predicted    -0.9594260E-03 ( -26.04%)
   displ. norm   :     0.3358937 α      lambda       -0.1207035E-02
   maximum displ.:     0.2713407 α      in ANC's #1, #2, #3, ...

........................................................................
.............................. CYCLE    4 ..............................
........................................................................
   1    -27.9806472 -0.279806E+02  0.796E-02    4.76       0.0  T
   2    -27.9806527 -0.548959E-05  0.482E-02    4.76       1.0  T
   3    -27.9806545 -0.186725E-05  0.179E-02    4.76       1.3  T
   4    -27.9806561 -0.155171E-05  0.121E-02    4.76       1.9  T
   5    -27.9806566 -0.518046E-06  0.779E-03    4.76       2.9  T
   6    -27.9806570 -0.357371E-06  0.325E-03    4.76       7.1  T
   7    -27.9806570 -0.420971E-07  0.176E-03    4.76      13.1  T
   8    -27.9806570 -0.148390E-07  0.286E-04    4.76      80.2  T
   9    -27.9806570 -0.181700E-09  0.127E-04    4.76     180.6  T
     SCC iter.                  ...        0 min,  0.014 sec
     gradient                   ...        0 min,  0.002 sec
 * total energy  :   -27.5754978 Eh     change       -0.9064940E-03 Eh
   gradient norm :     0.0112117 Eh/α   predicted    -0.6716165E-03 ( -25.91%)
   displ. norm   :     0.3825839 α      lambda       -0.9700129E-03
   maximum displ.:     0.3013401 α      in ANC's #1, #2, #3, ...

........................................................................
.............................. CYCLE    5 ..............................
........................................................................
   1    -27.9804091 -0.279804E+02  0.705E-02    4.75       0.0  T
   2    -27.9804139 -0.481605E-05  0.457E-02    4.75       1.0  T
   3    -27.9804161 -0.218386E-05  0.217E-02    4.75       1.1  T
   4    -27.9804187 -0.261517E-05  0.143E-02    4.75       1.6  T
   5    -27.9804196 -0.909403E-06  0.761E-03    4.75       3.0  T
   6    -27.9804200 -0.335818E-06  0.308E-03    4.75       7.4  T
   7    -27.9804200 -0.579683E-07  0.120E-03    4.75      19.2  T
   8    -27.9804200 -0.340995E-08  0.415E-04    4.75      55.3  T
   9    -27.9804200 -0.317819E-09  0.826E-05    4.75     277.7  T
     SCC iter.                  ...        0 min,  0.014 sec
     gradient                   ...        0 min,  0.001 sec
 * total energy  :   -27.5762732 Eh     change       -0.7753786E-03 Eh
   gradient norm :     0.0129638 Eh/α   predicted    -0.5560247E-03 ( -28.29%)
   displ. norm   :     0.4668540 α      lambda       -0.1063728E-02
   maximum displ.:     0.3483924 α      in ANC's #1, #3, #2, ...

........................................................................
.............................. CYCLE    6 ..............................
........................................................................
   1    -27.9800797 -0.279801E+02  0.823E-02    4.74       0.0  T
   2    -27.9800884 -0.868396E-05  0.547E-02    4.74       1.0  T
   3    -27.9800922 -0.376609E-05  0.290E-02    4.74       1.0  T
   4    -27.9800966 -0.443636E-05  0.183E-02    4.74       1.3  T
   5    -27.9800981 -0.153311E-05  0.106E-02    4.74       2.2  T
   6    -27.9800986 -0.497536E-06  0.453E-03    4.74       5.1  T
   7    -27.9800988 -0.192778E-06  0.976E-04    4.74      23.5  T
   8    -27.9800988 -0.702116E-09  0.238E-04    4.74      96.3  T
     SCC iter.                  ...        0 min,  0.012 sec
     gradient                   ...        0 min,  0.001 sec
 * total energy  :   -27.5771289 Eh     change       -0.8557064E-03 Eh
   gradient norm :     0.0117475 Eh/α   predicted    -0.6478225E-03 ( -24.29%)
   displ. norm   :     0.5199099 α      lambda       -0.1021398E-02
   maximum displ.:     0.3524477 α      in ANC's #1, #11, #3, ...

........................................................................
.............................. CYCLE    7 ..............................
........................................................................
   1    -27.9795793 -0.279796E+02  0.990E-02    4.74       0.0  T
   2    -27.9795919 -0.126257E-04  0.655E-02    4.74       1.0  T
   3    -27.9795970 -0.510747E-05  0.345E-02    4.74       1.0  T
   4    -27.9796034 -0.637333E-05  0.218E-02    4.74       1.1  T
   5    -27.9796055 -0.214058E-05  0.129E-02    4.74       1.8  T
   6    -27.9796063 -0.761206E-06  0.541E-03    4.74       4.2  T
   7    -27.9796066 -0.274896E-06  0.111E-03    4.74      20.7  T
   8    -27.9796066 -0.287048E-08  0.463E-04    4.74      49.6  T
   9    -27.9796066 -0.422009E-09  0.163E-04    4.74     140.4  T
     SCC iter.                  ...        0 min,  0.013 sec
     gradient                   ...        0 min,  0.001 sec
 * total energy  :   -27.5778493 Eh     change       -0.7204124E-03 Eh
   gradient norm :     0.0084302 Eh/α   predicted    -0.6487503E-03 (  -9.95%)
   displ. norm   :     0.2656190 α      lambda       -0.3914126E-03
   maximum displ.:     0.1404886 α      in ANC's #1, #11, #3, ...

........................................................................
.............................. CYCLE    8 ..............................
........................................................................
   1    -27.9809140 -0.279809E+02  0.652E-02    4.74       0.0  T
   2    -27.9809210 -0.694779E-05  0.405E-02    4.74       1.0  T
   3    -27.9809226 -0.165640E-05  0.195E-02    4.74       1.2  T
   4    -27.9809241 -0.152138E-05  0.122E-02    4.74       1.9  T
   5    -27.9809248 -0.689924E-06  0.817E-03    4.74       2.8  T
   6    -27.9809252 -0.342831E-06  0.318E-03    4.74       7.2  T
   7    -27.9809253 -0.747370E-07  0.110E-03    4.74      20.8  T
   8    -27.9809253 -0.664981E-08  0.420E-04    4.74      54.7  T
   9    -27.9809253 -0.519304E-09  0.142E-04    4.74     162.0  T
     SCC iter.                  ...        0 min,  0.013 sec
     gradient                   ...        0 min,  0.002 sec
 * total energy  :   -27.5780679 Eh     change       -0.2185846E-03 Eh
   gradient norm :     0.0065014 Eh/α   predicted    -0.2095235E-03 (  -4.15%)
   displ. norm   :     0.0294034 α      lambda       -0.5020358E-04
   maximum displ.:     0.0216391 α      in ANC's #3, #11, #5, ...

........................................................................
.............................. CYCLE    9 ..............................
........................................................................
   1    -27.9810394 -0.279810E+02  0.172E-02    4.74       0.0  T
   2    -27.9810394 -0.563567E-07  0.102E-02    4.74       2.3  T
   3    -27.9810395 -0.217803E-07  0.174E-03    4.74      13.2  T
   4    -27.9810395 -0.192585E-07  0.125E-03    4.74      18.3  T
   5    -27.9810395 -0.675690E-08  0.652E-04    4.74      35.2  T
   6    -27.9810395 -0.214444E-08  0.362E-04    4.74      63.3  T
     SCC iter.                  ...        0 min,  0.009 sec
     gradient                   ...        0 min,  0.001 sec
 * total energy  :   -27.5780999 Eh     change       -0.3200676E-04 Eh
   gradient norm :     0.0023563 Eh/α   predicted    -0.2512839E-04 ( -21.49%)
   displ. norm   :     0.0457646 α      lambda       -0.3481239E-04
   maximum displ.:     0.0196157 α      in ANC's #6, #4, #5, ...

........................................................................
.............................. CYCLE   10 ..............................
........................................................................
   1    -27.9819473 -0.279819E+02  0.178E-02    4.75       0.0  T
   2    -27.9819474 -0.787721E-07  0.105E-02    4.75       2.2  T
   3    -27.9819475 -0.460334E-07  0.173E-03    4.75      13.3  T
   4    -27.9819475 -0.680556E-08  0.126E-03    4.75      18.2  T
   5    -27.9819475 -0.818023E-08  0.636E-04    4.75      36.1  T
   6    -27.9819475 -0.170183E-08  0.377E-04    4.75      60.9  T
     SCC iter.                  ...        0 min,  0.009 sec
     gradient                   ...        0 min,  0.001 sec
 * total energy  :   -27.5781205 Eh     change       -0.2057908E-04 Eh
   gradient norm :     0.0013761 Eh/α   predicted    -0.1744375E-04 ( -15.24%)
   displ. norm   :     0.0642024 α      lambda       -0.2028972E-04
   maximum displ.:     0.0350368 α      in ANC's #1, #4, #3, ...

........................................................................
.............................. CYCLE   11 ..............................
........................................................................
   1    -27.9816923 -0.279817E+02  0.246E-02    4.75       0.0  T
   2    -27.9816928 -0.502142E-06  0.140E-02    4.75       1.6  T
   3    -27.9816928 -0.866942E-08  0.333E-03    4.75       6.9  T
   4    -27.9816929 -0.369713E-07  0.161E-03    4.75      14.3  T
   5    -27.9816929 -0.202441E-07  0.910E-04    4.75      25.2  T
   6    -27.9816929 -0.256414E-08  0.605E-04    4.75      37.9  T
     SCC iter.                  ...        0 min,  0.009 sec
     gradient                   ...        0 min,  0.001 sec
 * total energy  :   -27.5781377 Eh     change       -0.1723867E-04 Eh
   gradient norm :     0.0024670 Eh/α   predicted    -0.1016650E-04 ( -41.03%)
   displ. norm   :     0.0519355 α      lambda       -0.2052800E-04
   maximum displ.:     0.0276355 α      in ANC's #4, #2, #5, ...

........................................................................
.............................. CYCLE   12 ..............................
........................................................................
   1    -27.9815037 -0.279815E+02  0.167E-02    4.75       0.0  T
   2    -27.9815038 -0.304388E-07  0.995E-03    4.75       2.3  T
   3    -27.9815038 -0.973527E-08  0.167E-03    4.75      13.7  T
   4    -27.9815038 -0.177275E-07  0.111E-03    4.75      20.7  T
   5    -27.9815038 -0.487998E-08  0.648E-04    4.75      35.4  T
   6    -27.9815038 -0.239651E-08  0.254E-04    4.75      90.3  T
     SCC iter.                  ...        0 min,  0.009 sec
     gradient                   ...        0 min,  0.002 sec
 * total energy  :   -27.5781555 Eh     change       -0.1780069E-04 Eh
   gradient norm :     0.0023757 Eh/α   predicted    -0.1029512E-04 ( -42.16%)
   displ. norm   :     0.2055085 α      lambda       -0.6656718E-04
   maximum displ.:     0.1130020 α      in ANC's #4, #2, #5, ...

........................................................................
.............................. CYCLE   13 ..............................
........................................................................
   1    -27.9805387 -0.279805E+02  0.662E-02    4.74       0.0  T
   2    -27.9805392 -0.520299E-06  0.393E-02    4.74       1.0  T
   3    -27.9805392  0.371731E-07  0.732E-03    4.74       3.1  T
   4    -27.9805396 -0.460835E-06  0.418E-03    4.74       5.5  T
   5    -27.9805397 -0.613748E-07  0.259E-03    4.74       8.8  T
   6    -27.9805397 -0.375995E-07  0.114E-03    4.74      20.1  T
   7    -27.9805397 -0.836203E-08  0.481E-04    4.74      47.7  T
   8    -27.9805397 -0.675765E-09  0.148E-04    4.74     155.2  T
     SCC iter.                  ...        0 min,  0.012 sec
     gradient                   ...        0 min,  0.001 sec
 * total energy  :   -27.5781925 Eh     change       -0.3699766E-04 Eh
   gradient norm :     0.0025285 Eh/α   predicted    -0.3469584E-04 (  -6.22%)
   displ. norm   :     0.0453818 α      lambda       -0.1654246E-04
   maximum displ.:     0.0260839 α      in ANC's #2, #4, #1, ...

........................................................................
.............................. CYCLE   14 ..............................
........................................................................
   1    -27.9809313 -0.279809E+02  0.145E-02    4.74       0.0  T
   2    -27.9809314 -0.610407E-07  0.875E-03    4.74       2.6  T
   3    -27.9809314 -0.149861E-07  0.243E-03    4.74       9.4  T
   4    -27.9809314 -0.400498E-07  0.161E-03    4.74      14.3  T
   5    -27.9809315 -0.103175E-07  0.981E-04    4.74      23.4  T
   6    -27.9809315 -0.492071E-08  0.391E-04    4.74      58.7  T
     SCC iter.                  ...        0 min,  0.008 sec
     gradient                   ...        0 min,  0.001 sec
 * total energy  :   -27.5782063 Eh     change       -0.1370634E-04 Eh
   gradient norm :     0.0013061 Eh/α   predicted    -0.8296300E-05 ( -39.47%)
   displ. norm   :     0.1077131 α      lambda       -0.2249167E-04
   maximum displ.:     0.0725861 α      in ANC's #2, #4, #1, ...

........................................................................
.............................. CYCLE   15 ..............................
........................................................................
   1    -27.9818975 -0.279819E+02  0.363E-02    4.75       0.0  T
   2    -27.9818978 -0.366326E-06  0.219E-02    4.75       1.0  T
   3    -27.9818979 -0.107341E-06  0.591E-03    4.75       3.9  T
   4    -27.9818982 -0.227250E-06  0.396E-03    4.75       5.8  T
   5    -27.9818982 -0.634232E-07  0.237E-03    4.75       9.7  T
   6    -27.9818982 -0.293509E-07  0.935E-04    4.75      24.5  T
   7    -27.9818983 -0.850673E-08  0.279E-04    4.75      82.3  T
     SCC iter.                  ...        0 min,  0.009 sec
     gradient                   ...        0 min,  0.001 sec
 * total energy  :   -27.5782245 Eh     change       -0.1820758E-04 Eh
   gradient norm :     0.0015940 Eh/α   predicted    -0.1130761E-04 ( -37.90%)
   displ. norm   :     0.0732847 α      lambda       -0.6544503E-05
   maximum displ.:     0.0484940 α      in ANC's #2, #4, #1, ...

........................................................................
.............................. CYCLE   16 ..............................
........................................................................
   1    -27.9814204 -0.279814E+02  0.252E-02    4.75       0.0  T
   2    -27.9814205 -0.128946E-06  0.151E-02    4.75       1.5  T
   3    -27.9814206 -0.466412E-07  0.344E-03    4.75       6.7  T
   4    -27.9814207 -0.713551E-07  0.237E-03    4.75       9.7  T
   5    -27.9814207 -0.224085E-07  0.144E-03    4.75      16.0  T
   6    -27.9814207 -0.113338E-07  0.521E-04    4.75      44.1  T
   7    -27.9814207 -0.226438E-08  0.179E-04    4.75     127.9  T
     SCC iter.                  ...        0 min,  0.009 sec
     gradient                   ...        0 min,  0.001 sec
 * total energy  :   -27.5782316 Eh     change       -0.7133065E-05 Eh
   gradient norm :     0.0009488 Eh/α   predicted    -0.3281025E-05 ( -54.00%)
   displ. norm   :     0.0380173 α      lambda       -0.5485495E-05
   maximum displ.:     0.0349967 α      in ANC's #2, #1, #4, ...

........................................................................
.............................. CYCLE   17 ..............................
........................................................................
   1    -27.9813468 -0.279813E+02  0.129E-02    4.74       0.0  T
   2    -27.9813468 -0.690387E-07  0.803E-03    4.74       2.9  T
   3    -27.9813469 -0.542869E-07  0.254E-03    4.74       9.0  T
   4    -27.9813469 -0.275656E-07  0.194E-03    4.74      11.8  T
   5    -27.9813469 -0.193566E-07  0.929E-04    4.74      24.7  T
   6    -27.9813469 -0.461878E-08  0.324E-04    4.74      70.8  T
     SCC iter.                  ...        0 min,  0.007 sec
     gradient                   ...        0 min,  0.001 sec
 * total energy  :   -27.5782383 Eh     change       -0.6707919E-05 Eh
   gradient norm :     0.0004988 Eh/α   predicted    -0.2747285E-05 ( -59.04%)
   displ. norm   :     0.0361794 α      lambda       -0.3990257E-05
   maximum displ.:     0.0315124 α      in ANC's #2, #1, #3, ...

........................................................................
.............................. CYCLE   18 ..............................
........................................................................
   1    -27.9814124 -0.279814E+02  0.124E-02    4.75       0.0  T
   2    -27.9814125 -0.513052E-07  0.769E-03    4.75       3.0  T
   3    -27.9814125 -0.453030E-07  0.234E-03    4.75       9.8  T
   4    -27.9814125 -0.243673E-07  0.181E-03    4.75      12.7  T
   5    -27.9814126 -0.188057E-07  0.535E-04    4.75      42.9  T
   6    -27.9814126 -0.199318E-08  0.217E-04    4.75     105.5  T
     SCC iter.                  ...        0 min,  0.008 sec
     gradient                   ...        0 min,  0.001 sec
 * total energy  :   -27.5782433 Eh     change       -0.4965471E-05 Eh
   gradient norm :     0.0004370 Eh/α   predicted    -0.1997541E-05 ( -59.77%)
   displ. norm   :     0.0320847 α      lambda       -0.2746036E-05
   maximum displ.:     0.0279339 α      in ANC's #2, #3, #1, ...

   *** GEOMETRY OPTIMIZATION CONVERGED AFTER 18 ITERATIONS ***

------------------------------------------------------------------------
 total energy gain   :        -0.0104998 Eh       -6.5887 kcal/mol
 total RMSD          :         0.5592725 a0        0.2960 Å
 total power (kW/mol):        -1.5315123 (step) -107.6772 (real)
------------------------------------------------------------------------

 ANCopt (total)                0 d,  0 h,  0 min,  0.256 sec
 optimizer setup                ...        0 min,  0.000 sec (  0.045%)
 model hessian                  ...        0 min,  0.005 sec (  1.881%)
 ANC generation                 ...        0 min,  0.001 sec (  0.447%)
 coordinate transformation      ...        0 min,  0.000 sec (  0.161%)
 single point calculation       ...        0 min,  0.243 sec ( 95.006%)
 optimization log               ...        0 min,  0.002 sec (  0.684%)
 hessian update                 ...        0 min,  0.001 sec (  0.199%)
 rational function              ...        0 min,  0.002 sec (  0.808%)

================
 final structure:
================
19
 xtb: 6.5.1 (fef0646)
N            1.81165057393101        0.38667437055730       -1.00778755177040
C            2.69047728532524        0.06144684666098        0.13723495123940
C            3.13468375758417       -1.37754690556588        0.11861475964385
C            4.46728196930234       -1.69960735002007        0.34156970041305
C            4.87895746937997       -3.02112031444965        0.34957398800707
C            3.96179972685060       -4.03355470695993        0.12496166760778
C            2.63167468014037       -3.71840066453418       -0.10051125501322
C            2.21619126477632       -2.39820815634676       -0.09990387477971
Cl          -1.04037255532945       -0.69169391566914       -0.71221267827836
H            1.64913780784283        1.39474348511542       -1.06410399121150
H            0.86495040232207       -0.05714493708656       -0.90328410243803
H            2.21667947920602        0.05188966659243       -1.88558261372619
H            2.13399984601948        0.25234997764328        1.05722781854412
H            3.56800960279147        0.70875341044312        0.11298658001349
H            5.18882681807661       -0.91614491890634        0.51740634952281
H            5.91590677261107       -3.26258157299060        0.52846824103289
H            4.27996286771947       -5.06549082138990        0.12787709448108
H            1.91126843396270       -4.50488862832607       -0.27323318670993
H            1.17375379748712       -2.16731486476704       -0.26183189657846

 Bond Distances (Angstroems)
 ---------------------------
N1-C2=1.4796         N1-H10=1.0226        N1-H11=1.0508        N1-H12=1.0231        C2-N1=1.4796         C2-C3=1.5061         
C2-H13=1.0920        C2-H14=1.0907        C3-C2=1.5061         C3-C4=1.3890         C3-C8=1.3904         C4-C3=1.3890         
C4-C5=1.3842         C4-H15=1.0795        C5-C4=1.3842         C5-C6=1.3844         C5-H16=1.0796        C6-C5=1.3844         
C6-C7=1.3854         C6-H17=1.0799        C7-C6=1.3854         C7-C8=1.3840         C7-H18=1.0805        C8-C3=1.3904         
C8-C7=1.3840         C8-H19=1.0799        H10-N1=1.0226        H11-N1=1.0508        H12-N1=1.0231        H13-C2=1.0920        
H14-C2=1.0907        H15-C4=1.0795        H16-C5=1.0796        H17-C6=1.0799        H18-C7=1.0805        H19-C8=1.0799        
 C  H  Rav=1.0832 sigma=0.0052  Rmin=1.0795  Rmax=1.0920     7
 C  C  Rav=1.4034 sigma=0.0420  Rmin=1.3840  Rmax=1.5061     7
 N  H  Rav=1.0322 sigma=0.0132  Rmin=1.0226  Rmax=1.0508     3
 N  C  Rav=1.4796 sigma=0.0000  Rmin=1.4796  Rmax=1.4796     1

 selected bond angles (degree)
 --------------------
H10-N1-C2=110.71               H11-N1-C2=111.43               H11-N1-H10=106.18              H12-N1-C2=110.91               
H12-N1-H10=109.77              H12-N1-H11=107.69              C3-C2-N1=112.06                H13-C2-N1=108.11               
H13-C2-C3=109.13               H14-C2-N1=109.28               H14-C2-C3=109.24               H14-C2-H13=108.96              
C4-C3-C2=120.17                C8-C3-C2=120.56                C8-C3-C4=119.26                C5-C4-C3=120.51                
H15-C4-C3=119.94               H15-C4-C5=119.55               C6-C5-C4=120.01                H16-C5-C4=120.01               
H16-C5-C6=119.98               C7-C6-C5=119.74                H17-C6-C5=120.21               H17-C6-C7=120.05               
C8-C7-C6=120.34                H18-C7-C6=120.04               H18-C7-C8=119.62               C7-C8-C3=120.13                
H19-C8-C3=120.28               H19-C8-C7=119.58               

 selected dihedral angles (degree)
 ---------------------------------
C3-C2-N1-H10=189.43           C3-C2-N1-H11= 71.49           C3-C2-N1-H12=311.54           H13-C2-N1-H10= 69.12          
H13-C2-N1-H11=311.19          H13-C2-N1-H12=191.23          H14-C2-N1-H10=310.65          H14-C2-N1-H11=192.72          
H14-C2-N1-H12= 72.77          C4-C3-C2-N1=133.97            C4-C3-C2-H13=253.68           C4-C3-C2-H14= 12.72           
C8-C3-C2-N1=312.94            C8-C3-C2-H13= 72.65           C8-C3-C2-H14=191.69           C5-C4-C3-C2=178.85            
C5-C4-C3-C8=359.86            H15-C4-C3-C2=359.29           H15-C4-C3-C8=180.31           C6-C5-C4-C3=  0.46            
C6-C5-C4-H15=180.01           H16-C5-C4-C3=180.30           H16-C5-C4-H15=359.85          C7-C6-C5-C4=359.67            
C7-C6-C5-H16=179.83           H17-C6-C5-C4=179.84           H17-C6-C5-H16=  0.00          C8-C7-C6-C5=359.89            
C8-C7-C6-H17=179.72           H18-C7-C6-C5=180.19           H18-C7-C6-H17=  0.03          C7-C8-C3-C2=180.71            
C7-C8-C3-C4=359.70            H19-C8-C3-C2=  0.20           H19-C8-C3-C4=179.18           C3-C8-C7-C6=  0.43            
C3-C8-C7-H18=180.13           H19-C8-C7-C6=180.94           H19-C8-C7-H18=  0.64          

 CMA Distance (Angstroems)
 ---------------------------
R(CMA):  4.4197
           -------------------------------------------------
          |                Final Singlepoint                |
           -------------------------------------------------

          ...................................................
          :                      SETUP                      :
          :.................................................:
          :  # basis functions                  52          :
          :  # atomic orbitals                  51          :
          :  # shells                           29          :
          :  # electrons                        50          :
          :  max. iterations                   250          :
          :  Hamiltonian                  GFN2-xTB          :
          :  restarted?                      false          :
          :  GBSA solvation                   true          :
          :  PC potential                    false          :
          :  electronic temp.          300.0000000     K    :
          :  accuracy                    1.0000000          :
          :  -> integral cutoff          0.2500000E+02      :
          :  -> integral neglect         0.1000000E-07      :
          :  -> SCF convergence          0.1000000E-05 Eh   :
          :  -> wf. convergence          0.1000000E-03 e    :
          :  Broyden damping             0.4000000          :
          ...................................................

 iter      E             dE          RMSdq      gap      omega  full diag
   1    -27.9814126 -0.279814E+02  0.735E-05    4.75       0.0  T
   2    -27.9814126 -0.439471E-11  0.445E-05    4.75     515.0  T
   3    -27.9814126  0.116174E-11  0.205E-05    4.75    1118.7  T

   *** convergence criteria satisfied after 3 iterations ***

         #    Occupation            Energy/Eh            Energy/eV
      -------------------------------------------------------------
         1        2.0000           -1.0076493             -27.4195
       ...           ...                  ...                  ...
        19        2.0000           -0.4234538             -11.5228
        20        2.0000           -0.4167947             -11.3416
        21        2.0000           -0.4042345             -10.9998
        22        2.0000           -0.4012045             -10.9173
        23        2.0000           -0.4004246             -10.8961
        24        2.0000           -0.3995364             -10.8719
        25        2.0000           -0.3968276             -10.7982 (HOMO)
        26                         -0.2224251              -6.0525 (LUMO)
        27                         -0.2187788              -5.9533
        28                         -0.0937657              -2.5515
        29                         -0.0174642              -0.4752
        30                          0.0798631               2.1732
       ...                                ...                  ...
        51                          0.6674611              18.1625
      -------------------------------------------------------------
                  HL-Gap            0.1744025 Eh            4.7457 eV
             Fermi-level           -0.3096264 Eh           -8.4254 eV

 SCC (total)                   0 d,  0 h,  0 min,  0.006 sec
 SCC setup                      ...        0 min,  0.000 sec (  2.609%)
 Dispersion                     ...        0 min,  0.000 sec (  2.153%)
 classical contributions        ...        0 min,  0.000 sec (  0.514%)
 integral evaluation            ...        0 min,  0.001 sec ( 10.332%)
 iterations                     ...        0 min,  0.004 sec ( 59.931%)
 molecular gradient             ...        0 min,  0.001 sec ( 21.405%)
 printout                       ...        0 min,  0.000 sec (  1.290%)

         :::::::::::::::::::::::::::::::::::::::::::::::::::::
         ::                     SUMMARY                     ::
         :::::::::::::::::::::::::::::::::::::::::::::::::::::
         :: total energy             -27.578243266394 Eh    ::
         :: total w/o Gsasa/hb       -27.570157900346 Eh    ::
         :: gradient norm              0.000439120241 Eh/a0 ::
         :: HOMO-LUMO gap              4.745733598578 eV    ::
         ::.................................................::
         :: SCC energy               -27.981412554969 Eh    ::
         :: -> isotropic ES            0.119581496841 Eh    ::
         :: -> anisotropic ES         -0.031049189079 Eh    ::
         :: -> anisotropic XC          0.006388938631 Eh    ::
         :: -> dispersion             -0.014511857583 Eh    ::
         :: -> Gsolv                  -0.072844301453 Eh    ::
         ::    -> Gelec               -0.064758935405 Eh    ::
         ::    -> Gsasa               -0.001580860357 Eh    ::
         ::    -> Ghb                 -0.007585265389 Eh    ::
         ::    -> Gshift               0.001080759698 Eh    ::
         :: repulsion energy           0.403117902970 Eh    ::
         :: add. restraining           0.000000000000 Eh    ::
         :: total charge              -0.000000000000 e     ::
         :::::::::::::::::::::::::::::::::::::::::::::::::::::

           -------------------------------------------------
          |                Property Printout                |
           -------------------------------------------------

    * Orbital Energies and Occupations

         #    Occupation            Energy/Eh            Energy/eV
      -------------------------------------------------------------
         1        2.0000           -1.0076493             -27.4195
       ...           ...                  ...                  ...
        13        2.0000           -0.4954093             -13.4808
        14        2.0000           -0.4897538             -13.3269
        15        2.0000           -0.4777160             -12.9993
        16        2.0000           -0.4714576             -12.8290
        17        2.0000           -0.4684827             -12.7481
        18        2.0000           -0.4599152             -12.5149
        19        2.0000           -0.4234538             -11.5228
        20        2.0000           -0.4167947             -11.3416
        21        2.0000           -0.4042345             -10.9998
        22        2.0000           -0.4012045             -10.9173
        23        2.0000           -0.4004246             -10.8961
        24        2.0000           -0.3995364             -10.8719
        25        2.0000           -0.3968276             -10.7982 (HOMO)
        26                         -0.2224251              -6.0525 (LUMO)
        27                         -0.2187788              -5.9533
        28                         -0.0937657              -2.5515
        29                         -0.0174642              -0.4752
        30                          0.0798631               2.1732
        31                          0.0940343               2.5588
        32                          0.1012315               2.7546
        33                          0.1140401               3.1032
        34                          0.1162739               3.1640
        35                          0.1176932               3.2026
        36                          0.1184137               3.2222
       ...                                ...                  ...
        51                          0.6674611              18.1625
      -------------------------------------------------------------
                  HL-Gap            0.1744025 Eh            4.7457 eV
             Fermi-level           -0.3096264 Eh           -8.4254 eV

     #   Z          covCN         q      C6AA      α(0)
     1   7 N        3.483    -0.166    24.586     7.364
     2   6 C        3.737    -0.035    21.282     6.583
     3   6 C        2.970     0.010    27.789     8.647
     4   6 C        2.924    -0.044    29.105     8.847
     5   6 C        2.919    -0.035    28.867     8.811
     6   6 C        2.919    -0.035    28.877     8.812
     7   6 C        2.920    -0.031    28.771     8.796
     8   6 C        2.922    -0.041    29.010     8.833
     9  17 Cl       0.043    -0.946   124.837    17.004
    10   1 H        0.859     0.306     0.695     1.306
    11   1 H        0.899     0.294     0.729     1.336
    12   1 H        0.859     0.298     0.719     1.329
    13   1 H        0.924     0.110     1.694     2.035
    14   1 H        0.924     0.114     1.666     2.019
    15   1 H        0.926     0.055     2.259     2.350
    16   1 H        0.926     0.040     2.449     2.447
    17   1 H        0.926     0.030     2.583     2.513
    18   1 H        0.926     0.023     2.690     2.565
    19   1 H        0.926     0.054     2.272     2.357

 Mol. C6AA /au·bohr⁶  :       4329.867833
 Mol. C8AA /au·bohr⁸  :     114238.502160
 Mol. α(0) /au        :        103.954629


Wiberg/Mayer (AO) data.
largest (>0.10) Wiberg bond orders for each atom

 ---------------------------------------------------------------------------
     #   Z sym  total        # sym  WBO       # sym  WBO       # sym  WBO
 ---------------------------------------------------------------------------
     1   7 N    3.645 --     2 C    0.966    12 H    0.897    10 H    0.892
                            11 H    0.834
     2   6 C    3.931 --     3 C    1.010     1 N    0.966    14 H    0.963
                            13 H    0.953
     3   6 C    3.988 --     4 C    1.417     8 C    1.411     2 C    1.010
                             6 C    0.109
     4   6 C    3.990 --     5 C    1.441     3 C    1.417    15 H    0.967
                             7 C    0.111
     5   6 C    3.992 --     4 C    1.441     6 C    1.441    16 H    0.970
                             8 C    0.113
     6   6 C    3.992 --     5 C    1.441     7 C    1.437    17 H    0.971
                             3 C    0.109
     7   6 C    3.993 --     8 C    1.447     6 C    1.437    18 H    0.972
                             4 C    0.111
     8   6 C    3.991 --     7 C    1.447     3 C    1.411    19 H    0.963
                             5 C    0.113
     9  17 Cl   0.105
    10   1 H    0.906 --     1 N    0.892
    11   1 H    0.914 --     1 N    0.834
    12   1 H    0.911 --     1 N    0.897
    13   1 H    0.988 --     2 C    0.953
    14   1 H    0.987 --     2 C    0.963
    15   1 H    0.997 --     4 C    0.967
    16   1 H    0.998 --     5 C    0.970
    17   1 H    0.999 --     6 C    0.971
    18   1 H    0.999 --     7 C    0.972
    19   1 H    0.997 --     8 C    0.963
 ---------------------------------------------------------------------------

Topologies differ in total number of bonds
Writing topology from bond orders to xtbtopo.mol

molecular dipole:
                 x           y           z       tot (Debye)
 q only:        5.214       2.060      -0.335
   full:        4.392       1.790      -0.380      12.094
molecular quadrupole (traceless):
                xx          xy          yy          xz          yz          zz
 q only:       10.114       0.719      -6.809     -10.666      -4.447      -3.304
  q+dip:       11.994       2.406      -3.938      -9.729      -3.785      -8.057
   full:       10.629       2.202      -5.175     -10.027      -4.135      -5.454

           -------------------------------------------------
          |                Geometry Summary                 |
           -------------------------------------------------

      molecular mass/u    :      143.6141996
   center of mass at/Å    :        2.1282942      -1.5820009      -0.2155656
  moments of inertia/u·Å² :        0.2120376E+03   0.7669193E+03   0.9531017E+03
rotational constants/cm⁻¹ :        0.7950302E-01   0.2198097E-01   0.1768713E-01

 * 17 selected distances

     #   Z          #   Z                                           value/Å
     1   7 N        2   6 C                                       1.4795899 (max)
     3   6 C        4   6 C                                       1.3889745
     4   6 C        5   6 C                                       1.3841740
     5   6 C        6   6 C                                       1.3844323
     6   6 C        7   6 C                                       1.3854216
     3   6 C        8   6 C                                       1.3903700
     7   6 C        8   6 C                                       1.3840287
     1   7 N       10   1 H                                       1.0226365 (min)
     1   7 N       11   1 H                                       1.0507797
     1   7 N       12   1 H                                       1.0230609
     2   6 C       13   1 H                                       1.0920157
     2   6 C       14   1 H                                       1.0907140
     4   6 C       15   1 H                                       1.0795180
     5   6 C       16   1 H                                       1.0796160
     6   6 C       17   1 H                                       1.0798744
     7   6 C       18   1 H                                       1.0804543
     8   6 C       19   1 H                                       1.0799113

 * 4 distinct bonds (by element types)

   Z      Z             #   av. dist./Å        max./Å        min./Å
   1 H    6 C           7     1.0831577     1.0920157     1.0795180
   6 C    6 C           6     1.3862335     1.3903700     1.3840287
   1 H    7 N           3     1.0321590     1.0507797     1.0226365
   6 C    7 N           1     1.4795899     1.4795899     1.4795899


optimized geometry written to: xtbopt.xyz


           -------------------------------------------------
          | TOTAL ENERGY              -27.578243266394 Eh   |
          | GRADIENT NORM               0.000439120241 Eh/α |
          | HOMO-LUMO GAP               4.745733598578 eV   |
           -------------------------------------------------

------------------------------------------------------------------------
 * finished run on 2023/01/24 at 15:16:31.358     
------------------------------------------------------------------------
 total:
 * wall-time:     0 d,  0 h,  0 min,  0.308 sec
 *  cpu-time:     0 d,  0 h,  0 min, 29.976 sec
 * ratio c/w:    97.168 speedup
 SCF:
 * wall-time:     0 d,  0 h,  0 min,  0.029 sec
 *  cpu-time:     0 d,  0 h,  0 min,  4.051 sec
 * ratio c/w:   140.827 speedup
 ANC optimizer:
 * wall-time:     0 d,  0 h,  0 min,  0.263 sec
 *  cpu-time:     0 d,  0 h,  0 min, 23.852 sec
 * ratio c/w:    90.624 speedup

