      -----------------------------------------------------------      
     |                   =====================                   |     
     |                           x T B                           |     
     |                   =====================                   |     
     |                         S. Grimme                         |     
     |          Mulliken Center for Theoretical Chemistry        |     
     |                    University of Bonn                     |     
      -----------------------------------------------------------      

   * xtb version 6.5.1 (fef0646) compiled by 'conda@b96dff2e9fd6' on 2023-01-04

   xtb is free software: you can redistribute it and/or modify it under
   the terms of the GNU Lesser General Public License as published by
   the Free Software Foundation, either version 3 of the License, or
   (at your option) any later version.
   
   xtb is distributed in the hope that it will be useful,
   but WITHOUT ANY WARRANTY; without even the implied warranty of
   MERCHANTABILITY or FITNESS FOR A PARTICULAR PURPOSE.  See the
   GNU Lesser General Public License for more details.
   
   Cite this work as:
   * C. Bannwarth, E. Caldeweyher, S. Ehlert, A. Hansen, P. Pracht,
     J. Seibert, S. Spicher, S. Grimme, WIREs Comput. Mol. Sci., 2020, 11,
     e01493. DOI: 10.1002/wcms.1493
   
   for GFN2-xTB:
   * C. Bannwarth, S. Ehlert and S. Grimme., J. Chem. Theory Comput., 2019,
     15, 1652-1671. DOI: 10.1021/acs.jctc.8b01176
   for GFN1-xTB:
   * S. Grimme, C. Bannwarth, P. Shushkov, J. Chem. Theory Comput., 2017,
     13, 1989-2009. DOI: 10.1021/acs.jctc.7b00118
   for GFN0-xTB:
   * P. Pracht, E. Caldeweyher, S. Ehlert, S. Grimme, ChemRxiv, 2019, preprint.
     DOI: 10.26434/chemrxiv.8326202.v1
   for GFN-FF:
   * S. Spicher and S. Grimme, Angew. Chem. Int. Ed., 2020, 59, 15665-15673.
     DOI: 10.1002/anie.202004239
   
   for ALPB and GBSA implicit solvation:
   * S. Ehlert, M. Stahn, S. Spicher, S. Grimme, J. Chem. Theory Comput.,
     2021, 17, 4250-4261. DOI: 10.1021/acs.jctc.1c00471
   
   for DFT-D4:
   * E. Caldeweyher, C. Bannwarth and S. Grimme, J. Chem. Phys., 2017,
     147, 034112. DOI: 10.1063/1.4993215
   * E. Caldeweyher, S. Ehlert, A. Hansen, H. Neugebauer, S. Spicher,
     C. Bannwarth and S. Grimme, J. Chem. Phys., 2019, 150, 154122.
     DOI: 10.1063/1.5090222
   * E. Caldeweyher, J.-M. Mewes, S. Ehlert and S. Grimme, Phys. Chem. Chem. Phys.
     2020, 22, 8499-8512. DOI: 10.1039/D0CP00502A
   
   for sTDA-xTB:
   * S. Grimme and C. Bannwarth, J. Chem. Phys., 2016, 145, 054103.
     DOI: 10.1063/1.4959605
   
   in the mass-spec context:
   * V. Asgeirsson, C. Bauer and S. Grimme, Chem. Sci., 2017, 8, 4879.
     DOI: 10.1039/c7sc00601b
   * J. Koopman and S. Grimme, ACS Omega 2019, 4, 12, 15120-15133.
     DOI: 10.1021/acsomega.9b02011
   
   for metadynamics refer to:
   * S. Grimme, J. Chem. Theory Comput., 2019, 155, 2847-2862
     DOI: 10.1021/acs.jctc.9b00143
   
   for SPH calculations refer to:
   * S. Spicher and S. Grimme, J. Chem. Theory Comput., 2021, 17, 1701-1714
     DOI: 10.1021/acs.jctc.0c01306
   
   with help from (in alphabetical order)
   P. Atkinson, C. Bannwarth, F. Bohle, G. Brandenburg, E. Caldeweyher
   M. Checinski, S. Dohm, S. Ehlert, S. Ehrlich, I. Gerasimov, C. Hölzer
   A. Katbashev, J. Koopman, C. Lavigne, S. Lehtola, F. März, M. Müller,
   F. Musil, H. Neugebauer, J. Pisarek, C. Plett, P. Pracht, F. Pultar,
   J. Seibert, P. Shushkov, S. Spicher, M. Stahn, M. Steiner, T. Strunk,
   J. Stückrath, T. Rose, and J. Unsleber
   
 * started run on 2023/01/23 at 13:54:38.590     

           -------------------------------------------------
          |                Calculation Setup                |
           -------------------------------------------------

          program call               : xtb init.xyz --opt -c 1 -u 0 -P 16
          hostname                   : gpg-woodward
          coordinate file            : init.xyz
          omp threads                :                    16

   ID    Z sym.   atoms
    1    7 N      1
    2    6 C      2-17
    3    1 H      18-35

           -------------------------------------------------
          |                 G F N 2 - x T B                 |
           -------------------------------------------------

        Reference                      10.1021/acs.jctc.8b01176
      * Hamiltonian:
        H0-scaling (s, p, d)           1.850000    2.230000    2.230000
        zeta-weighting                 0.500000
      * Dispersion:
        s8                             2.700000
        a1                             0.520000
        a2                             5.000000
        s9                             5.000000
      * Repulsion:
        kExp                           1.500000    1.000000
        rExp                           1.000000
      * Coulomb:
        alpha                          2.000000
        third order                    shell-resolved
        anisotropic                    true
        a3                             3.000000
        a5                             4.000000
        cn-shift                       1.200000
        cn-exp                         4.000000
        max-rad                        5.000000


          ...................................................
          :                      SETUP                      :
          :.................................................:
          :  # basis functions                  86          :
          :  # atomic orbitals                  86          :
          :  # shells                           52          :
          :  # electrons                        86          :
          :  max. iterations                   250          :
          :  Hamiltonian                  GFN2-xTB          :
          :  restarted?                      false          :
          :  GBSA solvation                  false          :
          :  PC potential                    false          :
          :  electronic temp.          300.0000000     K    :
          :  accuracy                    1.0000000          :
          :  -> integral cutoff          0.2500000E+02      :
          :  -> integral neglect         0.1000000E-07      :
          :  -> SCF convergence          0.1000000E-05 Eh   :
          :  -> wf. convergence          0.1000000E-03 e    :
          :  Broyden damping             0.4000000          :
          ...................................................

 iter      E             dE          RMSdq      gap      omega  full diag
   1    -46.5615499 -0.465615E+02  0.442E+00    3.04       0.0  T
   2    -46.6863074 -0.124758E+00  0.257E+00    2.90       1.0  T
   3    -46.6869821 -0.674667E-03  0.112E+00    2.79       1.0  T
   4    -46.6834823  0.349983E-02  0.531E-01    2.64       1.0  T
   5    -46.6924679 -0.898565E-02  0.970E-02    2.69       1.0  T
   6    -46.6924233  0.446498E-04  0.616E-02    2.70       1.0  T
   7    -46.6925055 -0.822938E-04  0.170E-02    2.70       1.0  T
   8    -46.6925119 -0.633541E-05  0.680E-03    2.70       2.5  T
   9    -46.6925128 -0.954927E-06  0.247E-03    2.71       6.8  T
  10    -46.6925129 -0.519517E-07  0.106E-03    2.71      15.9  T
  11    -46.6925129 -0.929350E-08  0.433E-04    2.71      39.0  T
  12    -46.6925129 -0.304470E-08  0.167E-04    2.71     101.3  T

   *** convergence criteria satisfied after 12 iterations ***

         #    Occupation            Energy/Eh            Energy/eV
      -------------------------------------------------------------
         1        2.0000           -0.8902885             -24.2260
       ...           ...                  ...                  ...
        37        2.0000           -0.5153567             -14.0236
        38        2.0000           -0.5100096             -13.8781
        39        2.0000           -0.4924259             -13.3996
        40        2.0000           -0.4872699             -13.2593
        41        2.0000           -0.4832286             -13.1493
        42        2.0000           -0.4654233             -12.6648
        43        2.0000           -0.4522003             -12.3050 (HOMO)
        44                         -0.3527895              -9.5999 (LUMO)
        45                         -0.3347520              -9.1091
        46                         -0.3027799              -8.2391
        47                         -0.2887378              -7.8570
        48                         -0.2551698              -6.9435
       ...                                ...                  ...
        86                          0.5856890              15.9374
      -------------------------------------------------------------
                  HL-Gap            0.0994107 Eh            2.7051 eV
             Fermi-level           -0.4024949 Eh          -10.9524 eV

 SCC (total)                   0 d,  0 h,  0 min,  0.075 sec
 SCC setup                      ...        0 min,  0.000 sec (  0.317%)
 Dispersion                     ...        0 min,  0.001 sec (  0.874%)
 classical contributions        ...        0 min,  0.000 sec (  0.109%)
 integral evaluation            ...        0 min,  0.002 sec (  2.525%)
 iterations                     ...        0 min,  0.066 sec ( 88.755%)
 molecular gradient             ...        0 min,  0.005 sec (  6.077%)
 printout                       ...        0 min,  0.001 sec (  0.880%)

         :::::::::::::::::::::::::::::::::::::::::::::::::::::
         ::                     SUMMARY                     ::
         :::::::::::::::::::::::::::::::::::::::::::::::::::::
         :: total energy             -45.887344559069 Eh    ::
         :: gradient norm              0.043929466371 Eh/a0 ::
         :: HOMO-LUMO gap              2.705103980703 eV    ::
         ::.................................................::
         :: SCC energy               -46.692512902778 Eh    ::
         :: -> isotropic ES            0.104835077179 Eh    ::
         :: -> anisotropic ES         -0.008354941257 Eh    ::
         :: -> anisotropic XC          0.034294041336 Eh    ::
         :: -> dispersion             -0.031013436056 Eh    ::
         :: repulsion energy           0.805404684281 Eh    ::
         :: add. restraining           0.000000000000 Eh    ::
         :: total charge               1.000000000000 e     ::
         :::::::::::::::::::::::::::::::::::::::::::::::::::::

      ----------------------------------------------------------- 
     |                   =====================                   |
     |                        A N C O P T                        |
     |                   =====================                   |
     |               Approximate Normal Coordinate               |
     |                Rational Function Optimizer                |
      ----------------------------------------------------------- 

          ...................................................
          :                      SETUP                      :
          :.................................................:
          :   optimization level            normal          :
          :   max. optcycles                   200          :
          :   ANC micro-cycles                  20          :
          :   degrees of freedom                99          :
          :.................................................:
          :   RF solver                   davidson          :
          :   write xtbopt.log                true          :
          :   linear?                        false          :
          :   energy convergence         0.5000000E-05 Eh   :
          :   grad. convergence          0.1000000E-02 Eh/α :
          :   maximium RF displ.         1.0000000          :
          :   Hlow (freq-cutoff)         0.1000000E-01      :
          :   Hmax (freq-cutoff)         5.0000000          :
          :   S6 in model hess.         20.0000000          :
          ...................................................

generating ANC from model Hessian ...
Using Lindh-Hessian (1995)
 Shifting diagonal of input Hessian by    9.7235141277609693E-003
 Lowest  eigenvalues of input Hessian
    0.000000    0.000000    0.000000    0.000000    0.000000    0.000000
    0.010000    0.010378    0.010553    0.011226    0.011550    0.013120
    0.014060    0.015547    0.017771    0.020312    0.023346    0.023617
 Highest eigenvalues
    1.831833    1.859179    1.920286    1.947016    1.952259    2.028918


........................................................................
.............................. CYCLE    1 ..............................
........................................................................
   1    -46.6925129 -0.466925E+02  0.656E-05    2.71       0.0  T
   2    -46.6925129 -0.128466E-10  0.427E-05    2.71     395.9  T
   3    -46.6925129 -0.106581E-12  0.272E-05    2.71     622.4  T
     SCC iter.                  ...        0 min,  0.017 sec
     gradient                   ...        0 min,  0.004 sec
 * total energy  :   -45.8873446 Eh     change       -0.8296297E-10 Eh
   gradient norm :     0.0439296 Eh/α   predicted     0.0000000E+00 (-100.00%)
   displ. norm   :     0.2325903 α      lambda       -0.5247026E-02
   maximum displ.:     0.0966728 α      in ANC's #7, #25, #52, ...

........................................................................
.............................. CYCLE    2 ..............................
........................................................................
   1    -46.7280037 -0.467280E+02  0.156E-01    2.68       0.0  T
   2    -46.7280172 -0.134696E-04  0.923E-02    2.69       1.0  T
   3    -46.7279832  0.340304E-04  0.406E-02    2.69       1.0  T
   4    -46.7280228 -0.396879E-04  0.672E-03    2.70       2.5  T
   5    -46.7280239 -0.103273E-05  0.282E-03    2.70       6.0  T
   6    -46.7280240 -0.120844E-06  0.127E-03    2.70      13.3  T
   7    -46.7280240 -0.101202E-07  0.324E-04    2.70      52.1  T
   8    -46.7280240 -0.141273E-08  0.133E-04    2.70     127.2  T
     SCC iter.                  ...        0 min,  0.041 sec
     gradient                   ...        0 min,  0.004 sec
 * total energy  :   -45.8907419 Eh     change       -0.3397292E-02 Eh
   gradient norm :     0.0185379 Eh/α   predicted    -0.2765900E-02 ( -18.59%)
   displ. norm   :     0.2409923 α      lambda       -0.1306650E-02
   maximum displ.:     0.1376183 α      in ANC's #7, #4, #3, ...

........................................................................
.............................. CYCLE    3 ..............................
........................................................................
   1    -46.7425018 -0.467425E+02  0.833E-02    2.66       0.0  T
   2    -46.7425100 -0.819680E-05  0.485E-02    2.67       1.0  T
   3    -46.7424977  0.123664E-04  0.297E-02    2.67       1.0  T
   4    -46.7425156 -0.179437E-04  0.427E-03    2.67       4.0  T
   5    -46.7425160 -0.378222E-06  0.200E-03    2.67       8.5  T
   6    -46.7425161 -0.944270E-07  0.775E-04    2.67      21.8  T
   7    -46.7425161 -0.252965E-08  0.246E-04    2.67      68.6  T
     SCC iter.                  ...        0 min,  0.033 sec
     gradient                   ...        0 min,  0.004 sec
 * total energy  :   -45.8916106 Eh     change       -0.8687045E-03 Eh
   gradient norm :     0.0069781 Eh/α   predicted    -0.6919887E-03 ( -20.34%)
   displ. norm   :     0.2889287 α      lambda       -0.6583224E-03
   maximum displ.:     0.1536768 α      in ANC's #7, #4, #3, ...

........................................................................
.............................. CYCLE    4 ..............................
........................................................................
   1    -46.7452043 -0.467452E+02  0.769E-02    2.62       0.0  T
   2    -46.7452127 -0.839767E-05  0.451E-02    2.63       1.0  T
   3    -46.7452021  0.106026E-04  0.282E-02    2.63       1.0  T
   4    -46.7452191 -0.169897E-04  0.403E-03    2.63       4.2  T
   5    -46.7452195 -0.363853E-06  0.175E-03    2.63       9.6  T
   6    -46.7452196 -0.805642E-07  0.680E-04    2.63      24.9  T
   7    -46.7452196 -0.246340E-08  0.257E-04    2.63      65.8  T
     SCC iter.                  ...        0 min,  0.033 sec
     gradient                   ...        0 min,  0.004 sec
 * total energy  :   -45.8921263 Eh     change       -0.5157936E-03 Eh
   gradient norm :     0.0071313 Eh/α   predicted    -0.3566429E-03 ( -30.86%)
   displ. norm   :     0.4467637 α      lambda       -0.7589885E-03
   maximum displ.:     0.2166505 α      in ANC's #4, #7, #3, ...

........................................................................
.............................. CYCLE    5 ..............................
........................................................................
   1    -46.7425364 -0.467425E+02  0.119E-01    2.57       0.0  T
   2    -46.7425505 -0.140788E-04  0.700E-02    2.59       1.0  T
   3    -46.7425198  0.307598E-04  0.404E-02    2.58       1.0  T
   4    -46.7425610 -0.412457E-04  0.542E-03    2.59       3.1  T
   5    -46.7425617 -0.701134E-06  0.231E-03    2.59       7.3  T
   6    -46.7425618 -0.134659E-06  0.900E-04    2.59      18.8  T
   7    -46.7425618 -0.463682E-08  0.368E-04    2.59      45.9  T
     SCC iter.                  ...        0 min,  0.033 sec
     gradient                   ...        0 min,  0.003 sec
 * total energy  :   -45.8927202 Eh     change       -0.5938296E-03 Eh
   gradient norm :     0.0108944 Eh/α   predicted    -0.4552417E-03 ( -23.34%)
   displ. norm   :     0.4703207 α      lambda       -0.6629337E-03
   maximum displ.:     0.2344221 α      in ANC's #3, #5, #4, ...

........................................................................
.............................. CYCLE    6 ..............................
........................................................................
   1    -46.7380734 -0.467381E+02  0.132E-01    2.54       0.0  T
   2    -46.7380854 -0.119898E-04  0.776E-02    2.55       1.0  T
   3    -46.7380492  0.362048E-04  0.388E-02    2.55       1.0  T
   4    -46.7380934 -0.441920E-04  0.537E-03    2.55       3.1  T
   5    -46.7380941 -0.705774E-06  0.217E-03    2.55       7.8  T
   6    -46.7380942 -0.112427E-06  0.866E-04    2.55      19.5  T
   7    -46.7380942 -0.427602E-08  0.373E-04    2.55      45.3  T
     SCC iter.                  ...        0 min,  0.032 sec
     gradient                   ...        0 min,  0.003 sec
 * total energy  :   -45.8932509 Eh     change       -0.5306944E-03 Eh
   gradient norm :     0.0116861 Eh/α   predicted    -0.4047901E-03 ( -23.72%)
   displ. norm   :     0.4716071 α      lambda       -0.6574828E-03
   maximum displ.:     0.2457187 α      in ANC's #3, #5, #4, ...

........................................................................
.............................. CYCLE    7 ..............................
........................................................................
   1    -46.7349146 -0.467349E+02  0.139E-01    2.53       0.0  T
   2    -46.7349244 -0.981692E-05  0.813E-02    2.54       1.0  T
   3    -46.7348928  0.315382E-04  0.336E-02    2.54       1.0  T
   4    -46.7349300 -0.371844E-04  0.507E-03    2.54       3.3  T
   5    -46.7349307 -0.630397E-06  0.200E-03    2.54       8.5  T
   6    -46.7349307 -0.860943E-07  0.790E-04    2.54      21.4  T
   7    -46.7349307 -0.256674E-08  0.343E-04    2.54      49.2  T
     SCC iter.                  ...        0 min,  0.033 sec
     gradient                   ...        0 min,  0.003 sec
 * total energy  :   -45.8937772 Eh     change       -0.5262981E-03 Eh
   gradient norm :     0.0094611 Eh/α   predicted    -0.4018623E-03 ( -23.64%)
   displ. norm   :     0.4767195 α      lambda       -0.6788985E-03
   maximum displ.:     0.2578792 α      in ANC's #3, #5, #4, ...

........................................................................
.............................. CYCLE    8 ..............................
........................................................................
   1    -46.7345250 -0.467345E+02  0.144E-01    2.53       0.0  T
   2    -46.7345352 -0.102546E-04  0.840E-02    2.53       1.0  T
   3    -46.7345046  0.306568E-04  0.325E-02    2.53       1.0  T
   4    -46.7345411 -0.365471E-04  0.478E-03    2.53       3.5  T
   5    -46.7345417 -0.544821E-06  0.198E-03    2.53       8.5  T
   6    -46.7345417 -0.766027E-07  0.778E-04    2.53      21.7  T
   7    -46.7345417 -0.214289E-08  0.322E-04    2.53      52.4  T
     SCC iter.                  ...        0 min,  0.032 sec
     gradient                   ...        0 min,  0.003 sec
 * total energy  :   -45.8943093 Eh     change       -0.5320925E-03 Eh
   gradient norm :     0.0070718 Eh/α   predicted    -0.4166192E-03 ( -21.70%)
   displ. norm   :     0.4642954 α      lambda       -0.6149126E-03
   maximum displ.:     0.2562370 α      in ANC's #5, #3, #4, ...

........................................................................
.............................. CYCLE    9 ..............................
........................................................................
   1    -46.7364021 -0.467364E+02  0.142E-01    2.53       0.0  T
   2    -46.7364145 -0.123781E-04  0.825E-02    2.53       1.0  T
   3    -46.7363811  0.333913E-04  0.347E-02    2.53       1.0  T
   4    -46.7364218 -0.407400E-04  0.491E-03    2.53       3.4  T
   5    -46.7364224 -0.593983E-06  0.196E-03    2.53       8.6  T
   6    -46.7364225 -0.751080E-07  0.790E-04    2.53      21.4  T
   7    -46.7364225 -0.284710E-08  0.315E-04    2.53      53.6  T
     SCC iter.                  ...        0 min,  0.033 sec
     gradient                   ...        0 min,  0.003 sec
 * total energy  :   -45.8947874 Eh     change       -0.4781677E-03 Eh
   gradient norm :     0.0077093 Eh/α   predicted    -0.3737355E-03 ( -21.84%)
   displ. norm   :     0.4655975 α      lambda       -0.5252697E-03
   maximum displ.:     0.2777809 α      in ANC's #5, #3, #14, ...

........................................................................
.............................. CYCLE   10 ..............................
........................................................................
   1    -46.7386220 -0.467386E+02  0.148E-01    2.52       0.0  T
   2    -46.7386387 -0.166370E-04  0.859E-02    2.53       1.0  T
   3    -46.7385993  0.393955E-04  0.391E-02    2.53       1.0  T
   4    -46.7386485 -0.492157E-04  0.566E-03    2.53       3.0  T
   5    -46.7386493 -0.849606E-06  0.199E-03    2.53       8.5  T
   6    -46.7386494 -0.839066E-07  0.824E-04    2.53      20.5  T
   7    -46.7386494 -0.360700E-08  0.350E-04    2.53      48.2  T
     SCC iter.                  ...        0 min,  0.032 sec
     gradient                   ...        0 min,  0.003 sec
 * total energy  :   -45.8951970 Eh     change       -0.4095228E-03 Eh
   gradient norm :     0.0078072 Eh/α   predicted    -0.3195724E-03 ( -21.96%)
   displ. norm   :     0.4859905 α      lambda       -0.4354863E-03
   maximum displ.:     0.3157478 α      in ANC's #5, #3, #14, ...

........................................................................
.............................. CYCLE   11 ..............................
........................................................................
   1    -46.7383743 -0.467384E+02  0.163E-01    2.50       0.0  T
   2    -46.7384001 -0.257983E-04  0.942E-02    2.51       1.0  T
   3    -46.7383519  0.481511E-04  0.457E-02    2.51       1.0  T
   4    -46.7384142 -0.622904E-04  0.704E-03    2.51       2.4  T
   5    -46.7384155 -0.130345E-05  0.257E-03    2.51       6.6  T
   6    -46.7384157 -0.166117E-06  0.949E-04    2.51      17.8  T
   7    -46.7384157 -0.504321E-08  0.441E-04    2.51      38.3  T
     SCC iter.                  ...        0 min,  0.032 sec
     gradient                   ...        0 min,  0.003 sec
 * total energy  :   -45.8955298 Eh     change       -0.3328376E-03 Eh
   gradient norm :     0.0064963 Eh/α   predicted    -0.2691742E-03 ( -19.13%)
   displ. norm   :     0.3987117 α      lambda       -0.4109225E-03
   maximum displ.:     0.2586994 α      in ANC's #5, #3, #14, ...

........................................................................
.............................. CYCLE   12 ..............................
........................................................................
   1    -46.7451279 -0.467451E+02  0.145E-01    2.51       0.0  T
   2    -46.7451437 -0.158943E-04  0.846E-02    2.51       1.0  T
   3    -46.7451080  0.357784E-04  0.382E-02    2.51       1.0  T
   4    -46.7451541 -0.460937E-04  0.440E-03    2.51       3.8  T
   5    -46.7451546 -0.562087E-06  0.151E-03    2.51      11.2  T
   6    -46.7451546 -0.145190E-07  0.812E-04    2.51      20.8  T
   7    -46.7451546 -0.630058E-08  0.223E-04    2.51      75.8  T
     SCC iter.                  ...        0 min,  0.032 sec
     gradient                   ...        0 min,  0.003 sec
 * total energy  :   -45.8956610 Eh     change       -0.1312207E-03 Eh
   gradient norm :     0.0104340 Eh/α   predicted    -0.2381244E-03 (  81.47%)
   displ. norm   :     0.4431298 α      lambda       -0.4616939E-03
   maximum displ.:     0.3098681 α      in ANC's #5, #3, #14, ...

........................................................................
.............................. CYCLE   13 ..............................
........................................................................
   1    -46.7370081 -0.467370E+02  0.157E-01    2.47       0.0  T
   2    -46.7370469 -0.387935E-04  0.911E-02    2.47       1.0  T
   3    -46.7370121  0.347151E-04  0.454E-02    2.48       1.0  T
   4    -46.7370621 -0.499601E-04  0.763E-03    2.48       2.2  T
   5    -46.7370633 -0.118031E-05  0.400E-03    2.48       4.2  T
   6    -46.7370637 -0.434743E-06  0.134E-03    2.48      12.6  T
   7    -46.7370637 -0.819400E-08  0.619E-04    2.48      27.3  T
   8    -46.7370637 -0.646587E-08  0.996E-05    2.48     169.8  T
     SCC iter.                  ...        0 min,  0.037 sec
     gradient                   ...        0 min,  0.003 sec
 * total energy  :   -45.8958681 Eh     change       -0.2070585E-03 Eh
   gradient norm :     0.0090276 Eh/α   predicted    -0.2762135E-03 (  33.40%)
   displ. norm   :     0.0856160 α      lambda       -0.1508982E-03
   maximum displ.:     0.0487540 α      in ANC's #4, #7, #3, ...

........................................................................
.............................. CYCLE   14 ..............................
........................................................................
   1    -46.7393343 -0.467393E+02  0.247E-02    2.49       0.0  T
   2    -46.7393352 -0.862463E-06  0.146E-02    2.49       1.2  T
   3    -46.7393340  0.115288E-05  0.801E-03    2.49       2.1  T
   4    -46.7393356 -0.154900E-05  0.160E-03    2.49      10.6  T
   5    -46.7393356 -0.531695E-07  0.596E-04    2.49      28.3  T
   6    -46.7393356 -0.708157E-08  0.285E-04    2.49      59.2  T
     SCC iter.                  ...        0 min,  0.028 sec
     gradient                   ...        0 min,  0.003 sec
 * total energy  :   -45.8959871 Eh     change       -0.1189885E-03 Eh
   gradient norm :     0.0052171 Eh/α   predicted    -0.7600403E-04 ( -36.12%)
   displ. norm   :     0.3172253 α      lambda       -0.3309115E-03
   maximum displ.:     0.2246548 α      in ANC's #5, #4, #3, ...

........................................................................
.............................. CYCLE   15 ..............................
........................................................................
   1    -46.7397670 -0.467398E+02  0.116E-01    2.50       0.0  T
   2    -46.7397816 -0.145393E-04  0.675E-02    2.49       1.0  T
   3    -46.7397642  0.174143E-04  0.350E-02    2.49       1.0  T
   4    -46.7397906 -0.263991E-04  0.301E-03    2.49       5.6  T
   5    -46.7397908 -0.216798E-06  0.111E-03    2.49      15.2  T
   6    -46.7397908 -0.121607E-07  0.637E-04    2.49      26.5  T
   7    -46.7397908 -0.320015E-08  0.278E-04    2.49      60.9  T
     SCC iter.                  ...        0 min,  0.032 sec
     gradient                   ...        0 min,  0.004 sec
 * total energy  :   -45.8962220 Eh     change       -0.2349055E-03 Eh
   gradient norm :     0.0051650 Eh/α   predicted    -0.1821064E-03 ( -22.48%)
   displ. norm   :     0.3569731 α      lambda       -0.2451148E-03
   maximum displ.:     0.2428098 α      in ANC's #5, #4, #3, ...

........................................................................
.............................. CYCLE   16 ..............................
........................................................................
   1    -46.7409718 -0.467410E+02  0.128E-01    2.50       0.0  T
   2    -46.7409848 -0.129664E-04  0.744E-02    2.50       1.0  T
   3    -46.7409616  0.231688E-04  0.356E-02    2.50       1.0  T
   4    -46.7409932 -0.316001E-04  0.273E-03    2.50       6.2  T
   5    -46.7409934 -0.144279E-06  0.123E-03    2.50      13.8  T
   6    -46.7409934 -0.926575E-08  0.649E-04    2.50      26.0  T
   7    -46.7409934 -0.528438E-08  0.260E-04    2.50      65.0  T
     SCC iter.                  ...        0 min,  0.032 sec
     gradient                   ...        0 min,  0.003 sec
 * total energy  :   -45.8963858 Eh     change       -0.1637860E-03 Eh
   gradient norm :     0.0058234 Eh/α   predicted    -0.1381793E-03 ( -15.63%)
   displ. norm   :     0.3501183 α      lambda       -0.1713518E-03
   maximum displ.:     0.2714686 α      in ANC's #5, #4, #3, ...

........................................................................
.............................. CYCLE   17 ..............................
........................................................................
   1    -46.7380951 -0.467381E+02  0.130E-01    2.49       0.0  T
   2    -46.7381064 -0.112181E-04  0.753E-02    2.48       1.0  T
   3    -46.7380848  0.215480E-04  0.314E-02    2.49       1.0  T
   4    -46.7381127 -0.279140E-04  0.242E-03    2.48       7.0  T
   5    -46.7381128 -0.122384E-06  0.117E-03    2.48      14.5  T
   6    -46.7381129 -0.158209E-07  0.576E-04    2.48      29.3  T
   7    -46.7381129 -0.101167E-08  0.327E-04    2.48      51.7  T
     SCC iter.                  ...        0 min,  0.032 sec
     gradient                   ...        0 min,  0.004 sec
 * total energy  :   -45.8964750 Eh     change       -0.8922434E-04 Eh
   gradient norm :     0.0056312 Eh/α   predicted    -0.9618049E-04 (   7.80%)
   displ. norm   :     0.1746994 α      lambda       -0.1464343E-03
   maximum displ.:     0.1095907 α      in ANC's #4, #6, #14, ...

........................................................................
.............................. CYCLE   18 ..............................
........................................................................
   1    -46.7411191 -0.467411E+02  0.507E-02    2.50       0.0  T
   2    -46.7411216 -0.244405E-05  0.296E-02    2.50       1.0  T
   3    -46.7411199  0.163733E-05  0.888E-03    2.50       1.9  T
   4    -46.7411218 -0.191063E-05  0.269E-03    2.50       6.3  T
   5    -46.7411220 -0.184046E-06  0.933E-04    2.50      18.1  T
   6    -46.7411220 -0.194933E-07  0.389E-04    2.50      43.4  T
     SCC iter.                  ...        0 min,  0.028 sec
     gradient                   ...        0 min,  0.003 sec
 * total energy  :   -45.8965661 Eh     change       -0.9114972E-04 Eh
   gradient norm :     0.0047796 Eh/α   predicted    -0.7545401E-04 ( -17.22%)
   displ. norm   :     0.1398685 α      lambda       -0.9412501E-04
   maximum displ.:     0.0716143 α      in ANC's #5, #4, #14, ...

........................................................................
.............................. CYCLE   19 ..............................
........................................................................
   1    -46.7413901 -0.467414E+02  0.454E-02    2.49       0.0  T
   2    -46.7413910 -0.882898E-06  0.265E-02    2.49       1.0  T
   3    -46.7413895  0.154422E-05  0.677E-03    2.49       2.5  T
   4    -46.7413913 -0.180882E-05  0.126E-03    2.49      13.5  T
   5    -46.7413913 -0.381839E-07  0.567E-04    2.49      29.8  T
   6    -46.7413913 -0.394302E-08  0.297E-04    2.49      57.0  T
     SCC iter.                  ...        0 min,  0.028 sec
     gradient                   ...        0 min,  0.004 sec
 * total energy  :   -45.8966215 Eh     change       -0.5535242E-04 Eh
   gradient norm :     0.0040633 Eh/α   predicted    -0.4798849E-04 ( -13.30%)
   displ. norm   :     0.1364938 α      lambda       -0.8079041E-04
   maximum displ.:     0.0670518 α      in ANC's #5, #14, #1, ...

........................................................................
.............................. CYCLE   20 ..............................
........................................................................
   1    -46.7408535 -0.467409E+02  0.437E-02    2.49       0.0  T
   2    -46.7408539 -0.447345E-06  0.256E-02    2.49       1.0  T
   3    -46.7408536  0.323282E-06  0.339E-03    2.49       5.0  T
   4    -46.7408540 -0.417138E-06  0.963E-04    2.49      17.5  T
   5    -46.7408540 -0.230275E-07  0.408E-04    2.49      41.5  T
     SCC iter.                  ...        0 min,  0.023 sec
     gradient                   ...        0 min,  0.003 sec
 * total energy  :   -45.8966618 Eh     change       -0.4030387E-04 Eh
   gradient norm :     0.0038685 Eh/α   predicted    -0.4114839E-04 (   2.10%)
   displ. norm   :     0.0615594 α      lambda       -0.4322453E-04
   maximum displ.:     0.0308523 α      in ANC's #1, #14, #5, ...
 * RMSD in coord.:     0.8126721 α      energy gain  -0.9317223E-02 Eh

generating ANC from model Hessian ...
Using Lindh-Hessian (1995)
 Shifting diagonal of input Hessian by    9.6590544937355839E-003
 Lowest  eigenvalues of input Hessian
    0.000000    0.000000    0.000000    0.000000    0.000000    0.000000
    0.010000    0.010362    0.010695    0.011445    0.012227    0.013651
    0.014936    0.016821    0.018630    0.021030    0.024200    0.024901
 Highest eigenvalues
    1.890508    1.917627    1.969346    2.012418    2.033957    2.114538


........................................................................
.............................. CYCLE   21 ..............................
........................................................................
   1    -46.7404046 -0.467404E+02  0.191E-02    2.49       0.0  T
   2    -46.7404048 -0.142316E-06  0.113E-02    2.49       1.5  T
   3    -46.7404042  0.567645E-06  0.455E-03    2.49       3.7  T
   4    -46.7404048 -0.640166E-06  0.579E-04    2.49      29.2  T
   5    -46.7404049 -0.879195E-08  0.235E-04    2.49      72.0  T
     SCC iter.                  ...        0 min,  0.024 sec
     gradient                   ...        0 min,  0.004 sec
 * total energy  :   -45.8966922 Eh     change       -0.3046341E-04 Eh
   gradient norm :     0.0030627 Eh/α   predicted     0.0000000E+00 (-100.00%)
   displ. norm   :     0.0374388 α      lambda       -0.3179969E-04
   maximum displ.:     0.0190621 α      in ANC's #6, #7, #10, ...

........................................................................
.............................. CYCLE   22 ..............................
........................................................................
   1    -46.7404677 -0.467405E+02  0.135E-02    2.49       0.0  T
   2    -46.7404679 -0.151283E-06  0.805E-03    2.49       2.1  T
   3    -46.7404675  0.356816E-06  0.344E-03    2.49       4.9  T
   4    -46.7404680 -0.440630E-06  0.337E-04    2.49      50.1  T
   5    -46.7404680 -0.254376E-08  0.149E-04    2.49     113.3  T
     SCC iter.                  ...        0 min,  0.024 sec
     gradient                   ...        0 min,  0.004 sec
 * total energy  :   -45.8967197 Eh     change       -0.2746148E-04 Eh
   gradient norm :     0.0015752 Eh/α   predicted    -0.1720930E-04 ( -37.33%)
   displ. norm   :     0.1361260 α      lambda       -0.4857160E-04
   maximum displ.:     0.0739781 α      in ANC's #6, #7, #10, ...

........................................................................
.............................. CYCLE   23 ..............................
........................................................................
   1    -46.7405388 -0.467405E+02  0.439E-02    2.49       0.0  T
   2    -46.7405397 -0.917557E-06  0.260E-02    2.49       1.0  T
   3    -46.7405371  0.260895E-05  0.854E-03    2.49       2.0  T
   4    -46.7405402 -0.307874E-05  0.106E-03    2.49      16.0  T
   5    -46.7405402 -0.240783E-07  0.533E-04    2.49      31.7  T
   6    -46.7405402 -0.336716E-08  0.291E-04    2.49      58.1  T
     SCC iter.                  ...        0 min,  0.028 sec
     gradient                   ...        0 min,  0.004 sec
 * total energy  :   -45.8967495 Eh     change       -0.2982956E-04 Eh
   gradient norm :     0.0027636 Eh/α   predicted    -0.2448661E-04 ( -17.91%)
   displ. norm   :     0.0176410 α      lambda       -0.1183364E-04
   maximum displ.:     0.0072302 α      in ANC's #5, #1, #2, ...

........................................................................
.............................. CYCLE   24 ..............................
........................................................................
   1    -46.7406629 -0.467407E+02  0.754E-03    2.49       0.0  T
   2    -46.7406629 -0.383171E-07  0.441E-03    2.49       3.8  T
   3    -46.7406628  0.907648E-07  0.188E-03    2.49       9.0  T
   4    -46.7406629 -0.108479E-06  0.255E-04    2.49      66.3  T
   5    -46.7406629 -0.126654E-08  0.121E-04    2.49     139.7  T
     SCC iter.                  ...        0 min,  0.024 sec
     gradient                   ...        0 min,  0.004 sec
 * total energy  :   -45.8967596 Eh     change       -0.1001437E-04 Eh
   gradient norm :     0.0017489 Eh/α   predicted    -0.5920028E-05 ( -40.88%)
   displ. norm   :     0.1053227 α      lambda       -0.2402682E-04
   maximum displ.:     0.0432051 α      in ANC's #2, #5, #1, ...

........................................................................
.............................. CYCLE   25 ..............................
........................................................................
   1    -46.7408043 -0.467408E+02  0.416E-02    2.48       0.0  T
   2    -46.7408048 -0.530489E-06  0.243E-02    2.49       1.0  T
   3    -46.7408031  0.169432E-05  0.750E-03    2.49       2.3  T
   4    -46.7408051 -0.193750E-05  0.103E-03    2.49      16.4  T
   5    -46.7408051 -0.233866E-07  0.444E-04    2.49      38.1  T
   6    -46.7408051 -0.397898E-08  0.218E-04    2.49      77.5  T
     SCC iter.                  ...        0 min,  0.029 sec
     gradient                   ...        0 min,  0.004 sec
 * total energy  :   -45.8967739 Eh     change       -0.1438535E-04 Eh
   gradient norm :     0.0017200 Eh/α   predicted    -0.1207350E-04 ( -16.07%)
   displ. norm   :     0.0250454 α      lambda       -0.4785115E-05
   maximum displ.:     0.0124079 α      in ANC's #2, #4, #1, ...

........................................................................
.............................. CYCLE   26 ..............................
........................................................................
   1    -46.7407135 -0.467407E+02  0.106E-02    2.49       0.0  T
   2    -46.7407136 -0.373352E-07  0.627E-03    2.49       2.7  T
   3    -46.7407134  0.133771E-06  0.200E-03    2.49       8.4  T
   4    -46.7407136 -0.156731E-06  0.168E-04    2.49     100.6  T
   5    -46.7407136 -0.403524E-09  0.888E-05    2.49     190.3  T
     SCC iter.                  ...        0 min,  0.024 sec
     gradient                   ...        0 min,  0.003 sec
 * total energy  :   -45.8967796 Eh     change       -0.5619992E-05 Eh
   gradient norm :     0.0007520 Eh/α   predicted    -0.2396080E-05 ( -57.37%)
   displ. norm   :     0.0619764 α      lambda       -0.6281292E-05
   maximum displ.:     0.0333554 α      in ANC's #2, #4, #1, ...

........................................................................
.............................. CYCLE   27 ..............................
........................................................................
   1    -46.7405910 -0.467406E+02  0.261E-02    2.49       0.0  T
   2    -46.7405911 -0.103213E-06  0.154E-02    2.49       1.1  T
   3    -46.7405907  0.421412E-06  0.354E-03    2.49       4.8  T
   4    -46.7405912 -0.489853E-06  0.302E-04    2.49      56.1  T
   5    -46.7405912 -0.108596E-08  0.179E-04    2.49      94.2  T
     SCC iter.                  ...        0 min,  0.024 sec
     gradient                   ...        0 min,  0.003 sec
 * total energy  :   -45.8967865 Eh     change       -0.6897442E-05 Eh
   gradient norm :     0.0004468 Eh/α   predicted    -0.3146855E-05 ( -54.38%)
   displ. norm   :     0.0757908 α      lambda       -0.5143662E-05
   maximum displ.:     0.0426188 α      in ANC's #2, #4, #1, ...

........................................................................
.............................. CYCLE   28 ..............................
........................................................................
   1    -46.7404810 -0.467405E+02  0.313E-02    2.48       0.0  T
   2    -46.7404811 -0.961988E-07  0.184E-02    2.48       1.0  T
   3    -46.7404808  0.360801E-06  0.331E-03    2.48       5.1  T
   4    -46.7404812 -0.424320E-06  0.301E-04    2.48      56.1  T
   5    -46.7404812 -0.587171E-09  0.177E-04    2.48      95.3  T
     SCC iter.                  ...        0 min,  0.024 sec
     gradient                   ...        0 min,  0.004 sec
 * total energy  :   -45.8967928 Eh     change       -0.6311118E-05 Eh
   gradient norm :     0.0008941 Eh/α   predicted    -0.2578737E-05 ( -59.14%)
   displ. norm   :     0.1060273 α      lambda       -0.6686490E-05
   maximum displ.:     0.0608817 α      in ANC's #2, #4, #1, ...

........................................................................
.............................. CYCLE   29 ..............................
........................................................................
   1    -46.7404032 -0.467404E+02  0.429E-02    2.48       0.0  T
   2    -46.7404034 -0.146884E-06  0.252E-02    2.48       1.0  T
   3    -46.7404029  0.462153E-06  0.381E-03    2.48       4.4  T
   4    -46.7404035 -0.552479E-06  0.398E-04    2.48      42.5  T
   5    -46.7404035 -0.663036E-09  0.238E-04    2.48      70.9  T
     SCC iter.                  ...        0 min,  0.024 sec
     gradient                   ...        0 min,  0.003 sec
 * total energy  :   -45.8968008 Eh     change       -0.8046131E-05 Eh
   gradient norm :     0.0008970 Eh/α   predicted    -0.3360540E-05 ( -58.23%)
   displ. norm   :     0.1137324 α      lambda       -0.6048903E-05
   maximum displ.:     0.0690333 α      in ANC's #2, #1, #4, ...

........................................................................
.............................. CYCLE   30 ..............................
........................................................................
   1    -46.7404123 -0.467404E+02  0.455E-02    2.48       0.0  T
   2    -46.7404124 -0.122021E-06  0.267E-02    2.48       1.0  T
   3    -46.7404121  0.278425E-06  0.299E-03    2.48       5.7  T
   4    -46.7404125 -0.346714E-06  0.399E-04    2.48      42.4  T
   5    -46.7404125 -0.332022E-09  0.226E-04    2.48      74.9  T
     SCC iter.                  ...        0 min,  0.024 sec
     gradient                   ...        0 min,  0.003 sec
 * total energy  :   -45.8968076 Eh     change       -0.6785758E-05 Eh
   gradient norm :     0.0004657 Eh/α   predicted    -0.3042247E-05 ( -55.17%)
   displ. norm   :     0.0661159 α      lambda       -0.2942543E-05
   maximum displ.:     0.0450862 α      in ANC's #2, #1, #4, ...

........................................................................
.............................. CYCLE   31 ..............................
........................................................................
   1    -46.7405811 -0.467406E+02  0.261E-02    2.48       0.0  T
   2    -46.7405811 -0.247773E-07  0.153E-02    2.48       1.1  T
   3    -46.7405811  0.191263E-07  0.923E-04    2.48      18.3  T
   4    -46.7405811 -0.316079E-07  0.215E-04    2.48      78.5  T
     SCC iter.                  ...        0 min,  0.019 sec
     gradient                   ...        0 min,  0.003 sec
 * total energy  :   -45.8968113 Eh     change       -0.3681981E-05 Eh
   gradient norm :     0.0001971 Eh/α   predicted    -0.1475915E-05 ( -59.92%)
   displ. norm   :     0.0400141 α      lambda       -0.2268819E-05
   maximum displ.:     0.0306485 α      in ANC's #2, #1, #3, ...

   *** GEOMETRY OPTIMIZATION CONVERGED AFTER 31 ITERATIONS ***

------------------------------------------------------------------------
 total energy gain   :        -0.0094667 Eh       -5.9405 kcal/mol
 total RMSD          :         0.8527841 a0        0.4513 Å
 total power (kW/mol):        -0.8017700 (step)  -22.0564 (real)
------------------------------------------------------------------------

 ANCopt (total)                0 d,  0 h,  0 min,  1.127 sec
 optimizer setup                ...        0 min,  0.000 sec (  0.013%)
 model hessian                  ...        0 min,  0.021 sec (  1.894%)
 ANC generation                 ...        0 min,  0.008 sec (  0.749%)
 coordinate transformation      ...        0 min,  0.002 sec (  0.136%)
 single point calculation       ...        0 min,  1.080 sec ( 95.866%)
 optimization log               ...        0 min,  0.004 sec (  0.312%)
 hessian update                 ...        0 min,  0.001 sec (  0.123%)
 rational function              ...        0 min,  0.004 sec (  0.375%)

================
 final structure:
================
35
 xtb: 6.5.1 (fef0646)
N            3.11976869226934        1.58095780161100        2.45491551765534
C            2.42984595260581        0.81558979326762        1.37570347503990
C            2.86046452608065        1.41339172085101        0.03308279902700
C            4.36473146565173        1.38620051027914       -0.04077617792633
C            5.03667720811797        0.27923565319352       -0.54906433661205
C            6.41367264056906        0.21879313569212       -0.53531531201624
C            7.18227704549140        1.25875362838929        0.00462516428068
C            8.62814248505047        1.24729472188420        0.03866696748521
C            9.42297187100022        0.40645407034230       -0.64357455987690
C           10.87106918121037        0.39902754901487       -0.63384312368998
C           11.63307130935184        1.10944885722600        0.29896147939959
C           13.01216417695819        1.06701729172711        0.25941771213352
C           13.66292374229552        0.32067367183787       -0.71110353702521
C           12.92297150591767       -0.39281513566431       -1.64044876199715
C           11.54349122244406       -0.35920012324612       -1.59849350550975
C            6.50000321059890        2.36323264386285        0.52566000326705
C            5.11789922827156        2.42949228004603        0.50686068287215
H            3.19499855682330        1.05562325898719        3.33034261401665
H            2.63951258834568        2.46859985307030        2.63790578680105
H            4.07918530477586        1.80109348238966        2.05454830865441
H            1.35026558747023        0.86172284699203        1.51513445568411
H            2.75325120726574       -0.22448412629172        1.43336854511536
H            2.48648508515524        2.43432782914942       -0.05945770831389
H            2.42638567509013        0.82245847670938       -0.77151205760000
H            4.46970366222774       -0.53605329205018       -0.97333998119989
H            6.90202606346597       -0.65105847425679       -0.94309810879906
H            9.07157832385172        2.02434023941745        0.64588221681428
H            8.97755059313307       -0.32818912133314       -1.30215516367386
H           11.14475226683301        1.68595443433211        1.06973155948686
H           13.58622802038708        1.61735514540833        0.98983819442368
H           14.74136725121579        0.29256933991150       -0.73946841627451
H           13.42420897983665       -0.97788787477645       -2.39666013085898
H           10.97149317851822       -0.91696209517625       -2.32650540767454
H            7.06407313735199        3.18985986591789        0.93124787553043
H            4.63685905436765        3.34973214128449        0.81961293136167

 Bond Distances (Angstroems)
 ---------------------------
N1-C2=1.4921         N1-H18=1.0237        N1-H19=1.0257        N1-H20=1.0627        C2-N1=1.4921         C2-C3=1.5315         
C2-H21=1.0895        C2-H22=1.0907        C3-C2=1.5315         C3-C4=1.5063         C3-H23=1.0912        C3-H24=1.0886        
C4-C3=1.5063         C4-C5=1.3911         C4-C17=1.3984        C5-C4=1.3911         C5-C6=1.3784         C5-H25=1.0799        
C6-C5=1.3784         C6-C7=1.4014         C6-H26=1.0777        C7-C6=1.4014         C7-C8=1.4463         C7-C16=1.3989        
C8-C7=1.4463         C8-C9=1.3432         C8-H27=1.0813        C9-C8=1.3432         C9-C10=1.4481        C9-H28=1.0825        
C10-C9=1.4481        C10-C11=1.3984       C10-C15=1.3991       C11-C10=1.3984       C11-C12=1.3803       C11-H29=1.0793       
C12-C11=1.3803       C12-C13=1.3865       C12-H30=1.0798       C13-C12=1.3865       C13-C14=1.3857       C13-H31=1.0792       
C14-C13=1.3857       C14-C15=1.3805       C14-H32=1.0795       C15-C10=1.3991       C15-C14=1.3805       C15-H33=1.0809       
C16-C7=1.3989        C16-C17=1.3838       C16-H34=1.0798       C17-C4=1.3984        C17-C16=1.3838       C17-H35=1.0845       
H18-N1=1.0237        H19-N1=1.0257        H20-N1=1.0627        H21-C2=1.0895        H22-C2=1.0907        H23-C3=1.0912        
H24-C3=1.0886        H25-C5=1.0799        H26-C6=1.0777        H27-C8=1.0813        H28-C9=1.0825        H29-C11=1.0793       
H30-C12=1.0798       H31-C13=1.0792       H32-C14=1.0795       H33-C15=1.0809       H34-C16=1.0798       H35-C17=1.0845       
 C  H  Rav=1.0830 sigma=0.0045  Rmin=1.0777  Rmax=1.0912    15
 C  C  Rav=1.4093 sigma=0.0465  Rmin=1.3432  Rmax=1.5315    17
 N  H  Rav=1.0374 sigma=0.0179  Rmin=1.0237  Rmax=1.0627     3
 N  C  Rav=1.4921 sigma=0.0000  Rmin=1.4921  Rmax=1.4921     1

 selected bond angles (degree)
 --------------------
H18-N1-C2=112.91               H19-N1-C2=110.88               H19-N1-H18=109.02              H20-N1-C2=104.55               
H20-N1-H18=111.23              H20-N1-H19=108.10              C3-C2-N1=107.69                H21-C2-N1=110.11               
H21-C2-C3=111.98               H22-C2-N1=108.29               H22-C2-C3=109.58               H22-C2-H21=109.11              
C4-C3-C2=108.47                H23-C3-C2=110.07               H23-C3-C4=110.79               H24-C3-C2=108.90               
H24-C3-C4=110.62               H24-C3-H23=107.97              C5-C4-C3=120.97                C17-C4-C3=120.34               
C17-C4-C5=118.46               C6-C5-C4=120.92                H25-C5-C4=119.39               H25-C5-C6=119.69               
C7-C6-C5=121.28                H26-C6-C5=118.97               H26-C6-C7=119.75               C8-C7-C6=123.47                
C16-C7-C6=117.51               C16-C7-C8=119.02               C9-C8-C7=125.77                H27-C8-C7=114.68               
H27-C8-C9=119.50               C10-C9-C8=126.26               H28-C9-C8=119.36               H28-C9-C10=114.33              
C11-C10-C9=123.15              C15-C10-C9=118.60              C15-C10-C11=118.25             

 selected dihedral angles (degree)
 ---------------------------------
C3-C2-N1-H18=202.45           C3-C2-N1-H19= 79.77           C3-C2-N1-H20=323.51           H21-C2-N1-H18= 80.10          
H21-C2-N1-H19=317.42          H21-C2-N1-H20=201.15          H22-C2-N1-H18=320.87          H22-C2-N1-H19=198.19          
H22-C2-N1-H20= 81.93          C4-C3-C2-N1= 55.39            C4-C3-C2-H21=176.59           C4-C3-C2-H22=297.81           
H23-C3-C2-N1=294.03           H23-C3-C2-H21= 55.22          H23-C3-C2-H22=176.44          H24-C3-C2-N1=175.84           
H24-C3-C2-H21=297.04          H24-C3-C2-H22= 58.26          C5-C4-C3-C2= 88.77            C5-C4-C3-H23=209.69           
C5-C4-C3-H24=329.39           C17-C4-C3-C2=274.25           C17-C4-C3-H23= 35.17          C17-C4-C3-H24=154.87          
C6-C5-C4-C3=184.30            C6-C5-C4-C17=358.92           H25-C5-C4-C3=  5.24           H25-C5-C4-C17=179.86          
C7-C6-C5-C4=  0.82            C7-C6-C5-H25=179.88           H26-C6-C5-C4=180.39           H26-C6-C5-H25=359.45          
C8-C7-C6-C5=180.26            C8-C7-C6-H26=  0.70           C16-C7-C6-C5=359.80           C16-C7-C6-H26=180.23          
C9-C8-C7-C6= 13.51            C9-C8-C7-C16=193.98           H27-C8-C7-C6=190.88           H27-C8-C7-C16= 11.35          
C10-C9-C8-C7=178.96           C10-C9-C8-H27=  1.70          H28-C9-C8-C7=  1.31           H28-C9-C8-H27=184.05          
C11-C10-C9-C8= 12.99          C11-C10-C9-H28=190.75         C15-C10-C9-C8=192.68          C15-C10-C9-H28= 10.43         
           -------------------------------------------------
          |                Final Singlepoint                |
           -------------------------------------------------

          ...................................................
          :                      SETUP                      :
          :.................................................:
          :  # basis functions                  86          :
          :  # atomic orbitals                  86          :
          :  # shells                           52          :
          :  # electrons                        86          :
          :  max. iterations                   250          :
          :  Hamiltonian                  GFN2-xTB          :
          :  restarted?                      false          :
          :  GBSA solvation                  false          :
          :  PC potential                    false          :
          :  electronic temp.          300.0000000     K    :
          :  accuracy                    1.0000000          :
          :  -> integral cutoff          0.2500000E+02      :
          :  -> integral neglect         0.1000000E-07      :
          :  -> SCF convergence          0.1000000E-05 Eh   :
          :  -> wf. convergence          0.1000000E-03 e    :
          :  Broyden damping             0.4000000          :
          ...................................................

 iter      E             dE          RMSdq      gap      omega  full diag
   1    -46.7405811 -0.467406E+02  0.126E-04    2.48       0.0  T
   2    -46.7405811 -0.890950E-10  0.909E-05    2.48     185.9  T
   3    -46.7405811 -0.205389E-09  0.442E-05    2.48     382.7  T

   *** convergence criteria satisfied after 3 iterations ***

         #    Occupation            Energy/Eh            Energy/eV
      -------------------------------------------------------------
         1        2.0000           -0.8755061             -23.8237
       ...           ...                  ...                  ...
        37        2.0000           -0.5261573             -14.3175
        38        2.0000           -0.5220483             -14.2057
        39        2.0000           -0.5036234             -13.7043
        40        2.0000           -0.4961935             -13.5021
        41        2.0000           -0.4897975             -13.3281
        42        2.0000           -0.4756149             -12.9421
        43        2.0000           -0.4590111             -12.4903 (HOMO)
        44                         -0.3678364             -10.0093 (LUMO)
        45                         -0.3472756              -9.4499
        46                         -0.3092289              -8.4145
        47                         -0.2925731              -7.9613
        48                         -0.2547160              -6.9312
       ...                                ...                  ...
        86                          0.6129460              16.6791
      -------------------------------------------------------------
                  HL-Gap            0.0911747 Eh            2.4810 eV
             Fermi-level           -0.4134238 Eh          -11.2498 eV

 SCC (total)                   0 d,  0 h,  0 min,  0.022 sec
 SCC setup                      ...        0 min,  0.000 sec (  0.448%)
 Dispersion                     ...        0 min,  0.000 sec (  1.706%)
 classical contributions        ...        0 min,  0.000 sec (  0.190%)
 integral evaluation            ...        0 min,  0.001 sec (  5.932%)
 iterations                     ...        0 min,  0.015 sec ( 68.567%)
 molecular gradient             ...        0 min,  0.004 sec ( 20.042%)
 printout                       ...        0 min,  0.001 sec (  2.383%)

         :::::::::::::::::::::::::::::::::::::::::::::::::::::
         ::                     SUMMARY                     ::
         :::::::::::::::::::::::::::::::::::::::::::::::::::::
         :: total energy             -45.896811278814 Eh    ::
         :: gradient norm              0.000197026679 Eh/a0 ::
         :: HOMO-LUMO gap              2.480989759584 eV    ::
         ::.................................................::
         :: SCC energy               -46.740581110454 Eh    ::
         :: -> isotropic ES            0.097083993251 Eh    ::
         :: -> anisotropic ES         -0.011066773270 Eh    ::
         :: -> anisotropic XC          0.032357624818 Eh    ::
         :: -> dispersion             -0.031690451532 Eh    ::
         :: repulsion energy           0.844048371525 Eh    ::
         :: add. restraining           0.000000000000 Eh    ::
         :: total charge               1.000000000000 e     ::
         :::::::::::::::::::::::::::::::::::::::::::::::::::::

           -------------------------------------------------
          |                Property Printout                |
           -------------------------------------------------

    * Orbital Energies and Occupations

         #    Occupation            Energy/Eh            Energy/eV
      -------------------------------------------------------------
         1        2.0000           -0.8755061             -23.8237
       ...           ...                  ...                  ...
        31        2.0000           -0.5588402             -15.2068
        32        2.0000           -0.5554130             -15.1136
        33        2.0000           -0.5473615             -14.8945
        34        2.0000           -0.5441124             -14.8061
        35        2.0000           -0.5393207             -14.6757
        36        2.0000           -0.5364286             -14.5970
        37        2.0000           -0.5261573             -14.3175
        38        2.0000           -0.5220483             -14.2057
        39        2.0000           -0.5036234             -13.7043
        40        2.0000           -0.4961935             -13.5021
        41        2.0000           -0.4897975             -13.3281
        42        2.0000           -0.4756149             -12.9421
        43        2.0000           -0.4590111             -12.4903 (HOMO)
        44                         -0.3678364             -10.0093 (LUMO)
        45                         -0.3472756              -9.4499
        46                         -0.3092289              -8.4145
        47                         -0.2925731              -7.9613
        48                         -0.2547160              -6.9312
        49                         -0.2366571              -6.4398
        50                         -0.1979867              -5.3875
        51                         -0.1500772              -4.0838
        52                         -0.1354576              -3.6860
        53                         -0.0817606              -2.2248
        54                         -0.0741100              -2.0166
       ...                                ...                  ...
        86                          0.6129460              16.6791
      -------------------------------------------------------------
                  HL-Gap            0.0911747 Eh            2.4810 eV
             Fermi-level           -0.4134238 Eh          -11.2498 eV

     #   Z          covCN         q      C6AA      α(0)
     1   7 N        3.482    -0.146    24.148     7.298
     2   6 C        3.735    -0.028    21.165     6.566
     3   6 C        3.809    -0.090    22.208     6.708
     4   6 C        2.972    -0.015    28.373     8.737
     5   6 C        2.919    -0.039    28.981     8.828
     6   6 C        2.922    -0.030    28.753     8.793
     7   6 C        2.969     0.024    27.458     8.595
     8   6 C        2.901    -0.050    29.249     8.868
     9   6 C        2.903    -0.023    28.576     8.765
    10   6 C        2.971     0.013    27.724     8.637
    11   6 C        2.923    -0.029    28.731     8.790
    12   6 C        2.917    -0.026    28.640     8.776
    13   6 C        2.920    -0.021    28.526     8.758
    14   6 C        2.916    -0.025    28.623     8.773
    15   6 C        2.928    -0.029    28.717     8.788
    16   6 C        2.926    -0.038    28.956     8.825
    17   6 C        2.918    -0.069    29.721     8.940
    18   1 H        0.859     0.257     0.857     1.450
    19   1 H        0.859     0.260     0.847     1.442
    20   1 H        0.855     0.280     0.778     1.382
    21   1 H        0.925     0.099     1.791     2.093
    22   1 H        0.924     0.101     1.774     2.083
    23   1 H        0.924     0.067     2.116     2.275
    24   1 H        0.925     0.090     1.878     2.143
    25   1 H        0.926     0.044     2.391     2.418
    26   1 H        0.926     0.054     2.265     2.354
    27   1 H        0.925     0.044     2.397     2.421
    28   1 H        0.925     0.045     2.384     2.415
    29   1 H        0.926     0.035     2.518     2.481
    30   1 H        0.926     0.042     2.421     2.433
    31   1 H        0.926     0.046     2.369     2.407
    32   1 H        0.926     0.044     2.393     2.419
    33   1 H        0.926     0.038     2.479     2.462
    34   1 H        0.926     0.046     2.373     2.409
    35   1 H        0.925     0.028     2.612     2.527

 Mol. C6AA /au·bohr⁶  :      13085.013312
 Mol. C8AA /au·bohr⁸  :     317804.341212
 Mol. α(0) /au        :        183.058653


Wiberg/Mayer (AO) data.
largest (>0.10) Wiberg bond orders for each atom

 ---------------------------------------------------------------------------
     #   Z sym  total        # sym  WBO       # sym  WBO       # sym  WBO
 ---------------------------------------------------------------------------
     1   7 N    3.662 --     2 C    0.936    18 H    0.920    19 H    0.918
                            20 H    0.821
     2   6 C    3.899 --     3 C    0.992    22 H    0.969    21 H    0.969
                             1 N    0.936
     3   6 C    3.979 --     4 C    1.006     2 C    0.992    23 H    0.969
                            24 H    0.961
     4   6 C    3.969 --     5 C    1.391    17 C    1.366     3 C    1.006
     5   6 C    3.990 --     6 C    1.478     4 C    1.391    25 H    0.968
     6   6 C    3.980 --     5 C    1.478     7 C    1.344    26 H    0.964
     7   6 C    3.985 --    16 C    1.361     6 C    1.344     8 C    1.128
     8   6 C    3.988 --     9 C    1.736     7 C    1.128    27 H    0.958
     9   6 C    3.985 --     8 C    1.736    10 C    1.124    28 H    0.958
    10   6 C    3.988 --    15 C    1.358    11 C    1.357     9 C    1.124
    11   6 C    3.982 --    12 C    1.468    10 C    1.357    29 H    0.966
                            14 C    0.103
    12   6 C    3.991 --    11 C    1.468    13 C    1.423    30 H    0.970
                            15 C    0.102
    13   6 C    3.976 --    14 C    1.428    12 C    1.423    31 H    0.971
    14   6 C    3.991 --    15 C    1.463    13 C    1.428    32 H    0.970
                            11 C    0.103
    15   6 C    3.980 --    14 C    1.463    10 C    1.358    33 H    0.968
                            12 C    0.102
    16   6 C    3.980 --    17 C    1.444     7 C    1.361    34 H    0.968
    17   6 C    3.988 --    16 C    1.444     4 C    1.366    35 H    0.958
    18   1 H    0.934 --     1 N    0.920
    19   1 H    0.932 --     1 N    0.918
    20   1 H    0.922 --     1 N    0.821
    21   1 H    0.989 --     2 C    0.969
    22   1 H    0.990 --     2 C    0.969
    23   1 H    0.995 --     3 C    0.969
    24   1 H    0.991 --     3 C    0.961
    25   1 H    0.998 --     5 C    0.968
    26   1 H    0.997 --     6 C    0.964
    27   1 H    0.998 --     8 C    0.958
    28   1 H    0.998 --     9 C    0.958
    29   1 H    0.999 --    11 C    0.966
    30   1 H    0.998 --    12 C    0.970
    31   1 H    0.997 --    13 C    0.971
    32   1 H    0.998 --    14 C    0.970
    33   1 H    0.999 --    15 C    0.968
    34   1 H    0.998 --    16 C    0.968
    35   1 H    0.999 --    17 C    0.958
 ---------------------------------------------------------------------------

Topologies differ in total number of bonds
Writing topology from bond orders to xtbtopo.mol

molecular dipole:
                 x           y           z       tot (Debye)
 q only:        7.825       2.409       3.407
   full:        7.793       2.519       3.566      22.706
molecular quadrupole (traceless):
                xx          xy          yy          xz          yz          zz
 q only:       82.843      22.282     -48.715      25.616      18.972     -34.128
  q+dip:       83.986      22.756     -48.043      26.178      25.951     -35.943
   full:       81.278      23.142     -47.825      26.275      21.854     -33.454

           -------------------------------------------------
          |                Geometry Summary                 |
           -------------------------------------------------

      molecular mass/u    :      224.3214111
   center of mass at/Å    :        7.7979323       0.9270479       0.0026589
  moments of inertia/u·Å² :        0.2742084E+03   0.3413069E+04   0.3566056E+04
rotational constants/cm⁻¹ :        0.6147744E-01   0.4939142E-02   0.4727248E-02

 * 33 selected distances

     #   Z          #   Z                                           value/Å
     1   7 N        2   6 C                                       1.4921396
     2   6 C        3   6 C                                       1.5314797 (max)
     4   6 C        5   6 C                                       1.3911289
     5   6 C        6   6 C                                       1.3783900
     6   6 C        7   6 C                                       1.4013589
     8   6 C        9   6 C                                       1.3432128
    10   6 C       11   6 C                                       1.3983814
    11   6 C       12   6 C                                       1.3803122
    12   6 C       13   6 C                                       1.3865167
    13   6 C       14   6 C                                       1.3857411
    10   6 C       15   6 C                                       1.3991466
    14   6 C       15   6 C                                       1.3805276
     7   6 C       16   6 C                                       1.3988742
     4   6 C       17   6 C                                       1.3984369
    16   6 C       17   6 C                                       1.3838192
     1   7 N       18   1 H                                       1.0237230 (min)
     1   7 N       19   1 H                                       1.0256900
     1   7 N       20   1 H                                       1.0626543
     2   6 C       21   1 H                                       1.0895243
     2   6 C       22   1 H                                       1.0907200
     3   6 C       23   1 H                                       1.0912081
     3   6 C       24   1 H                                       1.0885769
     5   6 C       25   1 H                                       1.0798912
     6   6 C       26   1 H                                       1.0776910
     8   6 C       27   1 H                                       1.0812704
     9   6 C       28   1 H                                       1.0825107
    11   6 C       29   1 H                                       1.0793057
    12   6 C       30   1 H                                       1.0797849
    13   6 C       31   1 H                                       1.0791826
    14   6 C       32   1 H                                       1.0795392
    15   6 C       33   1 H                                       1.0808708
    16   6 C       34   1 H                                       1.0798098
    17   6 C       35   1 H                                       1.0844608

 * 4 distinct bonds (by element types)

   Z      Z             #   av. dist./Å        max./Å        min./Å
   1 H    6 C          15     1.0829564     1.0912081     1.0776910
   6 C    6 C          14     1.3969519     1.5314797     1.3432128
   1 H    7 N           3     1.0373557     1.0626543     1.0237230
   6 C    7 N           1     1.4921396     1.4921396     1.4921396


optimized geometry written to: xtbopt.xyz


           -------------------------------------------------
          | TOTAL ENERGY              -45.896811278814 Eh   |
          | GRADIENT NORM               0.000197026679 Eh/α |
          | HOMO-LUMO GAP               2.480989759584 eV   |
           -------------------------------------------------

------------------------------------------------------------------------
 * finished run on 2023/01/23 at 13:54:39.833     
------------------------------------------------------------------------
 total:
 * wall-time:     0 d,  0 h,  0 min,  1.243 sec
 *  cpu-time:     0 d,  0 h,  2 min, 14.914 sec
 * ratio c/w:   108.532 speedup
 SCF:
 * wall-time:     0 d,  0 h,  0 min,  0.075 sec
 *  cpu-time:     0 d,  0 h,  0 min, 10.652 sec
 * ratio c/w:   142.068 speedup
 ANC optimizer:
 * wall-time:     0 d,  0 h,  0 min,  1.149 sec
 *  cpu-time:     0 d,  0 h,  2 min,  1.888 sec
 * ratio c/w:   106.041 speedup

