35
 energy: -45.896811278814 gnorm: 0.000197026679 xtb: 6.5.1 (fef0646)
N            3.11976869226934        1.58095780161100        2.45491551765534
C            2.42984595260581        0.81558979326762        1.37570347503990
C            2.86046452608065        1.41339172085101        0.03308279902700
C            4.36473146565173        1.38620051027914       -0.04077617792633
C            5.03667720811797        0.27923565319352       -0.54906433661205
C            6.41367264056906        0.21879313569212       -0.53531531201624
C            7.18227704549140        1.25875362838929        0.00462516428068
C            8.62814248505047        1.24729472188420        0.03866696748521
C            9.42297187100022        0.40645407034230       -0.64357455987690
C           10.87106918121037        0.39902754901487       -0.63384312368998
C           11.63307130935184        1.10944885722600        0.29896147939959
C           13.01216417695819        1.06701729172711        0.25941771213352
C           13.66292374229552        0.32067367183787       -0.71110353702521
C           12.92297150591767       -0.39281513566431       -1.64044876199715
C           11.54349122244406       -0.35920012324612       -1.59849350550975
C            6.50000321059890        2.36323264386285        0.52566000326705
C            5.11789922827156        2.42949228004603        0.50686068287215
H            3.19499855682330        1.05562325898719        3.33034261401665
H            2.63951258834568        2.46859985307030        2.63790578680105
H            4.07918530477586        1.80109348238966        2.05454830865441
H            1.35026558747023        0.86172284699203        1.51513445568411
H            2.75325120726574       -0.22448412629172        1.43336854511536
H            2.48648508515524        2.43432782914942       -0.05945770831389
H            2.42638567509013        0.82245847670938       -0.77151205760000
H            4.46970366222774       -0.53605329205018       -0.97333998119989
H            6.90202606346597       -0.65105847425679       -0.94309810879906
H            9.07157832385172        2.02434023941745        0.64588221681428
H            8.97755059313307       -0.32818912133314       -1.30215516367386
H           11.14475226683301        1.68595443433211        1.06973155948686
H           13.58622802038708        1.61735514540833        0.98983819442368
H           14.74136725121579        0.29256933991150       -0.73946841627451
H           13.42420897983665       -0.97788787477645       -2.39666013085898
H           10.97149317851822       -0.91696209517625       -2.32650540767454
H            7.06407313735199        3.18985986591789        0.93124787553043
H            4.63685905436765        3.34973214128449        0.81961293136167
