17
 energy: -20.855020679530 gnorm: 0.000186024947 xtb: 6.5.1 (fef0646)
N            0.93688166615523        0.04582881888867       -0.07273785280620
C            2.41905745423335        0.02966175096812       -0.08491862990562
C            2.93708508496670       -0.76957516662468       -1.27717878139727
C            4.46755560654625       -0.77370357657638       -1.28878832979869
C            4.98503689839138       -1.57044287535652       -2.47333074179066
Br           6.98634193337928       -1.59110458860632       -2.51434350710806
H            0.58759064777162        0.57949825458203        0.73164684095730
H            0.57108031044936       -0.91209859997530       -0.01519777862196
H            0.57783753207198        0.47679357789656       -0.93314761137746
H            2.78049439237670       -0.41694451674134        0.84113763694339
H            2.78863938909325        1.05340603585464       -0.14069861635796
H            2.58226524641825       -0.33114181470357       -2.21029595992831
H            2.58527291581839       -1.80026427871084       -1.22384759824454
H            4.85094981562403       -1.21479134282374       -0.36734768841841
H            4.84707637952635        0.24735699810492       -1.35261188681110
H            4.68403512732076       -1.13742786758949       -3.42548590786211
H            4.68911959985713       -2.61693080858675       -2.42821358747235
