 Entering Gaussian System
 *********************************************
 Gaussian 98:
 frequency output generated by the xtb code
 *********************************************
                         Standard orientation:
 --------------------------------------------------------------------
  Center     Atomic     Atomic              Coordinates (Angstroms)
  Number     Number      Type              X           Y           Z
 --------------------------------------------------------------------
    1          7             0       -7.615059    2.098140    0.187863
    2          6             0       -8.166856    1.544641   -1.077544
    3          6             0       -7.615725    0.151218   -1.365774
    4          6             0       -6.128855    0.125520   -1.406699
    5          6             0       -5.368817    0.402094   -2.498342
    6          6             0       -3.973067    0.321447   -2.256497
    7          6             0       -3.658404   -0.016593   -0.970617
    8          6             0       -2.325463   -0.170979   -0.447552
    9          6             0       -2.009890   -0.499098    0.842798
   10          6             0       -0.618269   -0.594965    1.107343
   11          6             0       -0.103707   -1.000795    2.443802
   12          6             0        0.161398   -0.306951    0.001480
   13          6             0        1.612468   -0.277969   -0.116405
   14          6             0        2.210802   -0.605164   -1.321807
   15          6             0        3.595132   -0.599492   -1.510122
   16          6             0        4.486587   -0.236994   -0.515945
   17          6             0        5.921856   -0.265572   -0.777210
   18          6             0        6.903063    0.574513   -0.292585
   19          6             0        6.670052    1.749216    0.592284
   20          6             0        8.208709    0.219406   -0.748699
   21          6             0        8.230261   -0.846126   -1.581617
   22         16             0        6.641507   -1.450038   -1.837061
   23          6             0        3.934124    0.123251    0.764096
   24          7             0        4.593199    0.464089    1.853033
   25         16             0        3.503495    0.814167    3.029417
   26          7             0        2.137630    0.511883    2.170212
   27          6             0        2.483834    0.112559    0.963871
   28         16             0       -0.867935    0.025932   -1.364987
   29         16             0       -5.115622   -0.237583   -0.041952
   30         17             0       -7.636907   -0.718976    2.130678
   31          1             0       -7.729260    1.406732    0.951215
   32          1             0       -8.068363    2.981453    0.472943
   33          1             0       -6.601868    2.272035    0.099409
   34          1             0       -7.924896    2.221398   -1.905816
   35          1             0       -9.262566    1.517337   -1.023640
   36          1             0       -8.013390   -0.237502   -2.311202
   37          1             0       -7.954626   -0.546269   -0.591341
   38          1             0       -5.791989    0.661674   -3.456981
   39          1             0       -3.223948    0.508292   -3.010340
   40          1             0       -2.761258   -0.680323    1.595271
   41          1             0        0.091250   -0.124075    3.062630
   42          1             0        0.829030   -1.558090    2.348670
   43          1             0       -0.821178   -1.634101    2.967346
   44          1             0        1.571998   -0.885712   -2.142234
   45          1             0        3.995697   -0.882505   -2.469353
   46          1             0        6.700704    1.451858    1.640814
   47          1             0        5.692953    2.194311    0.398976
   48          1             0        7.426935    2.518652    0.434260
   49          1             0        9.093463    0.764322   -0.453923
   50          1             0        9.108707   -1.267991   -2.033850
 --------------------------------------------------------------------
     1 basis functions        1 primitive gaussians
     1 alpha electrons        1 beta electrons

 Harmonic frequencies (cm**-1), IR intensities (km*mol⁻¹),
 Raman scattering activities (A**4/amu), Raman depolarization ratios,
 reduced masses (AMU), force constants (mDyne/A) and normal coordinates:
                      1                      2                      3
                        a                      a                      a 
 Frequencies --  -167.7437               -56.1166                 3.7070
 Red. masses --    17.1760                17.6819                15.6532
 Frc consts  --     0.0000                 0.0000                 0.0000
 IR Inten    --   132.1128                 1.0381                 0.1703
 Raman Activ --     0.0000                 0.0000                 0.0000
 Depolar     --     0.0000                 0.0000                 0.0000
 Atom AN      X      Y      Z        X      Y      Z        X      Y      Z
   1   7     0.07   0.47  -0.38    -0.06  -0.02  -0.09     0.03   0.07   0.06
   2   6     0.00   0.08  -0.18    -0.08  -0.10  -0.04     0.04   0.10   0.03
   3   6    -0.01   0.02   0.11     0.01  -0.07  -0.01     0.00   0.09   0.01
   4   6    -0.01   0.02   0.04     0.01   0.03   0.02     0.00   0.06   0.01
   5   6    -0.02   0.02   0.03     0.02   0.45   0.13     0.01   0.01   0.00
   6   6    -0.02   0.01   0.01     0.01   0.46   0.14     0.01  -0.02  -0.00
   7   6    -0.00   0.01   0.01     0.00   0.06   0.04     0.00   0.00   0.00
   8   6    -0.00  -0.00  -0.00     0.00   0.01   0.02     0.00  -0.03  -0.00
   9   6     0.00  -0.01  -0.00     0.00   0.00   0.02     0.01  -0.12  -0.03
  10   6     0.00  -0.01  -0.01     0.00   0.02   0.02     0.01  -0.14  -0.04
  11   6     0.00  -0.01  -0.01     0.00   0.06   0.04     0.03  -0.22  -0.08
  12   6     0.00  -0.00  -0.00     0.00   0.01   0.02    -0.00  -0.08  -0.03
  13   6     0.00   0.00  -0.00     0.00  -0.01   0.02     0.00  -0.08  -0.03
  14   6     0.00   0.00  -0.00    -0.01  -0.04   0.02     0.00  -0.08  -0.02
  15   6    -0.00   0.00  -0.00    -0.01  -0.05   0.01     0.00  -0.07  -0.02
  16   6    -0.00   0.00  -0.00    -0.00  -0.02  -0.00    -0.01  -0.05  -0.02
  17   6    -0.00   0.00   0.00    -0.00  -0.03  -0.01    -0.01   0.02  -0.01
  18   6    -0.00  -0.00   0.00    -0.01   0.01  -0.06    -0.11   0.20  -0.13
  19   6    -0.00  -0.00   0.00    -0.03   0.05  -0.11    -0.28   0.29  -0.30
  20   6    -0.00  -0.00   0.00    -0.01  -0.01  -0.04    -0.06   0.26  -0.04
  21   6    -0.00   0.00  -0.00    -0.00  -0.05   0.02     0.06   0.11   0.15
  22  16    -0.00   0.01  -0.00     0.00  -0.13   0.09     0.21  -0.18   0.37
  23   6    -0.00   0.00  -0.00     0.01   0.01  -0.00    -0.01  -0.05  -0.02
  24   7     0.00  -0.01  -0.00     0.02   0.03  -0.02    -0.01  -0.05  -0.03
  25  16    -0.00   0.00   0.00     0.04   0.08  -0.03    -0.02  -0.11  -0.04
  26   7    -0.01   0.01  -0.00     0.02   0.04  -0.00    -0.01  -0.10  -0.02
  27   6    -0.00   0.01  -0.00     0.01   0.01   0.00    -0.01  -0.08  -0.02
  28  16     0.00   0.01  -0.00     0.00   0.00   0.03    -0.01   0.04   0.00
  29  16     0.02   0.01   0.04    -0.01  -0.54  -0.11    -0.00   0.10   0.02
  30  17    -0.03  -0.48   0.29     0.04   0.01  -0.06     0.03   0.08   0.04
  31   1    -0.11   0.29  -0.01     0.01  -0.00  -0.02    -0.00   0.02   0.01
  32   1     0.12   0.23  -0.25    -0.04  -0.02  -0.02     0.02   0.02   0.02
  33   1     0.05  -0.02  -0.09    -0.02   0.03  -0.04     0.01   0.01   0.02
  34   1    -0.01  -0.03  -0.10    -0.04  -0.03  -0.02     0.02   0.03   0.01
  35   1     0.00   0.03  -0.03    -0.02  -0.05   0.00     0.01   0.04   0.00
  36   1    -0.02  -0.05   0.06     0.01  -0.03  -0.00    -0.00   0.04   0.00
  37   1     0.01   0.05   0.08     0.01  -0.02   0.00    -0.00   0.03  -0.00
  38   1    -0.01   0.00   0.01     0.01   0.21   0.06     0.00  -0.00  -0.00
  39   1    -0.01   0.00  -0.00     0.01   0.21   0.06     0.00  -0.01  -0.00
  40   1     0.00  -0.00  -0.00     0.00   0.00   0.01     0.00  -0.05  -0.01
  41   1     0.01  -0.00  -0.00     0.00   0.03   0.00     0.01  -0.07  -0.01
  42   1    -0.00  -0.01  -0.00     0.00   0.02   0.02     0.01  -0.06  -0.04
  43   1     0.00  -0.00  -0.00     0.00   0.02   0.02     0.01  -0.07  -0.03
  44   1    -0.00   0.00  -0.00    -0.00  -0.02   0.01     0.00  -0.02  -0.01
  45   1     0.00   0.00  -0.00    -0.00  -0.02   0.01     0.00  -0.02  -0.01
  46   1    -0.00  -0.00   0.00    -0.01   0.03  -0.03    -0.09   0.12  -0.07
  47   1    -0.00   0.00  -0.00    -0.01   0.01  -0.04    -0.09   0.04  -0.12
  48   1    -0.00  -0.00   0.00    -0.01   0.01  -0.04    -0.10   0.10  -0.10
  49   1    -0.00  -0.00   0.00    -0.00   0.00  -0.02    -0.04   0.11  -0.03
  50   1    -0.00   0.00  -0.00     0.00  -0.02   0.01     0.03   0.03   0.08
                      4                      5                      6
                        a                      a                      a 
 Frequencies --    23.9092                30.5437                32.6746
 Red. masses --    27.6231                23.8069                19.7383
 Frc consts  --     0.0000                 0.0000                 0.0000
 IR Inten    --     8.2433                12.6331                 9.0596
 Raman Activ --     0.0000                 0.0000                 0.0000
 Depolar     --     0.0000                 0.0000                 0.0000
 Atom AN      X      Y      Z        X      Y      Z        X      Y      Z
   1   7    -0.12  -0.17   0.20     0.08  -0.02   0.12     0.04  -0.12   0.07
   2   6    -0.02  -0.04   0.10    -0.03  -0.00   0.15    -0.04  -0.03   0.06
   3   6     0.02  -0.00  -0.02    -0.04   0.01   0.07    -0.00   0.02  -0.10
   4   6     0.02   0.04  -0.04    -0.04   0.02   0.03    -0.00   0.05  -0.11
   5   6     0.01   0.06  -0.05    -0.07   0.02   0.01     0.00   0.02  -0.11
   6   6     0.01   0.08  -0.06    -0.06   0.02  -0.02     0.00   0.04  -0.11
   7   6     0.04   0.07  -0.07    -0.03   0.03  -0.03    -0.00   0.09  -0.09
   8   6     0.04   0.08  -0.07    -0.02   0.02  -0.06    -0.02   0.12  -0.06
   9   6     0.03   0.06  -0.08    -0.00  -0.08  -0.09    -0.07   0.26  -0.01
  10   6     0.03   0.05  -0.07     0.00  -0.07  -0.11    -0.08   0.23   0.05
  11   6     0.03   0.03  -0.08     0.05  -0.16  -0.16    -0.17   0.35   0.12
  12   6     0.04   0.06  -0.07    -0.02   0.04  -0.10    -0.03   0.06   0.04
  13   6     0.04   0.04  -0.05    -0.02   0.06  -0.09    -0.03  -0.00   0.05
  14   6     0.05   0.02  -0.04     0.01   0.06  -0.07    -0.05  -0.04   0.05
  15   6     0.06  -0.01  -0.01     0.02   0.03  -0.01    -0.05  -0.06   0.03
  16   6     0.04  -0.02  -0.00    -0.01   0.02   0.02    -0.03  -0.06   0.01
  17   6     0.05  -0.05   0.02    -0.00  -0.05   0.07    -0.03  -0.04  -0.01
  18   6     0.05  -0.04   0.01     0.03  -0.08   0.08    -0.06   0.02  -0.05
  19   6     0.05  -0.02  -0.03     0.06  -0.07   0.06    -0.11   0.05  -0.09
  20   6     0.05  -0.07   0.04     0.02  -0.15   0.11    -0.05   0.05  -0.04
  21   6     0.05  -0.10   0.08    -0.01  -0.16   0.13    -0.02   0.01   0.00
  22  16     0.09  -0.16   0.14    -0.04  -0.17   0.18    -0.00  -0.09   0.07
  23   6     0.03   0.02  -0.02    -0.05   0.06  -0.01    -0.00  -0.06   0.02
  24   7     0.02   0.04  -0.02    -0.10   0.12  -0.00     0.03  -0.11   0.01
  25  16     0.01   0.10  -0.06    -0.21   0.25  -0.09     0.10  -0.15   0.07
  26   7     0.01   0.07  -0.06    -0.11   0.13  -0.10     0.04  -0.05   0.07
  27   6     0.03   0.04  -0.04    -0.05   0.08  -0.06    -0.00  -0.03   0.05
  28  16     0.07   0.14  -0.11    -0.06   0.22  -0.10     0.03  -0.11  -0.06
  29  16     0.09   0.08  -0.09    -0.01   0.03   0.01    -0.00   0.18  -0.15
  30  17    -0.63  -0.26   0.33     0.52  -0.21   0.01     0.37  -0.34   0.15
  31   1    -0.09  -0.05   0.05     0.08  -0.02   0.02     0.05  -0.06   0.00
  32   1    -0.01  -0.03   0.04     0.00  -0.03   0.07    -0.01  -0.05   0.06
  33   1    -0.02  -0.09   0.09     0.01   0.04  -0.01     0.00  -0.00  -0.00
  34   1     0.01   0.01   0.05    -0.03   0.00   0.04    -0.03   0.02   0.03
  35   1    -0.01  -0.02   0.01    -0.01  -0.01   0.07    -0.01  -0.02   0.04
  36   1     0.01   0.02  -0.01    -0.02   0.01   0.02     0.00   0.03  -0.04
  37   1     0.01  -0.02  -0.02    -0.00  -0.01   0.02     0.01  -0.02  -0.05
  38   1    -0.00   0.02  -0.01    -0.03   0.00   0.01     0.00  -0.00  -0.04
  39   1    -0.00   0.03  -0.02    -0.02   0.01  -0.01     0.00   0.01  -0.03
  40   1     0.01   0.02  -0.02     0.00  -0.04  -0.03    -0.03   0.11  -0.00
  41   1     0.01   0.01  -0.02     0.01  -0.06  -0.03    -0.05   0.12   0.01
  42   1     0.01   0.01  -0.02     0.02  -0.04  -0.07    -0.06   0.08   0.07
  43   1     0.01   0.01  -0.02     0.02  -0.06  -0.05    -0.07   0.13   0.04
  44   1     0.02   0.01  -0.01     0.01   0.02  -0.02    -0.02  -0.01   0.02
  45   1     0.02  -0.01  -0.00     0.01   0.00   0.00    -0.02  -0.02   0.01
  46   1     0.01   0.00  -0.01     0.01  -0.02   0.02    -0.03   0.02  -0.02
  47   1     0.02  -0.00  -0.02     0.03  -0.01   0.01    -0.04  -0.00  -0.03
  48   1     0.02  -0.01  -0.01     0.03  -0.03   0.02    -0.04   0.02  -0.04
  49   1     0.02  -0.02   0.01     0.01  -0.05   0.03    -0.02   0.03  -0.02
  50   1     0.02  -0.04   0.03    -0.00  -0.06   0.05    -0.00   0.01   0.01
                      7                      8                      9
                        a                      a                      a 
 Frequencies --    41.3695                51.8358                63.3050
 Red. masses --    24.1446                20.2439                20.3266
 Frc consts  --     0.0000                 0.0000                 0.0000
 IR Inten    --     0.6150                 6.6311                10.7438
 Raman Activ --     0.0000                 0.0000                 0.0000
 Depolar     --     0.0000                 0.0000                 0.0000
 Atom AN      X      Y      Z        X      Y      Z        X      Y      Z
   1   7     0.11   0.08   0.12     0.09  -0.00   0.15    -0.22   0.09   0.01
   2   6     0.07   0.12   0.11     0.13   0.23   0.02    -0.18  -0.08   0.07
   3   6    -0.00   0.10   0.06     0.05   0.23  -0.15    -0.05  -0.05   0.22
   4   6    -0.01   0.03  -0.01     0.05   0.14  -0.06    -0.04   0.06   0.18
   5   6    -0.04   0.10  -0.02     0.13   0.11  -0.02    -0.10   0.04   0.14
   6   6    -0.03   0.04  -0.08     0.11   0.02   0.05    -0.09   0.06   0.07
   7   6     0.00  -0.08  -0.12     0.02  -0.01   0.06    -0.02   0.10   0.06
   8   6     0.01  -0.12  -0.13     0.00  -0.08   0.09     0.01   0.08   0.00
   9   6    -0.02  -0.01  -0.10     0.00  -0.06   0.10     0.03   0.16   0.01
  10   6    -0.03  -0.02  -0.07     0.00  -0.09   0.09     0.03   0.08  -0.02
  11   6    -0.08   0.07  -0.02     0.04  -0.07   0.08     0.01   0.11  -0.00
  12   6    -0.00  -0.12  -0.08    -0.00  -0.13   0.07     0.02  -0.05  -0.07
  13   6    -0.00  -0.10  -0.05    -0.01  -0.12   0.06     0.03  -0.10  -0.07
  14   6     0.04  -0.11  -0.03    -0.01  -0.17   0.08     0.06  -0.16  -0.04
  15   6     0.04  -0.06   0.00    -0.01  -0.13   0.07     0.06  -0.15  -0.02
  16   6     0.01  -0.00   0.01    -0.01  -0.03   0.03     0.05  -0.09  -0.02
  17   6     0.02   0.05   0.04    -0.02   0.00  -0.01     0.06  -0.03   0.01
  18   6     0.00   0.03   0.12    -0.00   0.00  -0.05     0.01  -0.01   0.07
  19   6    -0.01  -0.02   0.18     0.04  -0.00  -0.03    -0.03  -0.02   0.08
  20   6     0.02   0.07   0.12    -0.02   0.01  -0.11     0.04   0.05   0.11
  21   6     0.04   0.13   0.05    -0.05   0.01  -0.12     0.11   0.07   0.08
  22  16     0.09   0.22  -0.05    -0.10   0.01  -0.08     0.24   0.05  -0.00
  23   6    -0.03  -0.02  -0.00    -0.02   0.03   0.02     0.02  -0.07  -0.04
  24   7    -0.08   0.02   0.01    -0.04   0.18  -0.02    -0.01  -0.04  -0.04
  25  16    -0.18   0.03  -0.05    -0.08   0.36  -0.07    -0.04   0.04  -0.13
  26   7    -0.09  -0.02  -0.07    -0.04   0.10  -0.01    -0.01   0.01  -0.11
  27   6    -0.04  -0.05  -0.04    -0.02  -0.01   0.03     0.01  -0.05  -0.08
  28  16     0.03  -0.42  -0.23    -0.00  -0.25   0.12    -0.01  -0.21  -0.11
  29  16     0.05  -0.20  -0.14    -0.06   0.11  -0.02     0.04   0.23   0.24
  30  17     0.05   0.23   0.39    -0.07  -0.35  -0.22    -0.06  -0.13  -0.40
  31   1     0.01   0.03   0.04    -0.00  -0.04   0.00     0.00   0.01   0.00
  32   1     0.05   0.03   0.03     0.03  -0.01   0.07    -0.11  -0.00   0.01
  33   1     0.03  -0.00   0.04     0.03  -0.01   0.07    -0.07   0.09  -0.02
  34   1     0.03   0.03   0.04     0.07   0.10   0.04    -0.08  -0.04  -0.00
  35   1     0.02   0.05   0.04     0.03   0.08  -0.02    -0.05  -0.05   0.03
  36   1    -0.02   0.04   0.02     0.03   0.11  -0.07    -0.01  -0.06   0.08
  37   1     0.00   0.03   0.02    -0.01   0.04  -0.08     0.01   0.01   0.10
  38   1    -0.02   0.06   0.00     0.05   0.04  -0.01    -0.04  -0.00   0.04
  39   1    -0.02   0.02  -0.03     0.05  -0.00   0.03    -0.04   0.01   0.01
  40   1    -0.01   0.02  -0.03     0.00  -0.01   0.03     0.01   0.08   0.02
  41   1    -0.04   0.03  -0.02     0.01  -0.02   0.02    -0.00   0.04  -0.00
  42   1    -0.02   0.02   0.02     0.01  -0.01   0.02     0.00   0.03   0.01
  43   1    -0.03   0.03  -0.01     0.02  -0.03   0.03    -0.00   0.04  -0.00
  44   1     0.02  -0.05  -0.01    -0.00  -0.07   0.03     0.02  -0.06  -0.01
  45   1     0.02  -0.02   0.00    -0.00  -0.05   0.02     0.02  -0.05  -0.00
  46   1    -0.01  -0.02   0.05     0.02  -0.01  -0.01    -0.01  -0.01   0.02
  47   1    -0.00  -0.00   0.05     0.01   0.01  -0.00    -0.01  -0.01   0.02
  48   1    -0.00  -0.00   0.06     0.02  -0.01  -0.01    -0.01  -0.00   0.03
  49   1     0.00   0.02   0.05    -0.00   0.00  -0.04     0.00   0.02   0.05
  50   1     0.02   0.05   0.01    -0.02   0.01  -0.04     0.04   0.04   0.03
                     10                     11                     12
                        a                      a                      a 
 Frequencies --    71.6204                90.1427                97.1101
 Red. masses --    17.8134                16.6645                16.6524
 Frc consts  --     0.0000                 0.0000                 0.0000
 IR Inten    --     9.5159                 7.2949                10.8445
 Raman Activ --     0.0000                 0.0000                 0.0000
 Depolar     --     0.0000                 0.0000                 0.0000
 Atom AN      X      Y      Z        X      Y      Z        X      Y      Z
   1   7    -0.14  -0.10  -0.14     0.24   0.07   0.11     0.27  -0.10   0.00
   2   6    -0.14  -0.20  -0.08     0.15   0.04   0.14     0.19   0.08  -0.04
   3   6     0.04  -0.13  -0.10    -0.01  -0.04   0.26    -0.02   0.01  -0.12
   4   6     0.04   0.03  -0.07    -0.02  -0.12   0.08    -0.02  -0.12  -0.04
   5   6     0.05   0.04  -0.06    -0.12  -0.08   0.02     0.03  -0.07   0.01
   6   6     0.05   0.11  -0.02    -0.10  -0.03  -0.10     0.02  -0.01   0.09
   7   6     0.04   0.15  -0.01     0.02  -0.02  -0.13    -0.05   0.01   0.11
   8   6     0.03   0.12   0.01     0.03   0.05  -0.14    -0.05   0.10   0.13
   9   6    -0.00  -0.01  -0.01    -0.03   0.03  -0.13     0.02   0.11   0.11
  10   6    -0.01  -0.10  -0.01    -0.05   0.06  -0.05     0.03   0.11   0.04
  11   6     0.00  -0.21  -0.05    -0.10   0.06  -0.04     0.09   0.09   0.01
  12   6     0.01  -0.06   0.02    -0.00   0.10  -0.01    -0.03   0.11  -0.01
  13   6     0.01  -0.14   0.04     0.01   0.01   0.06    -0.03   0.02  -0.07
  14   6     0.02  -0.27   0.09     0.02  -0.11   0.11    -0.04  -0.11  -0.05
  15   6     0.03  -0.27   0.11     0.02  -0.18   0.14    -0.04  -0.18  -0.05
  16   6     0.01  -0.13   0.08     0.01  -0.11   0.12    -0.03  -0.15  -0.07
  17   6     0.00  -0.04   0.03    -0.01  -0.07   0.06    -0.02  -0.08  -0.02
  18   6    -0.01  -0.01   0.01    -0.02   0.00  -0.06    -0.09  -0.06   0.11
  19   6    -0.01  -0.06   0.07    -0.03  -0.03  -0.02    -0.17  -0.07   0.10
  20   6    -0.02   0.08  -0.08    -0.04   0.10  -0.21    -0.03   0.02   0.21
  21   6    -0.01   0.14  -0.15    -0.05   0.10  -0.20     0.09   0.09   0.12
  22  16     0.01   0.12  -0.17    -0.06  -0.06  -0.01     0.22   0.09  -0.13
  23   6    -0.01  -0.07   0.06     0.00  -0.04   0.11    -0.02  -0.11  -0.08
  24   7    -0.05   0.03   0.05    -0.02  -0.01   0.11    -0.01  -0.16  -0.08
  25  16    -0.13   0.12   0.01    -0.05   0.08   0.12     0.01   0.02  -0.18
  26   7    -0.06  -0.01  -0.00    -0.02   0.05   0.06    -0.01   0.12  -0.14
  27   6    -0.01  -0.09   0.03    -0.01   0.00   0.08    -0.01   0.02  -0.10
  28  16     0.07   0.25   0.07     0.12   0.26  -0.08    -0.16   0.28   0.11
  29  16     0.05   0.23  -0.05     0.18  -0.19  -0.03    -0.15  -0.17   0.03
  30  17     0.12   0.12   0.29    -0.12  -0.00  -0.27    -0.02  -0.02   0.03
  31   1    -0.00  -0.01  -0.02     0.02   0.04   0.04    -0.00  -0.02  -0.00
  32   1    -0.06  -0.04  -0.04     0.11   0.05   0.00     0.14   0.01  -0.01
  33   1    -0.05   0.00  -0.06     0.07  -0.04   0.03     0.09  -0.11   0.02
  34   1    -0.08  -0.05  -0.03     0.07  -0.02   0.02     0.10   0.02   0.00
  35   1    -0.04  -0.10  -0.00     0.04   0.05   0.05     0.05   0.07  -0.02
  36   1     0.03  -0.04  -0.03    -0.04  -0.04   0.11    -0.00   0.04  -0.05
  37   1     0.03  -0.05  -0.04     0.02   0.03   0.12    -0.04  -0.00  -0.05
  38   1     0.02  -0.01  -0.02    -0.06  -0.02   0.02     0.02  -0.02  -0.00
  39   1     0.02   0.03  -0.00    -0.05   0.00  -0.05     0.02   0.01   0.04
  40   1    -0.01  -0.01  -0.01    -0.02  -0.01  -0.05     0.02   0.02   0.04
  41   1     0.00  -0.07   0.00    -0.02   0.02  -0.01     0.04   0.02   0.00
  42   1    -0.00  -0.06  -0.03    -0.03   0.01  -0.00     0.02   0.02  -0.01
  43   1     0.00  -0.07  -0.02    -0.04   0.02  -0.01     0.03   0.03   0.01
  44   1     0.01  -0.10   0.03     0.01  -0.04   0.03    -0.02  -0.04  -0.01
  45   1     0.01  -0.10   0.04     0.01  -0.07   0.05    -0.01  -0.07  -0.01
  46   1    -0.00  -0.03   0.02    -0.01  -0.02  -0.01    -0.05  -0.01   0.03
  47   1    -0.00  -0.02   0.03    -0.01  -0.01  -0.00    -0.05  -0.03   0.02
  48   1    -0.01  -0.01   0.03    -0.01  -0.00   0.00    -0.06  -0.01   0.03
  49   1    -0.01   0.03  -0.03    -0.01   0.05  -0.09    -0.02   0.01   0.10
  50   1    -0.00   0.06  -0.07    -0.02   0.04  -0.08     0.04   0.05   0.05
                     13                     14                     15
                        a                      a                      a 
 Frequencies --   116.8583               125.5648               142.8480
 Red. masses --    15.4669                16.2932                14.4826
 Frc consts  --     0.0000                 0.0000                 0.0000
 IR Inten    --     7.4352                 0.9053                 3.3684
 Raman Activ --     0.0000                 0.0000                 0.0000
 Depolar     --     0.0000                 0.0000                 0.0000
 Atom AN      X      Y      Z        X      Y      Z        X      Y      Z
   1   7    -0.34   0.13   0.06    -0.00  -0.06  -0.05     0.21  -0.08  -0.05
   2   6    -0.16   0.16  -0.03     0.04   0.00  -0.08    -0.03   0.02   0.02
   3   6    -0.12   0.18  -0.08     0.01  -0.00  -0.10    -0.18  -0.02  -0.08
   4   6    -0.11   0.09  -0.03     0.02  -0.02   0.01    -0.18  -0.08  -0.05
   5   6    -0.07  -0.01  -0.03     0.06   0.00   0.04    -0.15  -0.03  -0.01
   6   6    -0.08  -0.16  -0.03     0.05   0.02   0.10    -0.15   0.06   0.04
   7   6    -0.09  -0.20  -0.04    -0.01   0.02   0.11    -0.15   0.09   0.05
   8   6    -0.07  -0.18  -0.04     0.00   0.03   0.08    -0.11   0.12   0.03
   9   6    -0.03  -0.19  -0.06     0.09   0.13   0.09    -0.07   0.12   0.02
  10   6    -0.01  -0.01  -0.04     0.10   0.10  -0.01    -0.06   0.01  -0.02
  11   6     0.04   0.08  -0.03     0.13   0.03  -0.05    -0.10  -0.07  -0.03
  12   6    -0.01   0.11  -0.00     0.03   0.05  -0.08    -0.03  -0.06  -0.02
  13   6     0.02   0.11   0.04     0.02   0.10  -0.11     0.01  -0.10   0.02
  14   6     0.04   0.00   0.08     0.08   0.20  -0.11     0.08  -0.11   0.05
  15   6     0.04  -0.11   0.09     0.09   0.13   0.00     0.09  -0.04   0.05
  16   6     0.07  -0.12   0.06     0.06  -0.06   0.11     0.10   0.09   0.00
  17   6     0.08  -0.09   0.04     0.06  -0.11   0.10     0.13   0.10   0.00
  18   6     0.05  -0.03   0.01     0.04   0.00  -0.07     0.19   0.07  -0.06
  19   6     0.04  -0.06   0.05     0.01  -0.11   0.07     0.32   0.04   0.01
  20   6     0.06   0.08  -0.06     0.01   0.17  -0.30     0.16   0.03  -0.11
  21   6     0.10   0.10  -0.09    -0.00   0.13  -0.26     0.11  -0.03  -0.04
  22  16     0.21  -0.03  -0.03     0.06  -0.19   0.15     0.14  -0.02   0.13
  23   6     0.07  -0.06   0.05    -0.00  -0.07   0.09     0.05   0.10  -0.02
  24   7     0.10  -0.09   0.04    -0.10  -0.15   0.18     0.04   0.20  -0.05
  25  16     0.22   0.07   0.05    -0.33  -0.09   0.09     0.05  -0.06   0.02
  26   7     0.11   0.15   0.04    -0.14   0.09  -0.11     0.05  -0.22   0.06
  27   6     0.05   0.07   0.04    -0.02   0.05  -0.06     0.03  -0.09   0.01
  28  16    -0.09   0.13   0.01    -0.10  -0.18  -0.08    -0.14   0.00   0.00
  29  16    -0.23  -0.15  -0.09    -0.07  -0.00   0.10    -0.33   0.01  -0.00
  30  17     0.08  -0.04   0.06     0.02   0.02   0.06    -0.02   0.02  -0.00
  31   1    -0.01  -0.01  -0.02    -0.03  -0.01  -0.01    -0.00   0.01   0.00
  32   1    -0.17  -0.02   0.06     0.01  -0.01  -0.02     0.14   0.03  -0.03
  33   1    -0.11   0.14   0.02     0.00  -0.04   0.01     0.07  -0.13  -0.03
  34   1    -0.04   0.06   0.01     0.03   0.01  -0.01    -0.02   0.00   0.00
  35   1    -0.05   0.03  -0.04     0.01   0.01  -0.04    -0.01   0.04   0.04
  36   1    -0.03   0.07  -0.03     0.02   0.01  -0.04    -0.05   0.02  -0.03
  37   1    -0.05   0.04  -0.04    -0.02  -0.01  -0.05    -0.07  -0.02  -0.04
  38   1    -0.01   0.01  -0.01     0.03   0.00   0.01    -0.04  -0.02  -0.01
  39   1    -0.02  -0.06  -0.01     0.02   0.01   0.04    -0.04   0.03   0.01
  40   1    -0.00  -0.09  -0.02     0.04   0.06   0.04    -0.01   0.05   0.02
  41   1     0.02   0.04  -0.03     0.03  -0.01   0.01    -0.03  -0.03   0.00
  42   1     0.01   0.02  -0.01     0.04   0.02  -0.03    -0.03  -0.02  -0.01
  43   1     0.02   0.03   0.02     0.04  -0.01  -0.03    -0.04  -0.02  -0.02
  44   1     0.01   0.00   0.02     0.03   0.09  -0.05     0.03  -0.04   0.01
  45   1     0.01  -0.05   0.03     0.04   0.06   0.00     0.02  -0.03   0.02
  46   1     0.01  -0.03   0.01    -0.03  -0.08   0.01     0.10  -0.01  -0.00
  47   1     0.01  -0.02   0.02     0.01  -0.02   0.02     0.10   0.03   0.03
  48   1     0.01  -0.01   0.02     0.01  -0.03   0.07     0.11   0.00   0.01
  49   1     0.01   0.04  -0.03    -0.00   0.09  -0.14     0.05   0.01  -0.05
  50   1     0.03   0.05  -0.04    -0.01   0.06  -0.10     0.02  -0.02  -0.01
                     16                     17                     18
                        a                      a                      a 
 Frequencies --   156.6370               172.1985               178.0183
 Red. masses --    14.1780                16.9049                14.0787
 Frc consts  --     0.0000                 0.0000                 0.0000
 IR Inten    --    13.7486                 0.9762                 1.4064
 Raman Activ --     0.0000                 0.0000                 0.0000
 Depolar     --     0.0000                 0.0000                 0.0000
 Atom AN      X      Y      Z        X      Y      Z        X      Y      Z
   1   7    -0.36   0.07   0.10    -0.02  -0.05  -0.01     0.18   0.07  -0.05
   2   6     0.19   0.19  -0.21     0.03   0.02  -0.05    -0.17  -0.08   0.16
   3   6     0.04   0.09   0.02    -0.03   0.00  -0.04     0.05   0.04  -0.04
   4   6     0.04  -0.10   0.05    -0.03  -0.02   0.01     0.05   0.13  -0.02
   5   6     0.02  -0.12   0.03    -0.02   0.00   0.02     0.10   0.05  -0.00
   6   6     0.02  -0.07   0.01    -0.03   0.03   0.03     0.09  -0.11   0.03
   7   6     0.03  -0.01   0.02    -0.02   0.03   0.03     0.03  -0.15   0.03
   8   6     0.04   0.12   0.02     0.00   0.05  -0.01     0.02  -0.16   0.03
   9   6     0.04   0.18   0.03     0.06   0.14  -0.00     0.06  -0.18   0.01
  10   6     0.03   0.10   0.02     0.07   0.10  -0.09     0.07   0.01   0.01
  11   6    -0.06   0.05   0.04     0.27  -0.15  -0.25     0.04   0.24   0.10
  12   6     0.03   0.00  -0.01     0.01   0.11  -0.11     0.02   0.06  -0.01
  13   6     0.02  -0.09  -0.06     0.02   0.13   0.00     0.02   0.06  -0.10
  14   6     0.04  -0.16  -0.03     0.02  -0.20   0.10     0.04  -0.21  -0.01
  15   6     0.04  -0.08   0.00     0.01  -0.23   0.10     0.05  -0.18   0.03
  16   6     0.01   0.09  -0.03    -0.04   0.04   0.03     0.02   0.10  -0.03
  17   6     0.01   0.09  -0.03    -0.06   0.08   0.04     0.01   0.10  -0.03
  18   6     0.05   0.05  -0.04    -0.04   0.05   0.04     0.05   0.07  -0.05
  19   6     0.10   0.06  -0.05    -0.01   0.09  -0.00     0.09   0.05  -0.02
  20   6     0.04  -0.05  -0.01    -0.06  -0.04   0.04     0.04  -0.01  -0.03
  21   6    -0.01  -0.08   0.03    -0.14  -0.05   0.04    -0.01  -0.05   0.02
  22  16    -0.08   0.03   0.03    -0.28   0.10   0.04    -0.06   0.03   0.05
  23   6    -0.01   0.09  -0.04    -0.01   0.12   0.01    -0.01   0.17  -0.07
  24   7    -0.08   0.13  -0.01     0.07  -0.08   0.02    -0.07   0.01   0.02
  25  16    -0.23  -0.16  -0.00     0.22  -0.19   0.14    -0.23  -0.32   0.05
  26   7    -0.09  -0.19  -0.05     0.08   0.19   0.06    -0.09   0.02  -0.12
  27   6    -0.01  -0.06  -0.06    -0.00   0.23   0.01    -0.01   0.16  -0.13
  28  16     0.06   0.20   0.03    -0.07  -0.22  -0.23    -0.03   0.17   0.07
  29  16     0.08  -0.23   0.04    -0.04   0.01   0.04    -0.01   0.02   0.00
  30  17     0.11  -0.05   0.06     0.02  -0.00   0.01    -0.11  -0.01  -0.02
  31   1    -0.09  -0.05  -0.03    -0.03  -0.01  -0.01     0.15   0.02  -0.00
  32   1    -0.19  -0.04   0.05     0.01  -0.00  -0.00     0.02  -0.01   0.02
  33   1    -0.11   0.12   0.12     0.00  -0.03   0.02     0.03   0.08  -0.12
  34   1     0.20   0.05  -0.02     0.04   0.01  -0.01    -0.18  -0.01   0.02
  35   1     0.04   0.11  -0.21     0.01   0.03  -0.04    -0.04  -0.10   0.16
  36   1     0.01   0.01   0.01     0.00   0.01  -0.02     0.02   0.03  -0.02
  37   1    -0.03   0.06   0.02    -0.02   0.00  -0.02     0.04  -0.03  -0.04
  38   1    -0.00  -0.04   0.01    -0.01  -0.00   0.01     0.04   0.02  -0.00
  39   1     0.00  -0.01   0.00    -0.01   0.01   0.01     0.04  -0.05   0.01
  40   1     0.01   0.06   0.01     0.03   0.06   0.02     0.02  -0.08   0.00
  41   1    -0.04   0.00   0.03     0.12  -0.09  -0.03    -0.04   0.10  -0.00
  42   1    -0.01   0.02   0.03     0.07  -0.05  -0.15     0.03   0.10   0.07
  43   1    -0.03   0.00  -0.02     0.10  -0.07  -0.07     0.02   0.06   0.04
  44   1     0.02  -0.07  -0.00     0.00  -0.13   0.05     0.02  -0.13   0.01
  45   1     0.02  -0.04   0.01     0.01  -0.13   0.05     0.02  -0.11   0.03
  46   1     0.02   0.02  -0.01     0.00   0.04   0.00    -0.01  -0.00  -0.01
  47   1     0.04   0.03  -0.02    -0.00   0.03  -0.00     0.04   0.04  -0.02
  48   1     0.04   0.01  -0.01     0.00   0.02  -0.01     0.05  -0.00   0.02
  49   1     0.02  -0.03  -0.00    -0.01  -0.03   0.01     0.02  -0.01  -0.01
  50   1    -0.01  -0.04   0.02    -0.05  -0.03   0.01    -0.01  -0.03   0.01
                     19                     20                     21
                        a                      a                      a 
 Frequencies --   183.1015               192.2447               222.9407
 Red. masses --    17.1218                11.3106                14.8285
 Frc consts  --     0.0000                 0.0000                 0.0000
 IR Inten    --     0.0915                19.9596                 5.0548
 Raman Activ --     0.0000                 0.0000                 0.0000
 Depolar     --     0.0000                 0.0000                 0.0000
 Atom AN      X      Y      Z        X      Y      Z        X      Y      Z
   1   7    -0.04   0.01   0.01    -0.07  -0.26  -0.01    -0.14   0.02   0.11
   2   6     0.03  -0.02  -0.02     0.15   0.02  -0.21     0.01  -0.05   0.07
   3   6     0.05  -0.02   0.03    -0.02  -0.06  -0.03     0.06  -0.05   0.14
   4   6     0.05   0.00   0.00    -0.02  -0.01   0.11     0.05   0.02  -0.08
   5   6     0.04   0.01  -0.01    -0.07   0.12   0.11     0.04   0.02  -0.10
   6   6     0.04   0.01  -0.02    -0.06   0.15   0.06     0.05   0.01  -0.09
   7   6     0.03  -0.00  -0.02    -0.03   0.03   0.02     0.03   0.01  -0.08
   8   6     0.01  -0.02   0.00    -0.01  -0.17  -0.09    -0.04   0.00   0.06
   9   6    -0.01  -0.05  -0.00    -0.02  -0.35  -0.14    -0.10   0.05   0.09
  10   6    -0.02  -0.04   0.01    -0.03  -0.15  -0.08    -0.09   0.03   0.12
  11   6     0.00   0.05   0.03    -0.10   0.23   0.06    -0.05  -0.19   0.04
  12   6    -0.03  -0.03   0.00    -0.01  -0.02  -0.04    -0.08   0.07   0.13
  13   6    -0.04  -0.05  -0.03    -0.00   0.05  -0.01    -0.09   0.17   0.03
  14   6    -0.07  -0.07  -0.04     0.01  -0.03   0.02    -0.10  -0.00   0.07
  15   6    -0.08  -0.03  -0.11     0.02  -0.05   0.03    -0.10  -0.06   0.03
  16   6    -0.10   0.02  -0.12     0.01   0.01   0.01    -0.02   0.08  -0.08
  17   6    -0.08   0.09   0.04     0.01  -0.00   0.00     0.01  -0.05  -0.11
  18   6    -0.08   0.11   0.03     0.02  -0.01  -0.00     0.00  -0.04  -0.08
  19   6     0.17  -0.12   0.41     0.01   0.01  -0.03     0.01  -0.13   0.03
  20   6    -0.12   0.20  -0.14     0.02  -0.02   0.01     0.04   0.04  -0.03
  21   6    -0.12   0.13  -0.05     0.01  -0.01  -0.00     0.15   0.03  -0.00
  22  16    -0.15  -0.11   0.41     0.01   0.01  -0.02     0.31  -0.12  -0.06
  23   6    -0.07  -0.01  -0.14     0.00   0.05  -0.00    -0.03   0.25  -0.10
  24   7     0.04  -0.03  -0.22    -0.00  -0.03   0.02    -0.05   0.09  -0.05
  25  16     0.25  -0.02  -0.23    -0.01  -0.08   0.04    -0.04  -0.16   0.06
  26   7     0.07  -0.01  -0.02    -0.00   0.07  -0.01    -0.04   0.12  -0.01
  27   6    -0.03  -0.02  -0.05    -0.01   0.09  -0.02    -0.04   0.28  -0.06
  28  16    -0.00   0.07   0.03    -0.01   0.03  -0.07    -0.07  -0.14   0.15
  29  16     0.08   0.01  -0.01     0.03   0.25   0.21     0.08   0.02  -0.18
  30  17     0.01   0.01   0.00     0.12   0.01  -0.00     0.08   0.05  -0.06
  31   1    -0.02   0.00   0.00    -0.24  -0.02   0.00    -0.20   0.09   0.07
  32   1    -0.02   0.00  -0.01     0.12   0.03  -0.09     0.06   0.09  -0.09
  33   1    -0.01   0.01   0.02     0.03  -0.29   0.12    -0.00  -0.16   0.11
  34   1     0.02  -0.01  -0.00     0.17  -0.00  -0.03     0.03  -0.02   0.02
  35   1     0.01  -0.00  -0.02     0.03   0.09  -0.16     0.00  -0.02  -0.01
  36   1     0.01  -0.02   0.01     0.02  -0.04  -0.01    -0.03  -0.06   0.08
  37   1     0.02   0.00   0.02    -0.04   0.01  -0.00     0.07   0.01   0.09
  38   1     0.01   0.00  -0.00    -0.03   0.03   0.04     0.01   0.01  -0.03
  39   1     0.01   0.00  -0.00    -0.03   0.04   0.01     0.01   0.00  -0.03
  40   1    -0.01  -0.02  -0.01    -0.01  -0.15  -0.05    -0.03   0.02   0.02
  41   1     0.01   0.03  -0.01    -0.07   0.13  -0.05    -0.02  -0.09   0.06
  42   1    -0.00   0.01   0.02    -0.01   0.09   0.09    -0.01  -0.03  -0.03
  43   1     0.00   0.03   0.03    -0.02   0.09   0.05    -0.00  -0.10  -0.02
  44   1    -0.03  -0.03  -0.00     0.01  -0.03   0.01    -0.03  -0.05   0.04
  45   1    -0.03  -0.01  -0.03     0.01  -0.03   0.02    -0.04  -0.08   0.02
  46   1     0.14  -0.13   0.09    -0.01   0.01  -0.01    -0.06  -0.08  -0.00
  47   1     0.04  -0.01   0.24     0.01   0.01  -0.02     0.03   0.01  -0.02
  48   1     0.04  -0.03   0.12     0.01  -0.00  -0.00     0.04  -0.06   0.08
  49   1    -0.04   0.08  -0.08     0.01  -0.01   0.00    -0.00   0.03   0.00
  50   1    -0.04   0.04  -0.02     0.00  -0.01  -0.00     0.05   0.02   0.01
                     22                     23                     24
                        a                      a                      a 
 Frequencies --   228.0154               240.6484               249.0848
 Red. masses --     8.7600                12.0379                 3.9281
 Frc consts  --     0.0000                 0.0000                 0.0000
 IR Inten    --     0.3474                 2.5555                 0.4985
 Raman Activ --     0.0000                 0.0000                 0.0000
 Depolar     --     0.0000                 0.0000                 0.0000
 Atom AN      X      Y      Z        X      Y      Z        X      Y      Z
   1   7    -0.19  -0.02   0.11     0.02  -0.05  -0.05     0.02  -0.03  -0.04
   2   6    -0.22  -0.03   0.15    -0.05  -0.00  -0.02    -0.06   0.02  -0.02
   3   6    -0.03   0.07  -0.01     0.05   0.05  -0.09    -0.02   0.05  -0.09
   4   6    -0.02   0.14  -0.04     0.05   0.10   0.09    -0.01   0.04   0.07
   5   6     0.04   0.01  -0.03     0.06   0.06   0.09    -0.01   0.01   0.06
   6   6     0.04  -0.14  -0.02     0.04  -0.07   0.05    -0.01  -0.04   0.03
   7   6     0.02  -0.12  -0.01     0.02  -0.12   0.03     0.01  -0.05   0.02
   8   6     0.04  -0.01   0.02     0.03  -0.08  -0.04     0.03  -0.00  -0.04
   9   6     0.08   0.10   0.04     0.04   0.03  -0.03     0.03   0.04  -0.03
  10   6     0.09   0.09   0.02     0.04   0.13  -0.04     0.02   0.04  -0.02
  11   6     0.10   0.05   0.01    -0.02  -0.00  -0.07    -0.03  -0.01  -0.01
  12   6     0.07   0.01  -0.01     0.00   0.17  -0.05     0.03   0.02  -0.01
  13   6     0.06  -0.10  -0.03    -0.01   0.12  -0.02     0.02  -0.00   0.01
  14   6     0.05  -0.03  -0.05    -0.04   0.13  -0.03     0.00   0.03  -0.01
  15   6     0.05   0.02  -0.03    -0.03  -0.15   0.04    -0.00  -0.03  -0.02
  16   6     0.01  -0.03   0.03    -0.04  -0.06   0.01    -0.01  -0.00  -0.02
  17   6    -0.01   0.04   0.04    -0.04  -0.16   0.05    -0.02  -0.04   0.02
  18   6     0.00   0.03   0.03    -0.10  -0.12   0.08    -0.04  -0.03   0.05
  19   6    -0.00   0.07  -0.02    -0.09  -0.08   0.03    -0.13  -0.05   0.06
  20   6    -0.02  -0.03   0.02    -0.08   0.02   0.05    -0.05   0.02   0.01
  21   6    -0.08  -0.04   0.02     0.00   0.11  -0.06    -0.04   0.05  -0.03
  22  16    -0.17   0.05   0.04     0.09  -0.09  -0.06    -0.03  -0.04   0.03
  23   6     0.03  -0.13   0.04    -0.04   0.19  -0.05     0.00   0.07  -0.04
  24   7     0.01  -0.05   0.03    -0.03   0.44  -0.13     0.01   0.14  -0.08
  25  16    -0.04   0.07  -0.05     0.02  -0.02   0.05     0.10   0.05  -0.02
  26   7     0.00  -0.07  -0.03     0.01  -0.36   0.16     0.05  -0.16   0.07
  27   6     0.04  -0.15   0.01    -0.02  -0.06   0.05     0.02  -0.04   0.02
  28  16     0.07   0.09   0.03    -0.03   0.00  -0.15     0.08   0.03  -0.06
  29  16    -0.06  -0.11  -0.09     0.07  -0.02   0.15     0.02  -0.04   0.09
  30  17     0.13   0.09  -0.12    -0.01   0.00   0.01    -0.00   0.00   0.00
  31   1    -0.38   0.17   0.12    -0.01  -0.00  -0.01    -0.00  -0.01  -0.01
  32   1     0.22   0.20  -0.18     0.04   0.00  -0.01     0.03   0.00  -0.00
  33   1     0.03  -0.41   0.13     0.01  -0.05  -0.02     0.01  -0.03  -0.02
  34   1    -0.11   0.02   0.05    -0.04   0.01  -0.00    -0.04   0.02  -0.00
  35   1    -0.06  -0.05   0.07    -0.01  -0.02   0.01    -0.02  -0.00   0.01
  36   1    -0.01   0.04  -0.01     0.06   0.04  -0.06     0.03   0.04  -0.05
  37   1     0.02  -0.01  -0.02    -0.01  -0.01  -0.06    -0.03  -0.01  -0.06
  38   1     0.03   0.02  -0.01     0.01   0.03   0.03    -0.01   0.01   0.02
  39   1     0.01  -0.06  -0.01     0.02  -0.04   0.01    -0.01  -0.02   0.00
  40   1     0.03   0.03   0.02     0.02   0.00  -0.01     0.01   0.01  -0.01
  41   1     0.04   0.01   0.01    -0.05  -0.02   0.03    -0.03  -0.01   0.01
  42   1     0.02   0.01  -0.01     0.01   0.03  -0.02    -0.00   0.01   0.00
  43   1     0.03   0.01  -0.00    -0.00  -0.05  -0.07    -0.01  -0.02  -0.02
  44   1     0.02   0.01  -0.02    -0.02   0.08  -0.02    -0.00   0.02  -0.00
  45   1     0.02   0.04  -0.01    -0.01  -0.11   0.03    -0.00  -0.02  -0.00
  46   1     0.03   0.04  -0.00     0.19   0.04   0.02    -0.56  -0.10   0.00
  47   1    -0.01  -0.00   0.01    -0.10  -0.14   0.15     0.15   0.26  -0.35
  48   1    -0.02   0.03  -0.04    -0.14   0.06  -0.16     0.24  -0.21   0.39
  49   1     0.00  -0.02   0.00    -0.04   0.03   0.02    -0.02   0.01  -0.00
  50   1    -0.03  -0.02   0.00     0.01   0.06  -0.03    -0.01   0.03  -0.02
                     25                     26                     27
                        a                      a                      a 
 Frequencies --   263.3854               266.5509               275.9299
 Red. masses --    12.0071                 6.4685                12.0870
 Frc consts  --     0.0000                 0.0000                 0.0000
 IR Inten    --     4.5678                 1.6541                 0.3018
 Raman Activ --     0.0000                 0.0000                 0.0000
 Depolar     --     0.0000                 0.0000                 0.0000
 Atom AN      X      Y      Z        X      Y      Z        X      Y      Z
   1   7    -0.04   0.06   0.08     0.03  -0.08  -0.07     0.02  -0.06  -0.04
   2   6     0.15  -0.08   0.04    -0.07   0.02  -0.05     0.03  -0.04  -0.04
   3   6     0.13  -0.11   0.18     0.01   0.07  -0.12     0.13   0.01  -0.01
   4   6     0.10  -0.03  -0.14     0.03   0.10   0.15     0.12   0.12   0.09
   5   6     0.12   0.03  -0.11    -0.02   0.05   0.11     0.08   0.10   0.06
   6   6     0.11   0.05  -0.01    -0.02  -0.09  -0.01     0.07  -0.08  -0.02
   7   6    -0.02   0.02   0.02     0.02  -0.12  -0.04     0.00  -0.15  -0.03
   8   6    -0.10  -0.07   0.10     0.02  -0.04  -0.07    -0.06  -0.11  -0.01
   9   6    -0.03  -0.10   0.07    -0.05   0.08  -0.03    -0.10   0.05   0.02
  10   6    -0.00   0.01  -0.04    -0.07   0.09   0.03    -0.09   0.15  -0.01
  11   6     0.15   0.13  -0.07    -0.05  -0.10  -0.04    -0.11  -0.06  -0.08
  12   6    -0.08   0.06  -0.09    -0.04   0.08   0.04    -0.12   0.19  -0.02
  13   6    -0.06   0.01  -0.04    -0.05   0.01   0.04    -0.11   0.03   0.04
  14   6    -0.00   0.08  -0.03    -0.07  -0.03   0.05    -0.09   0.02   0.05
  15   6     0.02  -0.09   0.05    -0.07   0.02   0.01    -0.08  -0.05   0.05
  16   6     0.01  -0.10   0.07    -0.02   0.03  -0.03    -0.02  -0.10   0.02
  17   6     0.03  -0.05   0.14    -0.01   0.08  -0.12     0.01   0.10  -0.04
  18   6     0.05  -0.04   0.10     0.01   0.07  -0.13     0.06   0.10  -0.10
  19   6     0.11   0.12  -0.08     0.07  -0.03   0.02     0.26   0.11  -0.05
  20   6     0.03  -0.03   0.03     0.03   0.02  -0.04     0.07   0.00  -0.03
  21   6    -0.01   0.04  -0.06     0.07  -0.07   0.08     0.07  -0.08   0.09
  22  16    -0.03   0.07   0.03     0.10  -0.00  -0.03     0.05   0.11   0.00
  23   6    -0.04  -0.05   0.02    -0.02  -0.05   0.01    -0.05  -0.24   0.05
  24   7    -0.02   0.10  -0.06    -0.04  -0.06   0.03    -0.01  -0.21   0.01
  25  16     0.01  -0.00  -0.02    -0.08   0.02   0.02     0.01   0.11  -0.06
  26   7     0.01  -0.19   0.06    -0.04   0.06  -0.02    -0.03   0.01   0.04
  27   6    -0.04  -0.14   0.03    -0.03  -0.01   0.02    -0.07  -0.13   0.07
  28  16    -0.38   0.00  -0.03     0.06   0.02  -0.03    -0.26   0.01  -0.10
  29  16    -0.04   0.10  -0.13     0.16  -0.05   0.16     0.17   0.00   0.12
  30  17     0.01   0.01  -0.01    -0.01  -0.01   0.01    -0.01  -0.00   0.01
  31   1    -0.01   0.03   0.03     0.01  -0.03  -0.02     0.01  -0.02  -0.01
  32   1    -0.05   0.01  -0.01     0.04  -0.01   0.00     0.01  -0.02  -0.01
  33   1    -0.01   0.05   0.05     0.01  -0.05  -0.04     0.01  -0.02  -0.01
  34   1     0.07  -0.04   0.00    -0.04   0.02  -0.01     0.00  -0.01  -0.01
  35   1     0.04  -0.02  -0.02    -0.02  -0.01   0.00     0.01  -0.03  -0.01
  36   1    -0.03  -0.10   0.11     0.07   0.05  -0.07     0.07  -0.01  -0.01
  37   1     0.11   0.01   0.13    -0.04  -0.01  -0.08     0.04  -0.01  -0.01
  38   1     0.05   0.01  -0.04    -0.02   0.03   0.04     0.01   0.05   0.03
  39   1     0.05   0.02   0.02    -0.01  -0.04  -0.02     0.03  -0.04  -0.00
  40   1     0.01  -0.05   0.03    -0.03   0.03  -0.02    -0.03   0.01   0.01
  41   1     0.28   0.06  -0.13     0.43  -0.04  -0.13    -0.26  -0.06   0.11
  42   1    -0.07  -0.16  -0.06    -0.24  -0.40  -0.09     0.08   0.18  -0.03
  43   1    -0.03   0.24   0.11    -0.19   0.32   0.15     0.06  -0.24  -0.16
  44   1     0.01   0.07  -0.03    -0.02  -0.02   0.02    -0.03   0.04   0.00
  45   1     0.01  -0.03   0.02    -0.03   0.02  -0.00    -0.04   0.01  -0.00
  46   1    -0.07   0.08  -0.01     0.04  -0.06  -0.01     0.03   0.01  -0.02
  47   1     0.07   0.09  -0.11     0.02   0.00   0.05     0.10   0.10  -0.02
  48   1     0.09  -0.02  -0.00     0.02  -0.01   0.03     0.13  -0.02   0.02
  49   1     0.01  -0.01   0.00     0.01   0.01  -0.00     0.02  -0.01  -0.00
  50   1    -0.01   0.03  -0.04     0.03  -0.04   0.05     0.02  -0.05   0.05
                     28                     29                     30
                        a                      a                      a 
 Frequencies --   289.3366               308.7550               324.5715
 Red. masses --    12.2902                14.1158                12.7616
 Frc consts  --     0.0000                 0.0000                 0.0000
 IR Inten    --     1.4233                10.8860                14.8986
 Raman Activ --     0.0000                 0.0000                 0.0000
 Depolar     --     0.0000                 0.0000                 0.0000
 Atom AN      X      Y      Z        X      Y      Z        X      Y      Z
   1   7     0.01  -0.02  -0.02     0.08  -0.18  -0.10     0.03  -0.10  -0.07
   2   6    -0.04   0.02  -0.01     0.02   0.05  -0.15    -0.08   0.06  -0.07
   3   6    -0.00   0.05  -0.06    -0.15  -0.05   0.17    -0.04   0.08  -0.02
   4   6     0.01   0.04   0.07    -0.14   0.09  -0.01    -0.02   0.11   0.13
   5   6    -0.02  -0.01   0.04    -0.17   0.21   0.00    -0.11   0.03   0.04
   6   6    -0.01  -0.03  -0.02    -0.14  -0.01  -0.09    -0.08  -0.06  -0.14
   7   6     0.02  -0.01  -0.03    -0.01  -0.19  -0.15     0.03  -0.01  -0.15
   8   6     0.01   0.04  -0.01     0.01  -0.21  -0.02    -0.04   0.05   0.03
   9   6    -0.05   0.06   0.01     0.05   0.02   0.06    -0.09   0.07   0.08
  10   6    -0.06  -0.02   0.06     0.07   0.19   0.16    -0.07  -0.07   0.01
  11   6    -0.27  -0.17   0.10     0.19  -0.07   0.06     0.39   0.17  -0.10
  12   6    -0.01  -0.03   0.07     0.08   0.20   0.16    -0.10  -0.24  -0.03
  13   6    -0.02   0.08  -0.07     0.05   0.05  -0.03    -0.09  -0.21   0.09
  14   6     0.02   0.07  -0.06    -0.00   0.05  -0.06    -0.06  -0.11   0.08
  15   6     0.04  -0.04  -0.02     0.01  -0.08  -0.01    -0.07   0.20  -0.03
  16   6     0.02  -0.09   0.02     0.01  -0.07  -0.01    -0.04   0.10  -0.02
  17   6     0.06  -0.15   0.31    -0.00   0.01   0.01    -0.00  -0.06   0.05
  18   6     0.09  -0.15   0.30    -0.02   0.02   0.02     0.03  -0.12   0.10
  19   6     0.15   0.21  -0.15     0.03   0.04   0.02     0.04   0.00  -0.07
  20   6     0.04  -0.07   0.09    -0.03   0.01   0.01     0.04  -0.04   0.05
  21   6    -0.06   0.17  -0.23    -0.04   0.01   0.01     0.04   0.11  -0.14
  22  16    -0.09   0.08   0.12    -0.07   0.03   0.03     0.11  -0.05   0.03
  23   6    -0.04   0.02  -0.08     0.06  -0.05  -0.01    -0.09   0.04  -0.01
  24   7     0.02  -0.10  -0.10     0.01   0.03  -0.00    -0.06   0.05  -0.04
  25  16     0.07  -0.12  -0.17    -0.12  -0.02  -0.10    -0.00  -0.08   0.07
  26   7    -0.02   0.15  -0.11     0.00  -0.11  -0.09    -0.02   0.04   0.06
  27   6    -0.03   0.15  -0.11     0.09  -0.08  -0.06    -0.09  -0.01   0.04
  28  16     0.06  -0.03   0.09     0.19  -0.05   0.24    -0.12   0.09   0.08
  29  16     0.10  -0.05   0.05    -0.06   0.18  -0.16     0.28  -0.05  -0.03
  30  17    -0.00  -0.00  -0.00    -0.01  -0.02   0.04    -0.00  -0.01   0.01
  31   1    -0.00  -0.01  -0.01     0.07  -0.12  -0.07     0.02  -0.05  -0.04
  32   1     0.02   0.00   0.00     0.00  -0.09   0.06     0.03  -0.03   0.02
  33   1     0.00  -0.02  -0.01     0.01  -0.01  -0.05     0.01  -0.05  -0.04
  34   1    -0.03   0.02   0.00     0.09  -0.02  -0.05    -0.02   0.02  -0.02
  35   1    -0.01  -0.01   0.01     0.00   0.09  -0.08    -0.02   0.02  -0.01
  36   1     0.03   0.04  -0.04    -0.08  -0.12   0.11     0.03   0.02  -0.02
  37   1    -0.03  -0.01  -0.05     0.01   0.06   0.14    -0.04   0.02  -0.02
  38   1    -0.02  -0.00   0.02    -0.05   0.09   0.01    -0.06   0.02   0.03
  39   1    -0.01  -0.01  -0.01    -0.06  -0.01  -0.05    -0.05  -0.03  -0.07
  40   1    -0.02   0.03  -0.00     0.01  -0.01   0.02    -0.03   0.04   0.03
  41   1    -0.04  -0.06   0.04     0.07  -0.07   0.08     0.07   0.08  -0.06
  42   1    -0.11  -0.10   0.05     0.05  -0.02  -0.05     0.16   0.14  -0.10
  43   1    -0.13  -0.01   0.00     0.07  -0.06  -0.01     0.22  -0.01   0.05
  44   1     0.01   0.01  -0.02    -0.01   0.04  -0.02    -0.01  -0.07   0.03
  45   1     0.01  -0.04   0.00     0.01  -0.03   0.00    -0.03   0.10  -0.03
  46   1     0.03   0.20  -0.00     0.00   0.01   0.01     0.00   0.05  -0.01
  47   1     0.05   0.05  -0.11     0.01   0.02   0.00     0.01  -0.00  -0.05
  48   1     0.06   0.02  -0.14     0.02   0.00   0.00     0.01  -0.01  -0.05
  49   1     0.02  -0.02   0.01    -0.01  -0.00  -0.00     0.01  -0.00   0.02
  50   1    -0.03   0.09  -0.14    -0.01   0.00   0.00     0.01   0.06  -0.07
                     31                     32                     33
                        a                      a                      a 
 Frequencies --   330.8128               357.4922               371.6685
 Red. masses --    11.9469                17.9395                11.3227
 Frc consts  --     0.0000                 0.0000                 0.0000
 IR Inten    --     4.2414                 1.7143                15.7534
 Raman Activ --     0.0000                 0.0000                 0.0000
 Depolar     --     0.0000                 0.0000                 0.0000
 Atom AN      X      Y      Z        X      Y      Z        X      Y      Z
   1   7     0.04  -0.12  -0.05    -0.01   0.02  -0.01     0.04  -0.19  -0.10
   2   6     0.06  -0.03  -0.08    -0.06   0.04   0.01    -0.11   0.09  -0.11
   3   6     0.10  -0.03   0.14    -0.03   0.06  -0.11    -0.01   0.11   0.17
   4   6     0.07   0.21   0.01    -0.01  -0.06   0.11     0.00   0.26   0.04
   5   6     0.08   0.19   0.00    -0.13  -0.10   0.01     0.02   0.01  -0.02
   6   6     0.05  -0.15  -0.01    -0.08   0.09  -0.15     0.02  -0.16  -0.03
   7   6    -0.06  -0.21  -0.00     0.03   0.15  -0.15     0.01   0.06   0.03
   8   6    -0.08  -0.07   0.02    -0.10   0.03   0.12     0.01   0.21   0.09
   9   6    -0.04   0.15   0.04    -0.07  -0.09   0.10     0.06   0.08   0.04
  10   6    -0.03   0.05  -0.05    -0.03  -0.04   0.02     0.06  -0.23  -0.07
  11   6    -0.23  -0.08  -0.03    -0.01  -0.01   0.04    -0.07   0.01   0.06
  12   6    -0.01  -0.10  -0.08    -0.02   0.06   0.02     0.03  -0.28  -0.11
  13   6     0.05  -0.12  -0.02     0.02   0.11  -0.09     0.03   0.04  -0.07
  14   6     0.15  -0.17   0.03     0.11   0.12  -0.06     0.04   0.19  -0.11
  15   6     0.15   0.16  -0.02     0.15  -0.15   0.09     0.04  -0.14   0.02
  16   6     0.11   0.19  -0.01     0.13  -0.04   0.06    -0.02  -0.17   0.08
  17   6     0.09   0.04   0.00     0.09   0.05   0.02    -0.05  -0.10   0.04
  18   6     0.10  -0.03   0.04     0.09   0.09  -0.05    -0.14   0.08  -0.10
  19   6    -0.31  -0.12   0.05    -0.21  -0.06   0.08     0.13   0.05   0.02
  20   6     0.08  -0.04  -0.02     0.06   0.02  -0.08    -0.13   0.11  -0.06
  21   6    -0.03  -0.00  -0.09    -0.04  -0.12   0.08    -0.01  -0.09   0.21
  22  16    -0.09  -0.03   0.05    -0.16   0.09   0.01     0.00   0.02  -0.15
  23   6     0.06   0.08  -0.00     0.11   0.01   0.00    -0.03   0.04   0.02
  24   7     0.06  -0.02   0.03     0.07   0.04   0.02     0.00   0.05   0.00
  25  16     0.12   0.05   0.01     0.02   0.02  -0.08     0.06  -0.04   0.10
  26   7     0.06   0.04  -0.02     0.07  -0.10  -0.08    -0.00   0.09   0.03
  27   6     0.04   0.05  -0.03     0.09  -0.03  -0.08    -0.03   0.09   0.01
  28  16    -0.24   0.12  -0.02    -0.34  -0.10   0.20    -0.06   0.03  -0.01
  29  16    -0.08   0.02   0.01     0.40  -0.04  -0.05     0.00  -0.12  -0.08
  30  17    -0.01  -0.01   0.02     0.00   0.00  -0.01     0.00  -0.01   0.03
  31   1     0.02  -0.06  -0.03    -0.01   0.01   0.00     0.02  -0.10  -0.07
  32   1     0.00  -0.05   0.02     0.02   0.02  -0.00     0.05  -0.06   0.06
  33   1     0.01  -0.01  -0.01     0.00  -0.02  -0.01     0.01  -0.08  -0.06
  34   1     0.05  -0.02  -0.02    -0.04   0.03   0.01    -0.02   0.02  -0.03
  35   1     0.01   0.01  -0.05    -0.02  -0.01   0.02    -0.03   0.04  -0.03
  36   1     0.00  -0.10   0.09     0.05   0.08  -0.08    -0.03  -0.10   0.11
  37   1     0.09   0.04   0.11    -0.08  -0.02  -0.10     0.06   0.10   0.14
  38   1     0.03   0.09   0.01    -0.08  -0.05   0.02     0.01   0.00  -0.01
  39   1     0.03  -0.08   0.01    -0.06   0.04  -0.07     0.01  -0.08  -0.02
  40   1    -0.00   0.07   0.03    -0.00  -0.04   0.04     0.03   0.06   0.03
  41   1    -0.05  -0.04   0.01    -0.00   0.00   0.00    -0.04   0.05  -0.04
  42   1    -0.08  -0.05   0.02     0.00   0.00   0.01    -0.02  -0.00   0.09
  43   1    -0.11  -0.00  -0.04     0.00  -0.00   0.02    -0.04   0.04   0.04
  44   1     0.06  -0.11   0.01     0.05   0.07  -0.04     0.01   0.10  -0.04
  45   1     0.05   0.08  -0.01     0.05  -0.08   0.04     0.03  -0.08   0.02
  46   1    -0.08  -0.03   0.01    -0.06  -0.06   0.01     0.05  -0.02  -0.00
  47   1    -0.13  -0.13  -0.01    -0.09  -0.08   0.02     0.06   0.08   0.05
  48   1    -0.17   0.05   0.04    -0.12   0.05   0.07     0.08  -0.03   0.01
  49   1     0.03  -0.02  -0.02     0.03  -0.01  -0.04    -0.05   0.05  -0.02
  50   1    -0.02  -0.00  -0.05    -0.02  -0.07   0.04     0.01  -0.04   0.10
                     34                     35                     36
                        a                      a                      a 
 Frequencies --   403.9912               408.9570               433.0147
 Red. masses --    13.4563                13.6302                14.1377
 Frc consts  --     0.0000                 0.0000                 0.0000
 IR Inten    --     5.5982                 4.6728                 0.4237
 Raman Activ --     0.0000                 0.0000                 0.0000
 Depolar     --     0.0000                 0.0000                 0.0000
 Atom AN      X      Y      Z        X      Y      Z        X      Y      Z
   1   7     0.01  -0.12  -0.07    -0.01   0.11   0.07     0.00   0.00   0.00
   2   6    -0.13   0.10  -0.07     0.14  -0.11   0.06     0.08  -0.07  -0.00
   3   6    -0.02   0.11   0.13     0.02  -0.13  -0.10     0.16  -0.01   0.00
   4   6     0.00   0.14  -0.01    -0.00  -0.11  -0.02     0.12   0.17   0.04
   5   6     0.07  -0.13  -0.04    -0.02   0.16   0.04     0.06   0.03  -0.03
   6   6     0.06  -0.02   0.07    -0.03  -0.03  -0.00     0.02  -0.11  -0.02
   7   6     0.04   0.18   0.12    -0.03  -0.21  -0.05    -0.10   0.07   0.04
   8   6     0.08   0.15  -0.00     0.01  -0.10  -0.09    -0.06   0.18  -0.10
   9   6     0.01  -0.12  -0.05    -0.06   0.17   0.00    -0.27   0.01  -0.10
  10   6    -0.02  -0.04   0.03    -0.07  -0.02   0.04    -0.30  -0.09  -0.03
  11   6     0.07   0.03   0.02     0.10   0.02  -0.01     0.08   0.07  -0.17
  12   6    -0.06   0.14   0.05    -0.05  -0.25   0.00    -0.09  -0.02   0.13
  13   6    -0.11   0.11   0.05    -0.07  -0.05   0.01    -0.04  -0.01   0.08
  14   6    -0.07   0.07   0.09     0.05   0.18  -0.01    -0.08   0.13   0.04
  15   6    -0.06  -0.09   0.06     0.06  -0.07   0.05    -0.05  -0.05   0.14
  16   6     0.00   0.04  -0.02     0.03  -0.12   0.09     0.09  -0.05   0.02
  17   6     0.08   0.12   0.04     0.08  -0.10   0.22     0.04   0.02  -0.04
  18   6     0.25  -0.01  -0.02     0.11   0.05  -0.08    -0.01   0.03   0.04
  19   6    -0.17  -0.10  -0.03    -0.09  -0.05   0.00    -0.03   0.04   0.05
  20   6     0.25  -0.09  -0.06     0.09   0.08  -0.19    -0.03   0.00   0.03
  21   6     0.09  -0.07  -0.11     0.06  -0.20   0.16    -0.06   0.02   0.00
  22  16    -0.01   0.17   0.17    -0.04   0.20  -0.05    -0.07  -0.03   0.01
  23   6    -0.17  -0.06  -0.08    -0.18   0.03  -0.07     0.26   0.03   0.02
  24   7    -0.13  -0.10  -0.13    -0.11   0.06  -0.16     0.16   0.09   0.08
  25  16     0.02   0.02  -0.16     0.10  -0.12  -0.08    -0.14  -0.09  -0.10
  26   7    -0.09  -0.08   0.11    -0.07   0.10   0.06     0.13  -0.01  -0.24
  27   6    -0.15  -0.04   0.07    -0.17   0.05   0.03     0.23  -0.04  -0.14
  28  16     0.19  -0.07  -0.10     0.18   0.10   0.05     0.16  -0.06   0.06
  29  16    -0.07  -0.11  -0.02    -0.10   0.10   0.06    -0.18  -0.11   0.16
  30  17    -0.00  -0.01   0.02    -0.00   0.00  -0.02    -0.01   0.00   0.00
  31   1     0.01  -0.07  -0.05    -0.01   0.07   0.05    -0.00   0.01   0.01
  32   1     0.05  -0.03   0.05    -0.05   0.03  -0.05    -0.01  -0.00  -0.02
  33   1     0.01  -0.07  -0.05    -0.01   0.07   0.05     0.00   0.01   0.01
  34   1    -0.05   0.03  -0.02     0.06  -0.04   0.02     0.02  -0.02  -0.00
  35   1    -0.04   0.02  -0.01     0.04  -0.02   0.00     0.02  -0.04  -0.01
  36   1    -0.04  -0.07   0.09     0.02   0.04  -0.07     0.06  -0.01   0.00
  37   1     0.05   0.09   0.12    -0.03  -0.08  -0.09     0.06  -0.01   0.00
  38   1     0.04  -0.07  -0.03    -0.01   0.09   0.02     0.01   0.01  -0.00
  39   1     0.03  -0.01   0.03    -0.01  -0.01  -0.00     0.03  -0.07   0.01
  40   1    -0.01  -0.06  -0.04    -0.03   0.10  -0.00    -0.11   0.00  -0.06
  41   1     0.02   0.02  -0.01     0.03   0.01  -0.01     0.03   0.04  -0.09
  42   1     0.03   0.02  -0.00     0.04   0.03  -0.04     0.05   0.08  -0.14
  43   1     0.04   0.00   0.02     0.07  -0.01   0.03     0.12  -0.02   0.04
  44   1    -0.02   0.03   0.02     0.02   0.09  -0.02    -0.01   0.07  -0.01
  45   1    -0.04  -0.06   0.02     0.01  -0.05   0.02    -0.03  -0.03   0.04
  46   1    -0.07  -0.04  -0.01    -0.03  -0.04  -0.01    -0.01   0.01   0.01
  47   1    -0.09  -0.14  -0.05    -0.04  -0.06  -0.01    -0.01   0.01   0.01
  48   1    -0.13   0.06   0.04    -0.06   0.03   0.04    -0.01   0.01   0.01
  49   1     0.09  -0.04  -0.03     0.03   0.04  -0.09    -0.00  -0.01   0.01
  50   1    -0.00  -0.05  -0.06     0.01  -0.10   0.06    -0.02   0.01  -0.00
                     37                     38                     39
                        a                      a                      a 
 Frequencies --   448.6778               477.1223               486.4139
 Red. masses --    11.9415                12.8337                13.5486
 Frc consts  --     0.0000                 0.0000                 0.0000
 IR Inten    --     7.3619                10.4910                 7.9193
 Raman Activ --     0.0000                 0.0000                 0.0000
 Depolar     --     0.0000                 0.0000                 0.0000
 Atom AN      X      Y      Z        X      Y      Z        X      Y      Z
   1   7    -0.00  -0.06  -0.03    -0.01  -0.06  -0.04    -0.01  -0.04  -0.02
   2   6    -0.09   0.07  -0.03    -0.14   0.12  -0.03    -0.11   0.10  -0.02
   3   6     0.01   0.09   0.06    -0.05   0.11   0.06    -0.02   0.10   0.04
   4   6     0.03   0.02  -0.01    -0.01  -0.15  -0.07     0.00  -0.14  -0.06
   5   6     0.06  -0.17  -0.04     0.09  -0.19  -0.02     0.08  -0.15  -0.02
   6   6     0.06   0.12   0.05     0.10   0.24   0.12     0.08   0.21   0.10
   7   6     0.01   0.11   0.06     0.04  -0.11   0.02     0.02  -0.13   0.01
   8   6    -0.01  -0.08  -0.03     0.02  -0.29  -0.07     0.01  -0.25  -0.09
   9   6    -0.07  -0.13  -0.04    -0.04   0.10   0.03    -0.09   0.16   0.03
  10   6    -0.07   0.19   0.04    -0.05   0.08   0.01    -0.11  -0.02   0.01
  11   6    -0.02   0.00  -0.05    -0.05  -0.02  -0.03     0.03   0.02  -0.05
  12   6    -0.03   0.21   0.06    -0.04  -0.14  -0.03    -0.07  -0.23  -0.02
  13   6    -0.01  -0.12   0.04    -0.02  -0.17   0.05    -0.06   0.09  -0.02
  14   6     0.06  -0.22   0.10    -0.03   0.16  -0.03    -0.01   0.07   0.02
  15   6     0.05   0.31  -0.03    -0.02  -0.10   0.06    -0.00  -0.04   0.10
  16   6     0.05  -0.04   0.08     0.03  -0.12   0.03     0.03   0.15  -0.01
  17   6     0.06  -0.27   0.30    -0.00   0.13  -0.15     0.02  -0.06   0.05
  18   6    -0.04  -0.02   0.05     0.02   0.05  -0.05    -0.03  -0.01   0.04
  19   6     0.01   0.02   0.02    -0.04  -0.01   0.02     0.03   0.04   0.01
  20   6    -0.09   0.19  -0.19     0.04  -0.09   0.10    -0.04   0.05  -0.03
  21   6    -0.00  -0.16   0.25    -0.02   0.06  -0.10    -0.02  -0.01   0.05
  22  16    -0.03   0.05  -0.18    -0.02  -0.02   0.08     0.00  -0.05  -0.07
  23   6    -0.00  -0.01  -0.00     0.06  -0.09   0.04     0.04   0.21  -0.04
  24   7     0.01   0.16  -0.08     0.03   0.29  -0.06     0.06  -0.39   0.14
  25  16     0.02  -0.13  -0.11     0.02  -0.20   0.09    -0.05   0.23  -0.12
  26   7     0.00   0.05  -0.07     0.02   0.35  -0.15     0.04  -0.37   0.07
  27   6     0.01   0.00  -0.04     0.04  -0.13   0.02     0.02   0.16  -0.10
  28  16    -0.00  -0.03  -0.01    -0.03   0.10  -0.06     0.05   0.10  -0.01
  29  16     0.02  -0.04   0.03     0.08   0.05   0.02     0.04   0.05   0.05
  30  17    -0.00  -0.00   0.01     0.00  -0.00   0.01     0.00  -0.00   0.00
  31   1     0.00  -0.04  -0.03     0.00  -0.04  -0.03    -0.00  -0.04  -0.03
  32   1     0.03  -0.01   0.03     0.04  -0.01   0.05     0.03  -0.01   0.04
  33   1     0.00  -0.04  -0.03     0.00  -0.05  -0.04     0.00  -0.04  -0.03
  34   1    -0.05   0.03  -0.01    -0.08   0.05  -0.00    -0.07   0.04  -0.00
  35   1    -0.02  -0.00   0.01    -0.04   0.00   0.02    -0.03  -0.00   0.02
  36   1    -0.01  -0.02   0.04    -0.05  -0.02   0.06    -0.04  -0.02   0.04
  37   1     0.02   0.06   0.06     0.00   0.08   0.07     0.00   0.07   0.06
  38   1     0.02  -0.09  -0.03     0.05  -0.09  -0.02     0.04  -0.07  -0.02
  39   1     0.02   0.06   0.03     0.03   0.14   0.06     0.03   0.12   0.05
  40   1    -0.03  -0.08  -0.03    -0.02   0.07   0.01    -0.04   0.11   0.01
  41   1     0.01  -0.04   0.03    -0.01  -0.02   0.02     0.03   0.01  -0.03
  42   1    -0.01  -0.00  -0.06    -0.01   0.00  -0.03     0.01   0.01  -0.05
  43   1    -0.00  -0.02  -0.04    -0.01  -0.02  -0.02     0.04   0.00   0.02
  44   1     0.03  -0.12   0.04    -0.01   0.14  -0.04     0.01  -0.03   0.01
  45   1     0.01   0.18  -0.04    -0.01  -0.01   0.01     0.00  -0.10   0.05
  46   1     0.00   0.02   0.01    -0.02  -0.03  -0.00     0.02   0.03   0.01
  47   1     0.01   0.03   0.01    -0.01  -0.01   0.00     0.01   0.02   0.01
  48   1     0.02  -0.01  -0.01    -0.02   0.01   0.03     0.02   0.00  -0.02
  49   1    -0.03   0.10  -0.11     0.02  -0.06   0.06    -0.01   0.03  -0.02
  50   1     0.01  -0.05   0.09    -0.01   0.01  -0.03     0.00   0.01   0.02
                     40                     41                     42
                        a                      a                      a 
 Frequencies --   502.8279               508.5188               533.3641
 Red. masses --    16.1327                18.8351                13.0714
 Frc consts  --     0.0000                 0.0000                 0.0000
 IR Inten    --     4.9841                 6.1937                 2.7439
 Raman Activ --     0.0000                 0.0000                 0.0000
 Depolar     --     0.0000                 0.0000                 0.0000
 Atom AN      X      Y      Z        X      Y      Z        X      Y      Z
   1   7     0.00  -0.01  -0.01     0.00   0.01   0.00    -0.02  -0.02  -0.02
   2   6     0.04  -0.03  -0.01    -0.02   0.01   0.01    -0.13   0.12  -0.01
   3   6     0.14   0.03   0.01    -0.08  -0.02  -0.01    -0.12   0.06   0.03
   4   6     0.10   0.18   0.06    -0.06  -0.10  -0.03    -0.05  -0.44  -0.15
   5   6    -0.02  -0.14  -0.09     0.01   0.10   0.06     0.14   0.22   0.12
   6   6    -0.04   0.10  -0.05     0.02  -0.09   0.02     0.14  -0.13   0.05
   7   6    -0.09   0.12  -0.02     0.06  -0.04   0.02     0.05  -0.20   0.02
   8   6    -0.10  -0.11  -0.07     0.07   0.10   0.05    -0.00   0.28   0.10
   9   6    -0.11  -0.05  -0.06     0.03  -0.02   0.04    -0.14  -0.05   0.01
  10   6    -0.09   0.18  -0.04     0.02  -0.07   0.07    -0.15  -0.05  -0.18
  11   6    -0.02   0.06  -0.17     0.04  -0.03   0.12    -0.11   0.09  -0.30
  12   6     0.07   0.00   0.01    -0.08   0.04   0.01     0.03   0.12   0.00
  13   6     0.09  -0.03  -0.09    -0.09   0.05   0.14     0.05   0.05  -0.05
  14   6     0.26   0.04  -0.09     0.16   0.08   0.28     0.06  -0.05  -0.05
  15   6     0.26  -0.08  -0.10     0.14   0.08   0.25     0.06  -0.00  -0.11
  16   6     0.05   0.04  -0.00     0.19   0.07   0.12    -0.01  -0.03  -0.03
  17   6     0.02   0.07  -0.10     0.12   0.06  -0.09    -0.00   0.00  -0.00
  18   6    -0.05   0.10  -0.04    -0.04   0.17   0.03    -0.00   0.00  -0.00
  19   6     0.02   0.09   0.04    -0.02   0.19   0.14     0.00   0.00  -0.00
  20   6    -0.05  -0.06   0.11    -0.07  -0.02   0.13    -0.00  -0.01   0.00
  21   6    -0.06   0.08  -0.06    -0.12   0.08  -0.02    -0.00  -0.00  -0.00
  22  16     0.02  -0.20  -0.11    -0.02  -0.36  -0.24    -0.00   0.00   0.00
  23   6    -0.21  -0.01  -0.05    -0.06  -0.04  -0.03    -0.04  -0.05  -0.01
  24   7    -0.17  -0.08  -0.08    -0.04  -0.01  -0.10    -0.05   0.02  -0.02
  25  16     0.09   0.04   0.07    -0.02  -0.12  -0.33     0.01   0.02   0.07
  26   7    -0.12   0.04   0.16    -0.09   0.02   0.01    -0.01  -0.00   0.04
  27   6    -0.18   0.01   0.11    -0.09  -0.03   0.05    -0.02   0.01   0.02
  28  16     0.11  -0.07   0.35    -0.03   0.03  -0.20     0.09  -0.12   0.25
  29  16    -0.10  -0.08   0.11     0.05   0.04  -0.07     0.13   0.10   0.03
  30  17    -0.00   0.00   0.00     0.00  -0.00   0.00     0.00  -0.00   0.00
  31   1    -0.00  -0.00   0.00     0.00   0.00   0.00    -0.00  -0.03  -0.02
  32   1    -0.00  -0.00  -0.01    -0.00   0.00   0.00     0.03  -0.00   0.04
  33   1     0.00  -0.00   0.00    -0.00   0.00  -0.00    -0.00  -0.04  -0.03
  34   1    -0.00  -0.00  -0.00     0.01  -0.00   0.00    -0.08   0.05   0.00
  35   1     0.01  -0.03  -0.00    -0.01   0.02   0.00    -0.04   0.01   0.03
  36   1     0.06  -0.00  -0.00    -0.03   0.00  -0.00    -0.10  -0.02   0.05
  37   1     0.05  -0.00  -0.00    -0.03  -0.00  -0.00    -0.03   0.07   0.06
  38   1    -0.04  -0.10  -0.03     0.02   0.07   0.02     0.08   0.17   0.05
  39   1     0.00   0.04   0.00    -0.00  -0.04  -0.01     0.05  -0.04   0.03
  40   1    -0.02  -0.04  -0.01    -0.00  -0.01  -0.01    -0.03  -0.05   0.00
  41   1     0.02  -0.01  -0.02     0.00   0.00   0.02    -0.04   0.05  -0.12
  42   1    -0.01   0.02  -0.11     0.01  -0.01   0.05    -0.02   0.04  -0.09
  43   1     0.01  -0.01  -0.05     0.01  -0.00   0.04    -0.01   0.03  -0.05
  44   1     0.08   0.03  -0.04     0.08   0.02   0.05     0.01  -0.02  -0.00
  45   1     0.10  -0.03  -0.02     0.01   0.03   0.06     0.02   0.02  -0.03
  46   1     0.02  -0.00   0.00     0.01   0.03   0.03     0.00  -0.00  -0.00
  47   1     0.01   0.04   0.04    -0.00   0.07   0.06     0.00   0.00   0.00
  48   1     0.02   0.02   0.02     0.01   0.05   0.05     0.00   0.00   0.00
  49   1    -0.00  -0.05   0.06     0.01  -0.05   0.05    -0.00  -0.00   0.00
  50   1    -0.00   0.03   0.00    -0.01   0.05   0.02    -0.00  -0.00  -0.00
                     43                     44                     45
                        a                      a                      a 
 Frequencies --   551.2376               559.8506               567.3819
 Red. masses --    12.0954                11.9750                15.4950
 Frc consts  --     0.0000                 0.0000                 0.0000
 IR Inten    --     4.4831                 1.3741                 4.0932
 Raman Activ --     0.0000                 0.0000                 0.0000
 Depolar     --     0.0000                 0.0000                 0.0000
 Atom AN      X      Y      Z        X      Y      Z        X      Y      Z
   1   7     0.00  -0.00  -0.00    -0.00   0.00   0.00     0.01   0.01   0.01
   2   6     0.02  -0.01  -0.00    -0.02   0.02   0.00     0.02  -0.02   0.01
   3   6     0.06   0.01   0.00    -0.05  -0.01  -0.00    -0.05  -0.04  -0.01
   4   6     0.04   0.09   0.03    -0.03  -0.11  -0.04    -0.04   0.06   0.03
   5   6    -0.03  -0.12  -0.06     0.04   0.13   0.06    -0.01   0.00   0.04
   6   6    -0.03   0.16   0.00     0.04  -0.18  -0.01     0.00  -0.06   0.01
   7   6    -0.04  -0.19  -0.08     0.03   0.29   0.10     0.03   0.17   0.06
   8   6    -0.03  -0.03  -0.01     0.02  -0.09  -0.03    -0.02  -0.22   0.04
   9   6     0.04   0.19   0.03    -0.06  -0.12  -0.02     0.10   0.08   0.06
  10   6     0.04  -0.29  -0.13    -0.06   0.26   0.11     0.10  -0.06  -0.25
  11   6    -0.00   0.01  -0.04     0.01   0.00   0.02    -0.12   0.07  -0.27
  12   6     0.04   0.05  -0.01    -0.05  -0.13  -0.01     0.14   0.06  -0.09
  13   6     0.02   0.35  -0.03    -0.04  -0.10  -0.08     0.10  -0.07   0.23
  14   6     0.02  -0.18   0.14     0.04  -0.01  -0.08     0.03   0.13   0.20
  15   6    -0.01   0.21   0.00     0.06   0.10   0.13    -0.03  -0.04   0.16
  16   6     0.00  -0.28   0.15    -0.02  -0.08   0.22    -0.04   0.22   0.02
  17   6    -0.03  -0.02  -0.00    -0.09  -0.11   0.07    -0.10  -0.02  -0.04
  18   6    -0.05   0.10  -0.22    -0.12   0.10  -0.37    -0.06  -0.17   0.01
  19   6     0.00  -0.06  -0.05     0.04  -0.17  -0.15     0.04  -0.16  -0.12
  20   6     0.02  -0.11   0.13    -0.02  -0.13   0.21    -0.05   0.07  -0.03
  21   6     0.00   0.07  -0.08     0.01   0.13  -0.10     0.03   0.02   0.06
  22  16    -0.02   0.09   0.10    -0.00   0.15   0.14     0.01   0.11   0.08
  23   6     0.00  -0.20   0.07    -0.02   0.12   0.06     0.01   0.07   0.00
  24   7     0.01   0.17  -0.05     0.05  -0.03   0.06     0.06  -0.05   0.01
  25  16    -0.03  -0.06  -0.16     0.09  -0.00  -0.11    -0.10  -0.12  -0.35
  26   7    -0.01  -0.14   0.06     0.01  -0.09  -0.02    -0.07   0.10   0.02
  27   6     0.00   0.17  -0.03    -0.04   0.11  -0.10     0.04  -0.11   0.12
  28  16     0.03  -0.02   0.12     0.01   0.03  -0.05     0.00  -0.03   0.22
  29  16    -0.04   0.01   0.04     0.03  -0.03  -0.03     0.04  -0.01  -0.09
  30  17    -0.00  -0.00   0.00     0.00   0.00   0.00     0.00   0.00  -0.00
  31   1    -0.00   0.00  -0.00     0.00  -0.00  -0.00     0.00   0.01   0.01
  32   1    -0.00  -0.00  -0.00     0.00   0.00   0.01    -0.01   0.00  -0.01
  33   1     0.00  -0.00   0.00    -0.00  -0.00  -0.00     0.00   0.01   0.01
  34   1    -0.00  -0.00  -0.00    -0.00   0.00   0.00     0.03  -0.02  -0.00
  35   1     0.01  -0.01  -0.00    -0.01   0.01   0.00     0.00   0.02  -0.01
  36   1     0.03   0.00  -0.00    -0.03  -0.00   0.01    -0.00   0.01  -0.01
  37   1     0.02  -0.00  -0.00    -0.02   0.01   0.01    -0.02  -0.03  -0.02
  38   1    -0.02  -0.07  -0.02     0.02   0.07   0.02     0.01  -0.01   0.00
  39   1    -0.01   0.10   0.02     0.01  -0.12  -0.02    -0.01  -0.05  -0.01
  40   1     0.03   0.13   0.04    -0.03  -0.07  -0.03     0.08   0.07   0.08
  41   1    -0.03   0.06  -0.09     0.04  -0.06   0.07    -0.06   0.04  -0.10
  42   1     0.01   0.02   0.05    -0.01  -0.01  -0.06    -0.04   0.01  -0.00
  43   1     0.00   0.03   0.03     0.00  -0.03  -0.03    -0.07   0.05  -0.10
  44   1     0.01  -0.14   0.07     0.05  -0.01  -0.05    -0.01   0.08   0.06
  45   1    -0.01   0.15  -0.03     0.06   0.05   0.05    -0.02  -0.06   0.05
  46   1     0.01  -0.09  -0.04     0.04  -0.16  -0.07     0.02  -0.01  -0.02
  47   1     0.00   0.00   0.03     0.02   0.00   0.04     0.02  -0.02  -0.04
  48   1     0.00  -0.01   0.03     0.03  -0.06   0.01     0.03  -0.07  -0.07
  49   1     0.00  -0.06   0.10    -0.02  -0.07   0.17    -0.04   0.06  -0.01
  50   1    -0.00  -0.01  -0.00     0.00  -0.01   0.02     0.00   0.01   0.00
                     46                     47                     48
                        a                      a                      a 
 Frequencies --   568.4804               585.6068               593.9156
 Red. masses --    11.9637                12.8464                12.7083
 Frc consts  --     0.0000                 0.0000                 0.0000
 IR Inten    --     0.3030                10.7918                 3.4339
 Raman Activ --     0.0000                 0.0000                 0.0000
 Depolar     --     0.0000                 0.0000                 0.0000
 Atom AN      X      Y      Z        X      Y      Z        X      Y      Z
   1   7     0.00  -0.01  -0.01    -0.03  -0.05  -0.04     0.02   0.03   0.02
   2   6     0.01  -0.01  -0.01    -0.06   0.08  -0.03     0.02  -0.04   0.02
   3   6     0.07   0.02   0.00     0.23   0.17   0.02    -0.16  -0.11  -0.01
   4   6     0.04   0.08   0.02     0.16  -0.33  -0.12    -0.11   0.18   0.06
   5   6    -0.03  -0.13  -0.07    -0.04   0.16  -0.14     0.05  -0.09   0.10
   6   6    -0.03   0.22   0.02    -0.06  -0.04  -0.20     0.06  -0.00   0.13
   7   6    -0.04  -0.50  -0.16    -0.13   0.14  -0.10     0.09  -0.03   0.09
   8   6    -0.01   0.45   0.10    -0.08  -0.07  -0.14     0.07  -0.07   0.00
   9   6     0.03  -0.15  -0.06     0.04   0.12  -0.08    -0.16   0.09   0.09
  10   6     0.04   0.09   0.04     0.05  -0.17   0.08    -0.17  -0.21   0.02
  11   6     0.02  -0.00   0.05     0.11  -0.07   0.22    -0.00  -0.01   0.02
  12   6     0.02   0.03   0.01    -0.00   0.11   0.07    -0.14   0.20   0.07
  13   6     0.02  -0.18   0.03     0.01   0.08  -0.08    -0.12   0.09  -0.30
  14   6     0.05   0.08  -0.02     0.09  -0.02  -0.02     0.05  -0.09  -0.22
  15   6     0.05  -0.03   0.13     0.09  -0.01   0.06     0.11   0.02   0.15
  16   6    -0.03   0.19   0.08    -0.01   0.19   0.04    -0.01   0.26   0.13
  17   6    -0.09  -0.07   0.03    -0.08   0.04  -0.09    -0.08   0.06  -0.08
  18   6    -0.09  -0.06  -0.13    -0.05  -0.15   0.05    -0.04  -0.13   0.05
  19   6     0.04  -0.15  -0.13     0.03  -0.12  -0.09     0.03  -0.10  -0.08
  20   6    -0.04   0.00   0.06    -0.06   0.07  -0.03    -0.05   0.07  -0.02
  21   6     0.02   0.06   0.01     0.01   0.01   0.07     0.01   0.02   0.06
  22  16     0.01   0.09   0.07     0.01   0.04   0.04     0.02  -0.01  -0.01
  23   6    -0.03   0.14   0.02    -0.04  -0.07   0.06    -0.07  -0.10   0.13
  24   7     0.03  -0.07   0.05    -0.01   0.03   0.00    -0.02   0.07   0.04
  25  16     0.04  -0.04  -0.14     0.05  -0.04  -0.06     0.20   0.01   0.07
  26   7    -0.03   0.06  -0.03    -0.03   0.05  -0.01    -0.01   0.03  -0.10
  27   6    -0.02  -0.09   0.02    -0.04  -0.12   0.04    -0.10  -0.18  -0.07
  28  16    -0.03  -0.06  -0.03    -0.05   0.01  -0.03     0.12   0.00  -0.05
  29  16    -0.04   0.05   0.06    -0.10  -0.05   0.30     0.05   0.02  -0.17
  30  17    -0.00  -0.00   0.00    -0.00  -0.00   0.01     0.00   0.00  -0.01
  31   1    -0.00  -0.00  -0.00    -0.02  -0.04  -0.03     0.01   0.02   0.02
  32   1     0.00  -0.00  -0.00     0.03  -0.01   0.03    -0.01   0.00  -0.02
  33   1     0.00  -0.00   0.00    -0.00  -0.05  -0.02     0.00   0.03   0.01
  34   1    -0.01   0.00  -0.00    -0.14   0.08   0.00     0.08  -0.05  -0.00
  35   1     0.00  -0.02   0.00    -0.01  -0.11   0.05     0.00   0.07  -0.03
  36   1     0.03   0.00   0.00     0.01  -0.01   0.05    -0.02   0.00  -0.03
  37   1     0.02   0.01   0.00     0.07   0.10   0.06    -0.05  -0.06  -0.03
  38   1    -0.02  -0.05  -0.02    -0.06   0.10   0.00     0.05  -0.05   0.00
  39   1    -0.01   0.18   0.04     0.00  -0.04  -0.05     0.01   0.00   0.03
  40   1     0.01  -0.15  -0.04     0.00   0.09  -0.02    -0.08   0.08   0.00
  41   1     0.01  -0.02   0.04     0.02   0.01   0.03    -0.01   0.04  -0.05
  42   1    -0.00  -0.01   0.01     0.04  -0.01   0.08     0.02   0.04  -0.01
  43   1    -0.01  -0.01  -0.01     0.05  -0.01   0.09     0.05  -0.01   0.07
  44   1     0.03   0.06  -0.03     0.05  -0.02  -0.02     0.09  -0.07  -0.11
  45   1     0.04  -0.04   0.06     0.06  -0.02   0.04     0.11  -0.02   0.08
  46   1     0.03  -0.07  -0.04     0.01   0.01  -0.02     0.01   0.01  -0.01
  47   1     0.02  -0.01  -0.00     0.02  -0.02  -0.04     0.02  -0.01  -0.03
  48   1     0.03  -0.06  -0.04     0.03  -0.06  -0.06     0.03  -0.05  -0.05
  49   1    -0.04   0.02   0.05    -0.04   0.06  -0.02    -0.03   0.05  -0.01
  50   1     0.01   0.01   0.01     0.00   0.02  -0.00     0.00   0.03  -0.00
                     49                     50                     51
                        a                      a                      a 
 Frequencies --   597.7671               613.2512               629.8558
 Red. masses --    11.5800                14.1829                11.7500
 Frc consts  --     0.0000                 0.0000                 0.0000
 IR Inten    --     0.3976                 4.7089                 4.8421
 Raman Activ --     0.0000                 0.0000                 0.0000
 Depolar     --     0.0000                 0.0000                 0.0000
 Atom AN      X      Y      Z        X      Y      Z        X      Y      Z
   1   7     0.00   0.00   0.00     0.01   0.01   0.01    -0.00  -0.00  -0.00
   2   6     0.00  -0.00   0.00     0.00  -0.01   0.01     0.00   0.00  -0.00
   3   6    -0.01  -0.01  -0.00    -0.07  -0.04  -0.00     0.02   0.01  -0.00
   4   6    -0.01   0.01   0.00    -0.04   0.05   0.02     0.01  -0.01  -0.00
   5   6     0.00  -0.00   0.01     0.04  -0.03   0.05    -0.02   0.01  -0.02
   6   6     0.01  -0.00   0.01     0.04  -0.01   0.06    -0.02   0.01  -0.01
   7   6     0.01  -0.02   0.00     0.03  -0.01   0.04    -0.01  -0.00  -0.01
   8   6     0.01   0.10   0.02     0.01  -0.01  -0.01    -0.00  -0.03   0.01
   9   6     0.00  -0.15  -0.04    -0.16   0.02   0.04     0.04   0.05   0.02
  10   6     0.00   0.32   0.07    -0.14  -0.09   0.09     0.04  -0.14  -0.06
  11   6    -0.01   0.03  -0.03     0.05  -0.03   0.11     0.00  -0.01  -0.02
  12   6    -0.01  -0.38  -0.11    -0.04   0.09   0.13     0.01   0.31   0.06
  13   6    -0.03   0.25  -0.07     0.10  -0.05   0.17     0.00  -0.45   0.03
  14   6     0.04  -0.02   0.06     0.32   0.08   0.19    -0.05   0.00  -0.12
  15   6     0.01   0.06   0.10     0.27  -0.07  -0.30    -0.02   0.08   0.12
  16   6     0.02  -0.15   0.13     0.12  -0.19  -0.17     0.00  -0.37   0.25
  17   6    -0.08   0.26  -0.36    -0.01  -0.02  -0.17    -0.06   0.22  -0.24
  18   6     0.02  -0.25   0.26    -0.06  -0.14  -0.01     0.02  -0.07   0.14
  19   6     0.02  -0.08  -0.03     0.06  -0.18  -0.14    -0.01   0.05   0.05
  20   6    -0.04   0.11  -0.13    -0.06   0.09   0.04    -0.02  -0.02  -0.08
  21   6     0.01  -0.06   0.10    -0.05   0.07   0.09     0.03  -0.08  -0.02
  22  16     0.00   0.03   0.06    -0.11   0.15   0.14     0.05  -0.00   0.02
  23   6     0.01  -0.17   0.09     0.04   0.02  -0.16    -0.06   0.29  -0.02
  24   7     0.02   0.11  -0.00    -0.05  -0.06  -0.09    -0.03  -0.08   0.07
  25  16     0.01  -0.04  -0.12    -0.16   0.03   0.08     0.11   0.01  -0.05
[...]
  29  16    -0.00  -0.00   0.00    -0.00  -0.00  -0.00     0.00  -0.00   0.00
  30  17     0.00   0.00   0.00     0.00   0.00   0.00     0.00   0.00   0.00
  31   1     0.00   0.00  -0.00     0.00   0.00  -0.00    -0.00  -0.00   0.00
  32   1    -0.00   0.00  -0.00     0.00  -0.00  -0.00    -0.00   0.00   0.00
  33   1     0.00   0.00  -0.00     0.00   0.00  -0.00    -0.00  -0.00  -0.00
  34   1    -0.00  -0.00   0.00     0.00  -0.00   0.00    -0.00  -0.00   0.00
  35   1     0.00  -0.00  -0.00    -0.00  -0.00   0.00     0.00   0.00  -0.00
  36   1     0.00   0.00   0.00     0.00   0.00   0.00     0.00   0.00   0.00
  37   1    -0.00  -0.00   0.00    -0.00  -0.00   0.00    -0.00  -0.00   0.00
  38   1     0.00  -0.00   0.00    -0.00   0.00  -0.00     0.00  -0.00   0.00
  39   1    -0.00  -0.00   0.00     0.00   0.00  -0.00     0.00   0.00  -0.00
  40   1     0.00   0.00  -0.00    -0.00  -0.00   0.00    -0.00  -0.00   0.00
  41   1    -0.14  -0.65  -0.46     0.02   0.07   0.05    -0.01  -0.02  -0.01
  42   1     0.18  -0.06  -0.01    -0.03   0.01   0.00     0.03  -0.02  -0.00
  43   1    -0.31  -0.24   0.23     0.03   0.02  -0.02     0.01   0.01  -0.01
  44   1     0.00   0.00   0.00    -0.00  -0.00  -0.00     0.00   0.00   0.00
  45   1     0.00   0.00   0.00     0.00  -0.00  -0.00    -0.00   0.00   0.00
  46   1     0.00  -0.02   0.06     0.04  -0.17   0.62    -0.03  -0.11   0.37
  47   1    -0.00   0.01  -0.00     0.06   0.01  -0.02     0.69  -0.31   0.13
  48   1    -0.05  -0.05   0.01    -0.50  -0.48   0.09     0.27   0.31  -0.09
  49   1     0.00   0.00   0.00     0.01   0.01   0.00    -0.01  -0.01  -0.01
  50   1    -0.00   0.00   0.00     0.00   0.00  -0.00     0.00  -0.00  -0.00
                    133                    134                    135
                        a                      a                      a 
 Frequencies --  3000.4804              3011.8890              3013.1864
 Red. masses --     1.9344                 1.2552                 1.2691
 Frc consts  --     0.0000                 0.0000                 0.0000
 IR Inten    --     3.9174               129.1407                47.1076
 Raman Activ --     0.0000                 0.0000                 0.0000
 Depolar     --     0.0000                 0.0000                 0.0000
 Atom AN      X      Y      Z        X      Y      Z        X      Y      Z
   1   7    -0.00  -0.00   0.00     0.00  -0.00  -0.00     0.00   0.00  -0.00
   2   6     0.00  -0.00   0.00    -0.00   0.00  -0.00    -0.00   0.00  -0.00
   3   6    -0.00  -0.00   0.00    -0.00   0.00  -0.00     0.00   0.00  -0.00
   4   6     0.00  -0.00   0.00    -0.00   0.00  -0.00     0.00   0.00  -0.00
   5   6    -0.00   0.00  -0.00    -0.00   0.00   0.00     0.00  -0.00   0.00
   6   6     0.00   0.00  -0.00    -0.00  -0.00   0.00     0.00   0.00  -0.00
   7   6    -0.00  -0.00  -0.00    -0.00   0.00  -0.00    -0.00   0.00  -0.00
   8   6     0.00  -0.00   0.00    -0.00  -0.00  -0.00     0.00  -0.00   0.00
   9   6     0.00   0.00  -0.00     0.00  -0.00   0.00     0.00   0.00  -0.00
  10   6    -0.01   0.00   0.00    -0.00   0.00  -0.00     0.00  -0.00   0.01
  11   6    -0.26   0.04   0.13    -0.01   0.01  -0.02     0.07  -0.07   0.11
  12   6     0.00  -0.00  -0.00    -0.00  -0.00   0.00     0.00   0.00  -0.00
  13   6     0.00   0.00   0.00     0.00  -0.00  -0.00    -0.00   0.00   0.00
  14   6     0.00   0.00   0.00    -0.00  -0.00   0.00    -0.00  -0.00  -0.00
  15   6    -0.00   0.00   0.00     0.00   0.00   0.00    -0.00   0.00   0.00
  16   6     0.00   0.00   0.00    -0.00   0.00  -0.00     0.00  -0.00  -0.00
  17   6    -0.00   0.00  -0.00     0.00   0.00   0.00    -0.00   0.00   0.00
  18   6     0.00   0.00   0.00     0.00  -0.01  -0.01     0.00  -0.00  -0.00
  19   6     0.01   0.00   0.00     0.04  -0.10  -0.10     0.00  -0.02  -0.01
  20   6    -0.00  -0.00  -0.00     0.00   0.00   0.00     0.00   0.00   0.00
  21   6     0.00   0.00   0.00    -0.00  -0.00  -0.00     0.00  -0.00  -0.00
  22  16     0.00  -0.00  -0.00     0.00  -0.00  -0.00     0.00  -0.00  -0.00
  23   6     0.00   0.00  -0.00     0.00   0.00   0.00     0.00  -0.00   0.00
  24   7    -0.00   0.00   0.00    -0.00   0.00  -0.00    -0.00   0.00  -0.00
  25  16     0.00   0.00   0.00     0.00   0.00   0.00     0.00  -0.00  -0.00
  26   7    -0.00  -0.00  -0.00    -0.00  -0.00  -0.00     0.00   0.00   0.00
  27   6    -0.00  -0.00  -0.00     0.00  -0.00  -0.00     0.00  -0.00  -0.00
  28  16    -0.00   0.00  -0.00     0.00   0.00   0.00     0.00   0.00   0.00
  29  16     0.00   0.00  -0.00     0.00  -0.00  -0.00    -0.00  -0.00   0.00
  30  17    -0.00   0.00   0.00    -0.00   0.00   0.00     0.00  -0.00  -0.00
  31   1     0.00   0.00  -0.00     0.00  -0.00  -0.00    -0.00  -0.00   0.00
  32   1     0.00  -0.00  -0.00    -0.00   0.00   0.00     0.00  -0.00  -0.00
  33   1     0.00  -0.00   0.00    -0.00  -0.00  -0.00    -0.00   0.00   0.00
  34   1     0.00   0.00  -0.00    -0.00  -0.00   0.00    -0.00  -0.00   0.00
  35   1    -0.00  -0.00   0.00     0.00   0.00  -0.00     0.00   0.00  -0.00
  36   1    -0.00  -0.00  -0.00     0.00   0.00   0.00     0.00   0.00  -0.00
  37   1     0.00   0.00  -0.00    -0.00  -0.00   0.00    -0.00  -0.00   0.00
  38   1     0.00  -0.00   0.00     0.00  -0.00   0.00    -0.00   0.00  -0.00
  39   1    -0.00  -0.00   0.00     0.00   0.00  -0.00    -0.00  -0.00   0.00
  40   1    -0.01  -0.00   0.01     0.00   0.00  -0.00    -0.01  -0.00   0.01
  41   1    -0.08  -0.17  -0.10     0.01   0.06   0.04    -0.07  -0.39  -0.25
  42   1     0.57  -0.35  -0.06     0.09  -0.05  -0.01    -0.57   0.33   0.08
  43   1     0.42   0.40  -0.30    -0.06  -0.05   0.04     0.38   0.31  -0.24
  44   1    -0.00  -0.00  -0.00     0.00   0.00   0.00     0.00   0.00   0.00
  45   1     0.00  -0.00  -0.00     0.00  -0.00  -0.00     0.00  -0.00  -0.00
  46   1     0.00   0.00  -0.01     0.02  -0.19   0.57     0.00  -0.03   0.09
  47   1    -0.03   0.01  -0.01    -0.52   0.21  -0.12    -0.08   0.03  -0.02
  48   1    -0.02  -0.02   0.01     0.37   0.35  -0.09     0.06   0.06  -0.02
  49   1     0.00   0.00   0.00    -0.01  -0.01  -0.00    -0.00  -0.00  -0.00
  50   1    -0.00   0.00   0.00     0.00  -0.00  -0.00    -0.00   0.00   0.00
                    136                    137                    138
                        a                      a                      a 
 Frequencies --  3080.1668              3081.6357              3096.0916
 Red. masses --     1.8399                 1.8203                 1.8850
 Frc consts  --     0.0000                 0.0000                 0.0000
 IR Inten    --    55.0083                27.9102                 8.6006
 Raman Activ --     0.0000                 0.0000                 0.0000
 Depolar     --     0.0000                 0.0000                 0.0000
 Atom AN      X      Y      Z        X      Y      Z        X      Y      Z
   1   7    -0.00   0.00   0.00    -0.00  -0.00   0.00    -0.00   0.00  -0.00
   2   6    -0.00  -0.00   0.00     0.00   0.00  -0.00     0.00   0.00  -0.00
   3   6    -0.00  -0.00   0.00    -0.00  -0.00  -0.00     0.00   0.00  -0.00
   4   6     0.00  -0.00  -0.00    -0.01   0.00   0.00    -0.01  -0.00   0.00
   5   6     0.00  -0.00   0.01    -0.10   0.06  -0.23    -0.04   0.03  -0.09
   6   6     0.00   0.00  -0.00    -0.06  -0.02   0.07     0.18   0.04  -0.18
   7   6     0.00  -0.00  -0.00    -0.00   0.00  -0.00     0.01  -0.00   0.00
   8   6     0.00   0.00  -0.00    -0.00   0.00  -0.00    -0.00   0.00  -0.00
   9   6     0.00   0.00  -0.00     0.00  -0.00   0.00    -0.03  -0.01   0.03
  10   6    -0.00   0.00   0.00    -0.00  -0.00  -0.00     0.00  -0.00   0.00
  11   6    -0.00   0.00  -0.00     0.00  -0.00   0.00    -0.00  -0.00   0.00
  12   6     0.00   0.00  -0.00     0.00   0.00  -0.00    -0.00  -0.00   0.00
  13   6    -0.00   0.00   0.00     0.00   0.00   0.00     0.00  -0.00   0.00
  14   6     0.00   0.00   0.00    -0.00  -0.00  -0.00     0.00   0.00   0.00
  15   6     0.00  -0.00  -0.00    -0.00   0.00   0.00    -0.00   0.00   0.00
  16   6     0.00   0.00   0.00     0.00   0.00   0.00     0.00  -0.00  -0.00
  17   6    -0.00  -0.00  -0.00    -0.00  -0.00  -0.00    -0.00  -0.00  -0.00
  18   6    -0.00   0.01   0.01    -0.00   0.00   0.00     0.00   0.00   0.00
  19   6     0.01   0.00   0.00     0.00   0.00   0.00     0.00  -0.00  -0.00
  20   6     0.22   0.14   0.08     0.01   0.01   0.00     0.00   0.00   0.00
  21   6    -0.02   0.01   0.01    -0.00   0.00   0.00    -0.00   0.00   0.00
  22  16    -0.00  -0.00  -0.00    -0.00  -0.00  -0.00     0.00  -0.00   0.00
  23   6    -0.00  -0.00  -0.00    -0.00  -0.00  -0.00     0.00   0.00   0.00
  24   7     0.00   0.00   0.00    -0.00   0.00   0.00    -0.00   0.00   0.00
  25  16    -0.00  -0.00   0.00     0.00   0.00   0.00    -0.00  -0.00  -0.00
  26   7     0.00  -0.00  -0.00    -0.00   0.00   0.00     0.00   0.00  -0.00
  27   6    -0.00  -0.00   0.00    -0.00  -0.00  -0.00    -0.00  -0.00  -0.00
  28  16    -0.00  -0.00  -0.00     0.00   0.00  -0.00    -0.00   0.00  -0.00
  29  16    -0.00   0.00  -0.00     0.00  -0.00   0.00    -0.00  -0.00   0.00
  30  17     0.00  -0.00  -0.00     0.00  -0.00   0.00     0.00   0.00  -0.00
  31   1    -0.00   0.00  -0.00    -0.00   0.00  -0.00    -0.00  -0.00   0.00
  32   1     0.00  -0.00  -0.00     0.00  -0.00  -0.00     0.00  -0.00  -0.00
  33   1     0.00   0.00   0.00     0.00   0.00  -0.00     0.00   0.00  -0.00
  34   1     0.00   0.00  -0.00    -0.00  -0.00   0.00    -0.00  -0.00   0.00
  35   1     0.00   0.00  -0.00    -0.00   0.00   0.00     0.00   0.00  -0.00
  36   1    -0.00  -0.00  -0.00     0.01   0.00   0.01     0.00   0.00   0.00
  37   1     0.00   0.00  -0.00    -0.00  -0.00   0.00    -0.00  -0.00   0.00
  38   1    -0.01   0.01  -0.03     0.35  -0.21   0.80     0.13  -0.08   0.31
  39   1    -0.01  -0.00   0.01     0.24   0.06  -0.25    -0.61  -0.15   0.62
  40   1    -0.00  -0.00   0.00    -0.00  -0.00   0.00     0.10   0.02  -0.10
  41   1     0.00   0.00   0.00    -0.00  -0.00  -0.00    -0.00  -0.00   0.00
  42   1     0.00  -0.00  -0.00    -0.00   0.00   0.00    -0.00  -0.00   0.00
  43   1    -0.00  -0.00   0.00     0.00   0.00  -0.00     0.00   0.00  -0.00
  44   1    -0.00  -0.00  -0.00     0.00   0.00   0.00    -0.00  -0.00  -0.00
  45   1    -0.00   0.00   0.01     0.00  -0.00  -0.00     0.00  -0.00  -0.00
  46   1     0.00   0.00  -0.01     0.00   0.00  -0.00     0.00  -0.00   0.00
  47   1    -0.00   0.00  -0.00    -0.00   0.00  -0.00    -0.00   0.00  -0.00
  48   1    -0.02  -0.02   0.00    -0.00  -0.00   0.00     0.00   0.00  -0.00
  49   1    -0.78  -0.48  -0.26    -0.03  -0.02  -0.01    -0.00  -0.00  -0.00
  50   1     0.09  -0.05  -0.05     0.00  -0.00  -0.00     0.00  -0.00  -0.00
                    139                    140                    141
                        a                      a                      a 
 Frequencies --  3100.5406              3112.3918              3123.0119
 Red. masses --     1.8528                 1.7808                 1.8643
 Frc consts  --     0.0000                 0.0000                 0.0000
 IR Inten    --     8.8311                17.1064                19.4576
 Raman Activ --     0.0000                 0.0000                 0.0000
 Depolar     --     0.0000                 0.0000                 0.0000
 Atom AN      X      Y      Z        X      Y      Z        X      Y      Z
   1   7    -0.00   0.00  -0.00     0.00  -0.00   0.00     0.00   0.00   0.00
   2   6    -0.00   0.00  -0.00     0.00  -0.00   0.00     0.00  -0.00   0.00
   3   6     0.00   0.00  -0.00     0.00  -0.00   0.00     0.00   0.00   0.00
   4   6    -0.00  -0.00   0.00     0.00   0.00  -0.00    -0.00  -0.00   0.00
   5   6    -0.01   0.00  -0.01     0.00  -0.00   0.00    -0.00   0.00  -0.00
   6   6     0.03   0.01  -0.03     0.00   0.00  -0.00     0.00   0.00  -0.00
   7   6     0.00  -0.00   0.00     0.00  -0.00   0.00    -0.00  -0.00   0.00
   8   6     0.01  -0.00   0.00     0.00   0.00   0.00     0.00  -0.00   0.00
   9   6     0.19   0.05  -0.19     0.00   0.00  -0.00     0.00   0.00  -0.00
  10   6    -0.00   0.00  -0.01    -0.00   0.00  -0.00     0.00   0.00  -0.00
  11   6     0.00   0.00  -0.00     0.00  -0.00  -0.00    -0.00  -0.00   0.00
  12   6    -0.00  -0.00   0.00    -0.00   0.00   0.00    -0.00   0.00  -0.00
  13   6     0.00   0.00  -0.00    -0.01  -0.00  -0.00    -0.01  -0.00   0.00
  14   6     0.00   0.00   0.00    -0.09  -0.04  -0.12    -0.13  -0.06  -0.17
  15   6     0.00  -0.00  -0.00    -0.08   0.06   0.19     0.06  -0.04  -0.15
  16   6     0.00  -0.00  -0.00    -0.01   0.00   0.00     0.01   0.00  -0.00
  17   6     0.00   0.00   0.00    -0.00   0.00  -0.00    -0.00  -0.00  -0.00
  18   6    -0.00  -0.00  -0.00     0.00   0.00   0.00    -0.00  -0.00  -0.00
  19   6    -0.00   0.00   0.00    -0.00  -0.00   0.00     0.00   0.00  -0.00
  20   6    -0.00  -0.00  -0.00     0.00   0.00   0.00     0.00   0.00   0.00
  21   6    -0.00   0.00   0.00    -0.00   0.00   0.00     0.00  -0.00  -0.00
  22  16    -0.00   0.00   0.00     0.00  -0.00  -0.00    -0.00   0.00   0.00
  23   6    -0.00   0.00   0.00     0.00  -0.00  -0.00    -0.00   0.00   0.00
  24   7     0.00   0.00   0.00    -0.00   0.00   0.00     0.00  -0.00  -0.00
  25  16    -0.00  -0.00  -0.00     0.00  -0.00  -0.00     0.00   0.00   0.00
  26   7     0.00  -0.00  -0.00    -0.00  -0.00  -0.00    -0.00   0.00  -0.00
  27   6    -0.00  -0.00  -0.00     0.00   0.00   0.00     0.00   0.00   0.00
  28  16    -0.00  -0.00   0.00     0.00  -0.00   0.00     0.00  -0.00   0.00
  29  16    -0.00  -0.00   0.00     0.00   0.00  -0.00    -0.00   0.00   0.00
  30  17     0.00   0.00  -0.00    -0.00  -0.00   0.00    -0.00  -0.00   0.00
  31   1    -0.00  -0.00   0.00     0.00   0.00  -0.00     0.00   0.00  -0.00
  32   1    -0.00   0.00   0.00    -0.00   0.00   0.00     0.00  -0.00  -0.00
  33   1     0.00   0.00  -0.00    -0.00  -0.00   0.00    -0.00  -0.00   0.00
  34   1    -0.00  -0.00   0.00     0.00   0.00  -0.00     0.00   0.00  -0.00
  35   1     0.00   0.00  -0.00    -0.00   0.00   0.00    -0.00  -0.00   0.00
  36   1     0.00   0.00   0.00    -0.00  -0.00  -0.00    -0.00  -0.00  -0.00
  37   1    -0.00  -0.00   0.00     0.00   0.00  -0.00    -0.00  -0.00  -0.00
  38   1     0.02  -0.01   0.04    -0.00   0.00  -0.00     0.00  -0.00   0.00
  39   1    -0.09  -0.02   0.09    -0.00  -0.00   0.00    -0.00  -0.00   0.00
  40   1    -0.66  -0.16   0.67    -0.01  -0.00   0.01    -0.01  -0.00   0.01
  41   1     0.00   0.00   0.00     0.00   0.00   0.00    -0.00   0.00   0.00
  42   1    -0.00   0.00   0.00     0.00  -0.00  -0.00     0.00  -0.00  -0.00
  43   1    -0.01  -0.01   0.01    -0.00  -0.00   0.00     0.00   0.00  -0.00
  44   1    -0.01  -0.01  -0.01     0.33   0.15   0.43     0.46   0.20   0.59
  45   1    -0.00   0.00   0.01     0.29  -0.20  -0.69    -0.21   0.15   0.50
  46   1    -0.00   0.00  -0.00    -0.00   0.00  -0.00     0.00   0.00   0.00
  47   1     0.00  -0.00   0.00     0.00  -0.00   0.00    -0.00   0.00  -0.00
  48   1    -0.00  -0.00   0.00    -0.00  -0.00   0.00    -0.00  -0.00   0.00
  49   1     0.00   0.00   0.00    -0.01  -0.00  -0.00    -0.00  -0.00  -0.00
  50   1     0.00  -0.00  -0.00     0.01  -0.01  -0.01    -0.02   0.01   0.01
                    142                    143                    144
                        a                      a                      a 
 Frequencies --  3134.5423              3191.3022              3201.5625
 Red. masses --     1.8866                 1.9554                 1.5706
 Frc consts  --     0.0000                 0.0000                 0.0000
 IR Inten    --    12.7803                31.3403                38.9656
 Raman Activ --     0.0000                 0.0000                 0.0000
 Depolar     --     0.0000                 0.0000                 0.0000
 Atom AN      X      Y      Z        X      Y      Z        X      Y      Z
   1   7    -0.00   0.00   0.00    -0.19   0.18   0.07    -0.19  -0.09  -0.01
   2   6     0.00   0.00  -0.00    -0.00   0.00   0.00    -0.01  -0.00  -0.01
   3   6     0.00   0.00  -0.00     0.00   0.00   0.00    -0.00   0.00  -0.00
   4   6    -0.00   0.00   0.00     0.00  -0.00  -0.00     0.00  -0.00  -0.00
   5   6    -0.00   0.00  -0.00     0.00  -0.00   0.00     0.00  -0.00   0.00
   6   6     0.00   0.00  -0.00    -0.00  -0.00   0.00    -0.00  -0.00   0.00
   7   6     0.00   0.00   0.00    -0.00   0.00  -0.00    -0.00  -0.00   0.00
   8   6     0.00  -0.00   0.00    -0.00   0.00   0.00    -0.00   0.00   0.00
   9   6     0.00   0.00  -0.00     0.00  -0.00  -0.00    -0.00  -0.00   0.00
  10   6    -0.00   0.00   0.00     0.00   0.00  -0.00    -0.00   0.00   0.00
  11   6    -0.00   0.00  -0.00     0.00   0.00  -0.00    -0.00   0.00   0.00
  12   6     0.00  -0.00   0.00     0.00   0.00   0.00     0.00   0.00   0.00
  13   6     0.00  -0.00  -0.00    -0.00  -0.00  -0.00    -0.00  -0.00  -0.00
  14   6     0.00   0.00   0.00     0.00   0.00   0.00    -0.00  -0.00  -0.00
  15   6    -0.00   0.00   0.01    -0.00   0.00   0.00     0.00  -0.00  -0.00
  16   6    -0.00   0.00   0.00    -0.00  -0.00  -0.00    -0.00  -0.00  -0.00
  17   6    -0.00   0.00   0.00    -0.00   0.00   0.00     0.00   0.00   0.00
  18   6    -0.00   0.00   0.00    -0.00  -0.00  -0.00    -0.00   0.00   0.00
  19   6     0.00   0.00  -0.00    -0.00  -0.00  -0.00     0.00  -0.00   0.00
  20   6     0.03   0.03   0.01    -0.00  -0.00  -0.00     0.00  -0.00  -0.00
  21   6     0.22  -0.12  -0.12    -0.00   0.00   0.00     0.00  -0.00  -0.00
  22  16    -0.00  -0.00  -0.00    -0.00   0.00   0.00     0.00  -0.00  -0.00
  23   6    -0.00  -0.00  -0.00     0.00   0.00   0.00     0.00   0.00   0.00
  24   7     0.00   0.00   0.00    -0.00  -0.00  -0.00    -0.00   0.00   0.00
  25  16    -0.00   0.00   0.00     0.00  -0.00  -0.00    -0.00  -0.00  -0.00
  26   7     0.00  -0.00  -0.00    -0.00   0.00  -0.00     0.00  -0.00  -0.00
  27   6    -0.00   0.00   0.00     0.00   0.00   0.00    -0.00   0.00   0.00
  28  16    -0.00  -0.00  -0.00     0.00  -0.00   0.00    -0.00  -0.00  -0.00
  29  16    -0.00  -0.00   0.00     0.00  -0.00  -0.00     0.00  -0.00  -0.00
  30  17    -0.00   0.00   0.00     0.00  -0.00   0.00    -0.00   0.00  -0.00
  31   1     0.00   0.00  -0.00    -0.02   0.02   0.00    -0.03  -0.06   0.06
  32   1     0.00  -0.00  -0.00     0.41  -0.78  -0.24    -0.17   0.27   0.09
  33   1    -0.00  -0.00   0.00     0.31   0.08  -0.03     0.90   0.15  -0.09
  34   1    -0.00  -0.00   0.00     0.00  -0.00  -0.00    -0.00  -0.00   0.01
  35   1    -0.00   0.00   0.00     0.01  -0.00  -0.00     0.02   0.00  -0.00
  36   1     0.00   0.00   0.00    -0.00  -0.00  -0.00     0.00   0.00   0.00
  37   1    -0.00  -0.00   0.00    -0.00  -0.00   0.00    -0.00  -0.00   0.00
  38   1     0.00  -0.00   0.00    -0.00   0.00  -0.00    -0.00   0.00  -0.00
  39   1    -0.00  -0.00   0.00     0.00   0.00  -0.00     0.00   0.00  -0.00
  40   1    -0.00  -0.00   0.00    -0.00  -0.00   0.00     0.00   0.00  -0.00
  41   1     0.00   0.00   0.00     0.00   0.00   0.00    -0.00  -0.00  -0.00
  42   1     0.00  -0.00  -0.00     0.00  -0.00  -0.00     0.00  -0.00  -0.00
  43   1    -0.00  -0.00   0.00    -0.00  -0.00   0.00     0.00   0.00  -0.00
  44   1    -0.01  -0.00  -0.01    -0.00  -0.00  -0.00     0.00   0.00   0.00
  45   1     0.01  -0.01  -0.02     0.00  -0.00  -0.00    -0.00   0.00   0.00
  46   1     0.00  -0.00   0.00    -0.00  -0.00   0.00    -0.00   0.00  -0.00
  47   1    -0.00  -0.00  -0.00    -0.00   0.00   0.00    -0.00   0.00  -0.00
  48   1    -0.00  -0.00   0.00     0.00   0.00  -0.00    -0.00  -0.00   0.00
  49   1    -0.09  -0.05  -0.03     0.00   0.00   0.00     0.00   0.00   0.00
  50   1    -0.77   0.38   0.41     0.00  -0.00  -0.00    -0.00   0.00   0.00
