22
 energy: -27.835117169984 gnorm: 0.000342478520 xtb: 6.5.1 (fef0646)
N            1.70596418675516       -0.19029217268286       -1.23676143718432
C            2.59764738732468       -0.13685421481224       -0.00723552760583
C            3.03186107451067        1.26665084741716        0.23744970735838
C            4.27741347759628        1.68786017807266       -0.00837807057827
C            4.81301934440113        3.01733495766043        0.19770523182460
C            4.10049710254844        4.03904696522484        0.83393708308948
C            4.66703502056780        5.28616971008731        1.00433665507704
C            5.94969241844804        5.54222323403451        0.54276996750688
C            6.66902639234603        4.53964688446018       -0.08825944288204
C            6.10868772051826        3.28900439327341       -0.25548133609250
H            1.38463663962448       -1.14644220462784       -1.43269787273533
H            2.22670247971073        0.16589440865381       -2.04891473252232
H            0.88841818826843        0.41632451539035       -1.09160192518184
H            3.45324626903364       -0.78766492406228       -0.18935923208648
H            2.01683953270807       -0.52842503091544        0.82945960715274
H            2.28163135236153        1.93065272416226        0.63772104022577
H            4.99203011949002        0.97342865493417       -0.40274127714089
H            3.10704331678616        3.85481623182108        1.21229241607618
H            4.10903076682737        6.06410310382799        1.50262727922873
H            6.38785065306895        6.51853727063846        0.67953406776191
H            7.66887165170520        4.73273996916018       -0.44512801880911
H            6.67471490539893        2.50918449828202       -0.74448418248280
