 Entering Gaussian System
 *********************************************
 Gaussian 98:
 frequency output generated by the xtb code
 *********************************************
                         Standard orientation:
 --------------------------------------------------------------------
  Center     Atomic     Atomic              Coordinates (Angstroms)
  Number     Number      Type              X           Y           Z
 --------------------------------------------------------------------
    1          7             0        5.066228   -1.886458   -0.794694
    2          6             0        5.403565   -0.450460   -1.024498
    3          6             0        4.707883    0.491015   -0.045897
    4          6             0        3.190282    0.538683   -0.223132
    5          6             0        2.508601    1.515188    0.736719
    6          6             0        0.993760    1.617856    0.537964
    7          6             0        0.241195    0.328510    0.869959
    8          6             0       -1.275835    0.471138    0.737874
    9          6             0       -2.027311   -0.818758    1.069959
   10          6             0       -3.551010   -0.673570    1.023904
   11          6             0       -4.101044   -0.392709   -0.375055
   12          6             0       -5.627944   -0.306681   -0.410840
   13          6             0       -6.172557   -0.033531   -1.804889
   14          1             0        5.580902   -2.501652   -1.435705
   15          1             0        4.064376   -2.059943   -0.935531
   16          1             0        5.299160   -2.164468    0.165465
   17          1             0        5.140722   -0.174141   -2.051708
   18          1             0        6.491186   -0.326996   -0.955292
   19          1             0        5.111998    1.504853   -0.149670
   20          1             0        4.945185    0.190076    0.979842
   21          1             0        2.773638   -0.463685   -0.086389
   22          1             0        2.949910    0.812532   -1.256312
   23          1             0        2.967006    2.504586    0.621455
   24          1             0        2.722413    1.218839    1.769579
   25          1             0        0.778978    1.909005   -0.496166
   26          1             0        0.592327    2.431129    1.154274
   27          1             0        0.492327    0.009811    1.887718
   28          1             0        0.585618   -0.484003    0.221549
   29          1             0       -1.521847    0.797118   -0.278226
   30          1             0       -1.626439    1.277791    1.391164
   31          1             0       -1.716939   -1.163408    2.063648
   32          1             0       -1.713757   -1.611001    0.381119
   33          1             0       -3.862524    0.126173    1.704913
   34          1             0       -4.023314   -1.582877    1.414497
   35          1             0       -3.761490   -1.172422   -1.065895
   36          1             0       -3.677140    0.539198   -0.763778
   37          1             0       -5.962497    0.473762    0.283340
   38          1             0       -6.052367   -1.238388   -0.017627
   39          1             0       -5.789293    0.907777   -2.200052
   40          1             0       -7.262007    0.025535   -1.813685
   41          1             0       -5.880674   -0.819044   -2.502688
 --------------------------------------------------------------------
     1 basis functions        1 primitive gaussians
     1 alpha electrons        1 beta electrons

 Harmonic frequencies (cm**-1), IR intensities (km*mol⁻¹),
 Raman scattering activities (A**4/amu), Raman depolarization ratios,
 reduced masses (AMU), force constants (mDyne/A) and normal coordinates:
                      1                      2                      3
                        a                      a                      a 
 Frequencies --  -112.9767                36.5515                50.6613
 Red. masses --     1.3895                10.1172                 8.6568
 Frc consts  --     0.0000                 0.0000                 0.0000
 IR Inten    --     0.6991                 8.9037                11.5197
 Raman Activ --     0.0000                 0.0000                 0.0000
 Depolar     --     0.0000                 0.0000                 0.0000
 Atom AN      X      Y      Z        X      Y      Z        X      Y      Z
   1   7     0.03   0.00   0.05     0.31   0.06   0.25    -0.43  -0.08  -0.11
   2   6    -0.10  -0.00  -0.09     0.18   0.07   0.16     0.01  -0.12   0.25
   3   6     0.02  -0.01   0.01     0.07   0.06   0.09     0.01  -0.14   0.26
   4   6     0.02  -0.00   0.06     0.08  -0.02  -0.01     0.07   0.25  -0.10
   5   6     0.01   0.00   0.05    -0.03  -0.03  -0.08     0.03   0.13  -0.01
   6   6     0.01   0.00   0.02    -0.02  -0.08  -0.19     0.04   0.14  -0.05
   7   6     0.00   0.01   0.01    -0.00  -0.11  -0.26     0.06   0.10  -0.14
   8   6     0.00   0.01  -0.01    -0.01  -0.12  -0.24     0.05   0.06  -0.10
   9   6    -0.00   0.02   0.00    -0.01  -0.11  -0.21     0.13  -0.01  -0.15
  10   6    -0.00   0.02  -0.01    -0.01  -0.07  -0.05     0.12  -0.09  -0.06
  11   6     0.00  -0.01  -0.02    -0.15   0.06   0.03     0.03  -0.03  -0.01
  12   6     0.01  -0.00  -0.02    -0.15   0.09   0.19     0.02  -0.13   0.09
  13   6     0.01  -0.03  -0.03    -0.28   0.19   0.26    -0.08  -0.07   0.14
  14   1    -0.40   0.03  -0.34     0.06   0.02   0.05    -0.19  -0.02  -0.09
  15   1    -0.09   0.11   0.56     0.08   0.00   0.11    -0.14   0.09  -0.01
  16   1     0.53  -0.13  -0.15     0.13   0.02   0.06    -0.11  -0.12  -0.06
  17   1    -0.12  -0.02  -0.01     0.05  -0.00   0.04     0.08   0.04   0.07
  18   1    -0.03   0.02  -0.12     0.05   0.05   0.05     0.01  -0.11   0.14
  19   1     0.01  -0.00   0.00     0.01   0.02   0.03     0.08  -0.06   0.16
  20   1     0.02  -0.01  -0.00     0.01   0.03   0.03    -0.09  -0.11   0.08
  21   1     0.00  -0.00   0.02     0.03  -0.01  -0.00    -0.06   0.09  -0.14
  22   1    -0.00  -0.01   0.02     0.04  -0.02  -0.01     0.11   0.16  -0.03
  23   1     0.00  -0.00   0.01    -0.02  -0.01  -0.02     0.01   0.04   0.04
  24   1    -0.00   0.00   0.01    -0.03  -0.00  -0.02    -0.00  -0.00  -0.01
  25   1     0.01   0.00   0.00     0.01  -0.02  -0.06     0.02   0.06  -0.01
  26   1     0.00   0.00   0.00    -0.03  -0.03  -0.06     0.00   0.03  -0.00
  27   1    -0.00   0.00   0.00     0.00  -0.05  -0.08     0.02   0.01  -0.05
  28   1     0.00   0.00   0.00     0.00  -0.02  -0.09     0.02   0.04  -0.06
  29   1     0.00  -0.00  -0.00    -0.01  -0.03  -0.07     0.00   0.03  -0.02
  30   1    -0.00   0.01  -0.01     0.00  -0.03  -0.07     0.01   0.00  -0.01
  31   1    -0.00   0.01   0.00     0.02  -0.04  -0.07     0.06  -0.02  -0.06
  32   1     0.00   0.00   0.00    -0.03  -0.03  -0.08     0.04   0.02  -0.07
  33   1    -0.00   0.01  -0.01     0.02  -0.03   0.01     0.03  -0.04   0.00
  34   1    -0.00   0.01   0.00     0.00  -0.03  -0.02     0.06  -0.04  -0.03
  35   1     0.00  -0.01   0.00    -0.07   0.03  -0.02     0.01   0.01  -0.02
  36   1     0.00  -0.01  -0.01    -0.05   0.02   0.02    -0.01   0.00   0.01
  37   1     0.00   0.00  -0.01    -0.02   0.02   0.08     0.00  -0.05   0.04
  38   1     0.00   0.00  -0.00    -0.04   0.02   0.05     0.03  -0.05   0.01
  39   1     0.01  -0.01  -0.02    -0.09   0.06   0.08    -0.04  -0.01   0.05
  40   1     0.00  -0.01  -0.01    -0.08   0.06   0.11    -0.02  -0.04   0.06
  41   1     0.00  -0.01  -0.00    -0.10   0.07   0.05    -0.02  -0.00   0.02
                      4                      5                      6
                        a                      a                      a 
 Frequencies --    59.7297                71.9780                86.6345
 Red. masses --     9.3942                 8.3960                 5.5067
 Frc consts  --     0.0000                 0.0000                 0.0000
 IR Inten    --     8.2225                 1.5182                 1.1365
 Raman Activ --     0.0000                 0.0000                 0.0000
 Depolar     --     0.0000                 0.0000                 0.0000
 Atom AN      X      Y      Z        X      Y      Z        X      Y      Z
   1   7     0.18   0.05  -0.36    -0.05  -0.08   0.15    -0.11   0.05   0.06
   2   6     0.19   0.11   0.05    -0.16  -0.09  -0.17    -0.02   0.01  -0.01
   3   6     0.10  -0.12   0.19     0.03   0.04  -0.15     0.02   0.08  -0.05
   4   6     0.11  -0.10   0.10    -0.02  -0.09   0.21     0.03   0.15  -0.08
   5   6     0.06  -0.15   0.13     0.12  -0.00   0.23     0.02  -0.02   0.08
   6   6     0.08  -0.05   0.02     0.13   0.15   0.25     0.01  -0.04   0.11
   7   6    -0.03  -0.01  -0.07     0.06   0.10  -0.11     0.04  -0.10  -0.04
   8   6    -0.02   0.11  -0.09     0.06   0.17  -0.01     0.04  -0.09  -0.02
   9   6    -0.12   0.20   0.06     0.10   0.07  -0.28     0.00  -0.07  -0.02
  10   6    -0.11   0.29   0.05     0.09   0.01  -0.17     0.01   0.01  -0.02
  11   6    -0.13   0.06   0.01    -0.04   0.06  -0.11    -0.02  -0.31  -0.08
  12   6    -0.14  -0.03   0.00    -0.05  -0.09   0.04     0.02   0.42   0.07
  13   6    -0.17  -0.34  -0.04    -0.24  -0.21   0.09    -0.02  -0.10  -0.02
  14   1     0.06   0.06  -0.14     0.04  -0.05   0.11    -0.03  -0.01   0.03
  15   1     0.05   0.03  -0.12     0.00  -0.07   0.00    -0.03   0.03   0.01
  16   1     0.03  -0.06  -0.12    -0.05   0.06   0.07    -0.04   0.02   0.02
  17   1     0.08   0.10   0.02    -0.11  -0.07  -0.04     0.00  -0.00  -0.01
  18   1     0.05   0.02   0.05    -0.04  -0.01  -0.12    -0.00  -0.01  -0.00
  19   1     0.03  -0.03   0.12    -0.02   0.01  -0.12     0.02   0.02  -0.02
  20   1     0.01  -0.09   0.04     0.09   0.06  -0.05    -0.01   0.03  -0.01
  21   1     0.02  -0.03  -0.00     0.03  -0.03   0.13     0.00   0.04  -0.08
  22   1     0.05  -0.00   0.03    -0.08  -0.07   0.07     0.02   0.09  -0.01
  23   1     0.03  -0.05   0.07     0.06  -0.01   0.06    -0.00   0.00   0.07
  24   1    -0.01  -0.07   0.03     0.03  -0.01   0.07     0.01  -0.05   0.01
  25   1     0.05  -0.00   0.00     0.04   0.13   0.09    -0.00   0.02   0.04
  26   1     0.03  -0.01   0.01     0.05   0.00   0.13    -0.00  -0.04   0.06
  27   1    -0.02  -0.02  -0.02     0.02  -0.06  -0.06     0.01  -0.06  -0.02
  28   1    -0.02  -0.00  -0.03     0.00   0.08  -0.10     0.01  -0.00  -0.04
  29   1    -0.00   0.01  -0.04     0.00   0.12   0.02     0.01  -0.02  -0.00
  30   1     0.01   0.06  -0.05     0.03   0.00   0.06     0.02  -0.03  -0.00
  31   1    -0.04   0.09   0.03     0.04  -0.04  -0.11    -0.00  -0.02  -0.01
  32   1    -0.05   0.03   0.05     0.03   0.07  -0.14    -0.01  -0.02  -0.01
  33   1    -0.02   0.12  -0.02     0.03  -0.01  -0.03     0.03   0.06  -0.06
  34   1    -0.04   0.11   0.06     0.05  -0.01  -0.05    -0.01   0.04   0.07
  35   1    -0.03  -0.01   0.04    -0.01   0.04  -0.05    -0.14  -0.22   0.06
  36   1    -0.05   0.01  -0.04    -0.04   0.03  -0.02     0.11  -0.20  -0.15
  37   1    -0.05   0.02  -0.04    -0.02  -0.03   0.01     0.14   0.28  -0.09
  38   1    -0.02   0.01   0.05     0.02  -0.04   0.03    -0.11   0.24   0.18
  39   1    -0.06  -0.12  -0.07    -0.10  -0.06   0.00     0.13  -0.15  -0.18
  40   1    -0.05  -0.11  -0.01    -0.07  -0.09   0.06     0.00   0.14   0.03
  41   1    -0.04  -0.14   0.03    -0.07  -0.06   0.03    -0.16  -0.19   0.12
                      7                      8                      9
                        a                      a                      a 
 Frequencies --    92.4365               105.4104               109.9591
 Red. masses --     7.6110                 6.6811                 8.9785
 Frc consts  --     0.0000                 0.0000                 0.0000
 IR Inten    --     3.2522                 0.5828                10.3823
 Raman Activ --     0.0000                 0.0000                 0.0000
 Depolar     --     0.0000                 0.0000                 0.0000
 Atom AN      X      Y      Z        X      Y      Z        X      Y      Z
   1   7    -0.11   0.05  -0.23    -0.10   0.02   0.02     0.36  -0.14  -0.06
   2   6    -0.04   0.07   0.03    -0.02  -0.01  -0.06     0.06  -0.05   0.01
   3   6    -0.01  -0.04   0.15     0.05   0.06  -0.07    -0.07  -0.18   0.05
   4   6    -0.05  -0.34   0.42     0.05   0.07  -0.01    -0.04   0.04  -0.17
   5   6    -0.04   0.15  -0.07     0.05  -0.01   0.07     0.01   0.03  -0.11
   6   6    -0.02   0.08  -0.19     0.05  -0.06   0.09    -0.01   0.11   0.01
   7   6     0.00   0.12   0.02     0.03   0.05   0.46    -0.07   0.24   0.35
   8   6     0.00   0.02  -0.09     0.08  -0.17  -0.39    -0.07   0.19   0.26
   9   6     0.09  -0.02  -0.06     0.01  -0.05  -0.07     0.02   0.04  -0.11
  10   6     0.08  -0.11  -0.04     0.02   0.03  -0.07     0.01  -0.14  -0.16
  11   6     0.04  -0.19  -0.04    -0.02   0.12  -0.04    -0.04  -0.17  -0.14
  12   6     0.06   0.09   0.05    -0.03   0.01   0.02    -0.04   0.01  -0.00
  13   6     0.02   0.09   0.07    -0.13  -0.05   0.05    -0.18   0.03   0.05
  14   1    -0.03   0.04  -0.08    -0.03  -0.01   0.02     0.12   0.01  -0.04
  15   1    -0.03   0.03  -0.08    -0.03   0.02  -0.01     0.10  -0.09  -0.00
  16   1    -0.05  -0.04  -0.07    -0.04   0.02   0.01     0.13  -0.04  -0.02
  17   1    -0.01   0.07   0.02    -0.01  -0.01  -0.02     0.01  -0.02   0.01
  18   1    -0.01   0.00   0.02    -0.00  -0.02  -0.03     0.01   0.04   0.00
  19   1    -0.06   0.01   0.01     0.02   0.01  -0.04     0.01  -0.06   0.08
  20   1     0.07   0.01   0.03     0.03   0.03  -0.02    -0.07  -0.11   0.01
  21   1     0.03  -0.09   0.32     0.02   0.02  -0.02    -0.06   0.02  -0.11
  22   1    -0.08  -0.28   0.08     0.01   0.04   0.00     0.04   0.06  -0.05
  23   1    -0.00   0.03  -0.16     0.01   0.00   0.03     0.01   0.00  -0.03
  24   1    -0.02   0.19   0.02     0.03  -0.02   0.01     0.02  -0.00  -0.04
  25   1     0.01  -0.04  -0.08     0.01  -0.10   0.00    -0.02  -0.02  -0.01
  26   1    -0.03   0.06  -0.11     0.01   0.03  -0.04     0.03   0.08  -0.03
  27   1    -0.01   0.10   0.03    -0.13   0.19   0.22    -0.03   0.15   0.13
  28   1     0.02   0.00   0.06     0.13  -0.09   0.32    -0.02   0.02   0.17
  29   1     0.01  -0.02  -0.04     0.16  -0.21  -0.20    -0.00   0.12   0.09
  30   1    -0.03   0.01  -0.05    -0.09   0.04  -0.29    -0.05   0.01   0.12
  31   1     0.03   0.01  -0.01    -0.01   0.06   0.01    -0.00  -0.05  -0.05
  32   1     0.04  -0.00  -0.01    -0.01  -0.07   0.04     0.04   0.07  -0.08
  33   1     0.02  -0.02  -0.02     0.02   0.01  -0.01    -0.03  -0.06  -0.04
  34   1     0.04  -0.03   0.00    -0.01   0.01  -0.03     0.03  -0.06  -0.05
  35   1    -0.04  -0.10   0.01     0.00   0.06  -0.03    -0.06  -0.08  -0.03
  36   1     0.05  -0.09  -0.05    -0.02   0.05   0.01     0.01  -0.07  -0.07
  37   1     0.07   0.06   0.01    -0.01  -0.00   0.01     0.04   0.02   0.00
  38   1    -0.03   0.06   0.04     0.02  -0.00   0.02    -0.03   0.02   0.02
  39   1     0.05  -0.00  -0.01    -0.06  -0.01   0.00    -0.03  -0.01  -0.01
  40   1     0.01   0.09   0.04    -0.04  -0.03   0.04    -0.05   0.05   0.06
  41   1    -0.05  -0.00   0.03    -0.04  -0.01   0.01    -0.11  -0.01   0.01
                     10                     11                     12
                        a                      a                      a 
 Frequencies --   116.9215               138.8530               186.5185
 Red. masses --     7.6399                 8.5973                 8.2037
 Frc consts  --     0.0000                 0.0000                 0.0000
 IR Inten    --     0.5948                 8.4169                 1.0641
 Raman Activ --     0.0000                 0.0000                 0.0000
 Depolar     --     0.0000                 0.0000                 0.0000
 Atom AN      X      Y      Z        X      Y      Z        X      Y      Z
   1   7     0.07  -0.04   0.02     0.27  -0.14  -0.06     0.11  -0.08  -0.04
   2   6    -0.04  -0.02  -0.06    -0.21  -0.01  -0.05    -0.18   0.00  -0.01
   3   6     0.00  -0.02  -0.03    -0.22  -0.19   0.11    -0.12  -0.10   0.13
   4   6     0.00   0.05   0.00    -0.20   0.06   0.02    -0.09   0.12   0.05
   5   6     0.04  -0.07   0.15    -0.11   0.04   0.10    -0.03   0.32  -0.12
   6   6     0.05   0.08   0.09    -0.09   0.17   0.07    -0.07  -0.04   0.09
   7   6    -0.04   0.08  -0.11    -0.06   0.11  -0.16     0.21  -0.22   0.01
   8   6    -0.03   0.08  -0.24    -0.05  -0.03  -0.31     0.21  -0.23   0.08
   9   6    -0.02   0.17   0.13     0.08  -0.04  -0.03    -0.01  -0.09   0.08
  10   6    -0.02   0.08   0.05     0.08  -0.11   0.10     0.04   0.32  -0.08
  11   6    -0.03  -0.46  -0.05     0.09   0.13   0.15     0.09   0.03  -0.17
  12   6    -0.02  -0.27  -0.03     0.10   0.14   0.09     0.07  -0.05  -0.06
  13   6     0.02   0.32   0.07     0.23  -0.10  -0.01    -0.19   0.01   0.05
  14   1     0.04  -0.01   0.03     0.15   0.02  -0.00     0.08   0.02  -0.01
  15   1     0.03  -0.04  -0.01     0.10  -0.16  -0.04     0.04  -0.10  -0.03
  16   1     0.01   0.02   0.01     0.08  -0.01  -0.01     0.04  -0.01  -0.01
  17   1    -0.04  -0.02  -0.01    -0.13  -0.01   0.00    -0.11   0.00   0.01
  18   1    -0.01   0.01  -0.04    -0.06   0.07  -0.07    -0.05   0.04  -0.05
  19   1     0.01  -0.01   0.00    -0.03  -0.06   0.11     0.00  -0.04   0.09
  20   1     0.00  -0.02  -0.01    -0.09  -0.13   0.02    -0.06  -0.08   0.03
  21   1    -0.01   0.01  -0.04    -0.09   0.03  -0.05    -0.06   0.05   0.04
  22   1     0.00   0.06   0.01    -0.02   0.07   0.01     0.00   0.01   0.00
  23   1     0.03  -0.02   0.10    -0.00   0.00   0.06    -0.06   0.10  -0.14
  24   1    -0.01  -0.08   0.03    -0.05  -0.02   0.02     0.06   0.19  -0.02
  25   1     0.04   0.07   0.04    -0.02   0.10   0.03    -0.07   0.01   0.04
  26   1     0.02   0.01   0.05    -0.03   0.02   0.06    -0.05  -0.05   0.06
  27   1    -0.04  -0.00  -0.03    -0.04   0.01  -0.05     0.09  -0.09  -0.01
  28   1     0.01   0.04  -0.04     0.02   0.06  -0.06     0.07  -0.03  -0.04
  29   1     0.00  -0.06  -0.10     0.00  -0.09  -0.12     0.06  -0.06   0.02
  30   1    -0.01   0.08  -0.14    -0.05   0.02  -0.15     0.08  -0.06   0.02
  31   1    -0.01   0.14   0.07     0.06   0.04  -0.00    -0.05  -0.02   0.04
  32   1     0.01  -0.01   0.11     0.02  -0.04   0.02    -0.03  -0.06   0.05
  33   1    -0.02   0.09  -0.07     0.02  -0.07   0.07     0.06   0.17  -0.10
  34   1     0.00   0.06   0.11     0.04  -0.06  -0.02    -0.07   0.16   0.05
  35   1    -0.04  -0.22   0.07     0.03   0.07   0.01     0.02  -0.03  -0.00
  36   1     0.02  -0.19  -0.12     0.02   0.06   0.09     0.02  -0.01  -0.11
  37   1     0.03  -0.13   0.07     0.02   0.07  -0.02     0.03  -0.03   0.01
  38   1    -0.04  -0.10  -0.10     0.02   0.06   0.06     0.05  -0.03  -0.02
  39   1     0.01   0.14   0.14     0.10  -0.06  -0.05    -0.14   0.05   0.03
  40   1     0.01   0.09   0.02     0.07   0.00  -0.03    -0.06  -0.07   0.07
  41   1     0.01   0.18  -0.08     0.06  -0.08   0.05    -0.03   0.05  -0.03
                     13                     14                     15
                        a                      a                      a 
 Frequencies --   211.0485               218.4439               234.5500
 Red. masses --     8.0016                 7.3039                 6.5953
 Frc consts  --     0.0000                 0.0000                 0.0000
 IR Inten    --     0.9902                 0.4827                 1.4127
 Raman Activ --     0.0000                 0.0000                 0.0000
 Depolar     --     0.0000                 0.0000                 0.0000
 Atom AN      X      Y      Z        X      Y      Z        X      Y      Z
   1   7     0.03  -0.07  -0.03    -0.02  -0.04   0.02    -0.05   0.13   0.07
   2   6    -0.05  -0.05  -0.07    -0.23  -0.01  -0.22    -0.10   0.11   0.01
   3   6     0.11  -0.02   0.04     0.21  -0.03   0.13    -0.17  -0.00   0.04
   4   6     0.11   0.12   0.08     0.22   0.24   0.19    -0.14  -0.10  -0.05
   5   6     0.07   0.20  -0.02    -0.01   0.04   0.21    -0.13  -0.28   0.10
   6   6     0.03   0.01   0.00     0.04  -0.11  -0.37    -0.03  -0.11  -0.20
   7   6     0.06  -0.01   0.09    -0.01  -0.02  -0.06    -0.03  -0.00   0.06
   8   6     0.05  -0.05  -0.00    -0.03   0.01   0.11     0.02   0.06   0.04
   9   6    -0.04  -0.10  -0.34    -0.03   0.01   0.13     0.09  -0.01  -0.23
  10   6    -0.06   0.10   0.20    -0.04  -0.10  -0.04     0.15   0.25   0.00
  11   6    -0.30  -0.11   0.26     0.02   0.02  -0.05     0.14  -0.04  -0.03
  12   6    -0.29  -0.04   0.04     0.01   0.01  -0.03     0.16   0.05   0.08
  13   6     0.23   0.02  -0.16    -0.08   0.00  -0.00     0.10  -0.05   0.10
  14   1     0.03  -0.01   0.01     0.07  -0.02   0.08    -0.01   0.03   0.03
  15   1     0.02  -0.05  -0.02     0.02  -0.09  -0.04    -0.01   0.03   0.02
  16   1     0.00  -0.00  -0.00    -0.04   0.08   0.04    -0.02   0.05   0.02
  17   1    -0.06  -0.01  -0.01    -0.22  -0.01  -0.03    -0.04   0.03   0.00
  18   1    -0.01  -0.01  -0.07    -0.06   0.01  -0.23    -0.03   0.05  -0.00
  19   1     0.06  -0.02   0.02     0.11  -0.03   0.08    -0.07   0.01   0.04
  20   1     0.04  -0.03   0.00     0.09  -0.09   0.01    -0.06  -0.02   0.01
  21   1     0.01   0.04   0.03     0.04   0.07  -0.03    -0.03  -0.04  -0.08
  22   1     0.04   0.02   0.02     0.10   0.14   0.06    -0.03   0.03  -0.00
  23   1    -0.01   0.07  -0.05    -0.01   0.03   0.15     0.01  -0.09   0.13
  24   1     0.04   0.10   0.00    -0.10  -0.03   0.07    -0.11  -0.17   0.02
  25   1     0.00  -0.03  -0.01     0.11  -0.16  -0.16     0.05  -0.11  -0.09
  26   1    -0.01   0.01  -0.02    -0.07   0.03  -0.25    -0.03   0.02  -0.14
  27   1     0.01   0.03   0.04     0.02   0.05  -0.01    -0.01   0.06   0.04
  28   1     0.04  -0.01   0.05    -0.03  -0.05   0.02    -0.02  -0.05   0.07
  29   1     0.03   0.05   0.01    -0.04   0.01   0.04     0.01   0.08   0.03
  30   1    -0.00  -0.05   0.04     0.02   0.00   0.05     0.00  -0.02   0.06
  31   1     0.07  -0.16  -0.17    -0.04   0.03   0.06     0.07  -0.09  -0.11
  32   1    -0.11   0.04  -0.22     0.03  -0.01   0.06    -0.02   0.05  -0.15
  33   1     0.08   0.08   0.04    -0.05  -0.06   0.01     0.12   0.15  -0.05
  34   1    -0.02   0.07   0.14     0.00  -0.05  -0.05    -0.01   0.13   0.09
  35   1    -0.10  -0.07   0.11     0.01   0.03  -0.03     0.01  -0.08   0.05
  36   1    -0.07  -0.06   0.02     0.00   0.02   0.02     0.06  -0.06  -0.09
  37   1    -0.12  -0.01  -0.01     0.01   0.00  -0.01     0.07   0.03   0.01
  38   1    -0.13  -0.01  -0.03     0.01   0.00  -0.00     0.05   0.03   0.05
  39   1     0.09   0.02   0.02    -0.00  -0.02  -0.03    -0.17   0.10   0.10
  40   1     0.07  -0.02  -0.18    -0.02   0.03   0.03     0.02  -0.26  -0.00
  41   1     0.17   0.03  -0.03    -0.07  -0.02   0.00     0.23   0.10  -0.01
                     16                     17                     18
                        a                      a                      a 
 Frequencies --   247.1850               306.4541               338.8452
 Red. masses --     3.4663                 8.2558                 8.8947
 Frc consts  --     0.0000                 0.0000                 0.0000
 IR Inten    --     0.4063                 9.6480                 0.3760
 Raman Activ --     0.0000                 0.0000                 0.0000
 Depolar     --     0.0000                 0.0000                 0.0000
 Atom AN      X      Y      Z        X      Y      Z        X      Y      Z
   1   7     0.02  -0.06  -0.04     0.12  -0.32  -0.19     0.03  -0.03  -0.03
   2   6     0.06  -0.06  -0.01     0.14  -0.21   0.14    -0.03   0.01   0.12
   3   6     0.10   0.01  -0.03     0.07   0.21  -0.21    -0.24   0.06  -0.09
   4   6     0.08   0.05   0.03    -0.00   0.21   0.14    -0.21  -0.02  -0.01
   5   6     0.05   0.10  -0.01    -0.15   0.10   0.22     0.04  -0.07   0.18
   6   6     0.01   0.07   0.07    -0.15   0.07  -0.06     0.15   0.18  -0.19
   7   6    -0.03   0.04  -0.04    -0.13   0.06  -0.02     0.33   0.11  -0.04
   8   6    -0.06  -0.02  -0.01    -0.14  -0.08   0.03     0.29  -0.15   0.10
   9   6    -0.03  -0.02   0.13    -0.05  -0.14  -0.04     0.14  -0.08   0.16
  10   6    -0.07  -0.21  -0.03    -0.00   0.12   0.02     0.06  -0.06   0.02
  11   6    -0.04  -0.08  -0.02     0.12   0.03  -0.04    -0.19  -0.01   0.07
  12   6    -0.03   0.27   0.01     0.13  -0.03   0.01    -0.24   0.03  -0.10
  13   6    -0.05  -0.05  -0.05     0.01  -0.01   0.07    -0.14   0.04  -0.17
  14   1     0.00  -0.01  -0.02     0.03  -0.01  -0.13     0.01   0.03  -0.05
  15   1     0.01  -0.01  -0.01     0.03  -0.09  -0.05     0.01  -0.02  -0.00
  16   1     0.00  -0.03  -0.01     0.06  -0.19  -0.09     0.03  -0.05  -0.03
  17   1     0.02  -0.02  -0.00     0.15  -0.07   0.01     0.07  -0.00   0.01
  18   1     0.02  -0.03  -0.00     0.03  -0.08   0.14    -0.01   0.02   0.12
  19   1     0.04  -0.00  -0.03     0.03   0.04  -0.24    -0.09   0.02  -0.07
  20   1     0.04   0.02  -0.01     0.07   0.22  -0.03    -0.07   0.08  -0.01
  21   1     0.02   0.02   0.03     0.04   0.05   0.06    -0.05  -0.01  -0.01
  22   1     0.02  -0.00   0.01    -0.06   0.05   0.05    -0.10   0.02   0.01
  23   1    -0.00   0.03  -0.03    -0.04   0.04   0.13     0.10  -0.05   0.15
  24   1     0.03   0.05  -0.00    -0.10  -0.01   0.06    -0.07  -0.12   0.04
  25   1    -0.01   0.05   0.03     0.01  -0.01  -0.04     0.11  -0.01  -0.09
  26   1     0.01   0.00   0.05    -0.08   0.04  -0.06    -0.00   0.08  -0.13
  27   1    -0.00  -0.01  -0.02    -0.03   0.03  -0.00     0.14   0.07  -0.01
  28   1    -0.00   0.03  -0.03    -0.02   0.02   0.00     0.11   0.03   0.00
  29   1    -0.02  -0.04  -0.01    -0.06  -0.01   0.02     0.06  -0.06   0.03
  30   1    -0.02   0.01  -0.03    -0.06  -0.05   0.03     0.09  -0.03   0.02
  31   1    -0.04   0.05   0.07     0.00  -0.08  -0.03    -0.01   0.01   0.07
  32   1     0.03  -0.03   0.09    -0.05  -0.02  -0.05     0.05  -0.06   0.09
  33   1    -0.07  -0.10   0.02     0.05   0.09  -0.03     0.02  -0.03   0.02
  34   1     0.01  -0.09  -0.05    -0.06   0.08   0.04     0.03  -0.03   0.01
  35   1    -0.08  -0.05  -0.00     0.05  -0.00   0.01    -0.06   0.01   0.00
  36   1     0.05  -0.06  -0.02     0.03   0.01  -0.03    -0.05   0.00   0.02
  37   1     0.03   0.15  -0.06     0.04  -0.02   0.02    -0.09   0.01  -0.04
  38   1    -0.05   0.13   0.08     0.06  -0.02   0.00    -0.09   0.01  -0.04
  39   1    -0.40   0.19   0.10     0.00  -0.01   0.01    -0.03   0.01  -0.04
  40   1    -0.04  -0.49  -0.09     0.00   0.01   0.05    -0.04   0.01  -0.07
  41   1     0.38   0.18  -0.06    -0.02  -0.00   0.01    -0.03   0.01  -0.04
                     19                     20                     21
                        a                      a                      a 
 Frequencies --   350.9920               406.3444               451.4301
 Red. masses --     8.7685                 8.5187                 7.9526
 Frc consts  --     0.0000                 0.0000                 0.0000
 IR Inten    --     2.5406                 0.1293                 7.2050
 Raman Activ --     0.0000                 0.0000                 0.0000
 Depolar     --     0.0000                 0.0000                 0.0000
 Atom AN      X      Y      Z        X      Y      Z        X      Y      Z
   1   7     0.05  -0.12  -0.07    -0.00   0.02   0.01    -0.03  -0.16  -0.08
   2   6    -0.08  -0.03   0.13     0.03  -0.00  -0.02    -0.36   0.05   0.23
   3   6    -0.14   0.13  -0.05     0.02  -0.03  -0.01     0.13   0.35   0.23
   4   6    -0.11   0.12   0.03     0.01  -0.02   0.00     0.20  -0.09  -0.12
   5   6    -0.05   0.10   0.06    -0.00  -0.01   0.01    -0.04  -0.24  -0.24
   6   6    -0.01  -0.36   0.01    -0.00   0.11  -0.03    -0.03   0.04   0.04
   7   6     0.07  -0.33   0.06     0.03   0.07  -0.01     0.00   0.06   0.02
   8   6     0.16   0.28  -0.07    -0.00  -0.12   0.08     0.02  -0.01   0.02
   9   6     0.06   0.39  -0.07    -0.08  -0.07   0.08     0.08  -0.02   0.03
  10   6     0.04  -0.10  -0.10    -0.04   0.09  -0.41     0.08   0.02  -0.02
  11   6    -0.07  -0.04  -0.02    -0.18   0.07  -0.28    -0.03   0.01   0.00
  12   6    -0.07  -0.01   0.10    -0.16  -0.05   0.34    -0.05   0.00  -0.00
  13   6     0.11  -0.01   0.04     0.37  -0.06   0.22    -0.01   0.01  -0.03
  14   1     0.03   0.03  -0.07    -0.01  -0.01   0.01     0.10   0.12  -0.09
  15   1     0.02  -0.07  -0.03    -0.00   0.02   0.00     0.03  -0.18  -0.07
  16   1     0.03  -0.09  -0.04    -0.00   0.01   0.01     0.02  -0.13  -0.05
  17   1     0.02  -0.01   0.03     0.01  -0.00  -0.01    -0.26   0.04   0.11
  18   1    -0.03   0.00   0.08     0.01  -0.00  -0.00    -0.09   0.00  -0.10
  19   1    -0.04   0.03  -0.09     0.00  -0.01   0.01     0.02   0.09  -0.08
  20   1    -0.03   0.11   0.01     0.01  -0.02  -0.00     0.05   0.23   0.10
  21   1    -0.03   0.04   0.02     0.00  -0.01  -0.00     0.14  -0.06  -0.06
  22   1    -0.06   0.03   0.01     0.00  -0.00   0.00     0.11  -0.06  -0.06
  23   1    -0.08   0.05  -0.03     0.02  -0.01   0.03     0.01  -0.08  -0.03
  24   1     0.03   0.07   0.02    -0.02  -0.02   0.00    -0.01  -0.10  -0.08
  25   1     0.00  -0.16  -0.01     0.00   0.03  -0.01    -0.08   0.08   0.05
  26   1    -0.08  -0.10  -0.04     0.01   0.03  -0.00     0.08  -0.01   0.09
  27   1    -0.02  -0.10   0.02     0.03   0.02  -0.01     0.01   0.02   0.00
  28   1    -0.03  -0.12   0.02     0.02   0.03  -0.01     0.02   0.03   0.00
  29   1     0.09   0.10  -0.03    -0.02  -0.04   0.02    -0.00  -0.01   0.00
  30   1     0.11   0.11  -0.02    -0.01  -0.03   0.02    -0.01  -0.00   0.00
  31   1     0.01   0.14  -0.01    -0.14   0.04   0.08     0.01   0.01   0.02
  32   1     0.07   0.11   0.01     0.04  -0.07   0.11     0.04  -0.01   0.02
  33   1    -0.08  -0.11   0.02    -0.02   0.04  -0.14     0.04   0.01  -0.01
  34   1     0.12  -0.11  -0.08    -0.06   0.05  -0.12     0.01   0.01   0.01
  35   1    -0.04   0.00  -0.03    -0.11   0.03  -0.12    -0.02   0.00  -0.00
  36   1    -0.03  -0.01   0.00    -0.11   0.03  -0.12    -0.02   0.00  -0.01
  37   1    -0.01   0.01   0.02    -0.03  -0.02   0.10    -0.02   0.00  -0.00
  38   1    -0.03   0.00   0.03    -0.03  -0.02   0.09    -0.02  -0.00  -0.00
  39   1     0.05  -0.00   0.03     0.20  -0.03   0.12     0.00   0.00  -0.00
  40   1     0.03  -0.00  -0.05     0.11   0.02  -0.12    -0.00   0.00  -0.02
  41   1     0.07  -0.00   0.03     0.20  -0.03   0.12     0.00   0.00  -0.00
                     22                     23                     24
                        a                      a                      a 
 Frequencies --   475.3804               525.8329               754.7481
 Red. masses --     9.3130                 8.5144                 2.0233
 Frc consts  --     0.0000                 0.0000                 0.0000
 IR Inten    --     1.1269                 0.3230                14.5258
 Raman Activ --     0.0000                 0.0000                 0.0000
 Depolar     --     0.0000                 0.0000                 0.0000
 Atom AN      X      Y      Z        X      Y      Z        X      Y      Z
   1   7    -0.00  -0.01  -0.01    -0.00  -0.01  -0.00     0.03   0.03  -0.02
   2   6    -0.17   0.06   0.14     0.07  -0.03  -0.06     0.04  -0.02   0.01
   3   6    -0.17   0.09   0.02     0.12  -0.01   0.02     0.02  -0.07   0.06
   4   6    -0.06  -0.01  -0.08     0.04  -0.04   0.03    -0.03  -0.12   0.04
   5   6     0.37   0.06   0.03    -0.29  -0.09  -0.05    -0.05  -0.06   0.06
   6   6     0.38  -0.02  -0.05    -0.25   0.24  -0.04    -0.05   0.04   0.08
   7   6     0.06   0.04  -0.05     0.30  -0.03   0.05    -0.01   0.08   0.10
   8   6    -0.07  -0.06  -0.03     0.30  -0.05   0.00     0.02  -0.01   0.10
   9   6    -0.36  -0.02  -0.09    -0.26   0.21  -0.12     0.03   0.01   0.06
  10   6    -0.37  -0.06   0.06    -0.30  -0.06   0.06     0.03   0.05   0.00
  11   6     0.10  -0.02  -0.04     0.06  -0.04  -0.00     0.00   0.06  -0.02
  12   6     0.19  -0.02   0.02     0.13  -0.01   0.00    -0.02   0.03   0.01
  13   6     0.08  -0.03   0.12     0.04  -0.02   0.07    -0.00   0.00  -0.00
  14   1     0.04   0.07  -0.04    -0.01  -0.03   0.01    -0.03  -0.03   0.00
  15   1     0.01  -0.06  -0.02    -0.00   0.02   0.00    -0.00   0.09  -0.02
  16   1     0.02  -0.05  -0.02    -0.01   0.01   0.01    -0.04  -0.01   0.00
  17   1    -0.05   0.02   0.04     0.00  -0.01  -0.01    -0.07   0.00   0.03
  18   1    -0.05   0.03   0.04     0.02  -0.02  -0.04     0.01   0.02  -0.08
  19   1    -0.06   0.03  -0.03     0.04  -0.01   0.01    -0.11   0.01  -0.17
  20   1    -0.07   0.07   0.02     0.05  -0.02  -0.00     0.13   0.15   0.03
  21   1    -0.04   0.01  -0.00     0.05  -0.03  -0.00    -0.10  -0.04  -0.28
  22   1    -0.04   0.00  -0.01     0.03  -0.03  -0.00     0.13   0.23   0.05
  23   1     0.11   0.01  -0.04    -0.01  -0.05   0.10    -0.04  -0.03  -0.20
  24   1     0.15   0.03   0.00    -0.19  -0.11  -0.02     0.07   0.18   0.05
  25   1     0.17  -0.05  -0.04    -0.15   0.11   0.02     0.05  -0.19  -0.05
  26   1     0.09   0.03  -0.08    -0.05   0.02   0.07    -0.03   0.14  -0.16
  27   1     0.01   0.02  -0.01     0.13   0.03   0.01     0.14  -0.24  -0.09
  28   1     0.01  -0.00   0.00     0.15   0.02   0.01    -0.10   0.18  -0.23
  29   1    -0.01   0.00  -0.00     0.15   0.01  -0.01     0.12  -0.24  -0.08
  30   1    -0.01  -0.02  -0.00     0.13   0.02  -0.02    -0.11   0.13  -0.20
  31   1    -0.06  -0.08  -0.06    -0.04  -0.02  -0.07     0.03  -0.16  -0.05
  32   1    -0.17   0.02  -0.09    -0.15   0.08  -0.09    -0.03   0.10  -0.12
  33   1    -0.15  -0.04   0.02    -0.20  -0.09   0.05    -0.05  -0.07   0.07
  34   1    -0.10  -0.04  -0.03    -0.00  -0.10  -0.06     0.03  -0.05  -0.10
  35   1     0.05  -0.01   0.01     0.04  -0.02   0.02    -0.07  -0.09   0.07
  36   1     0.06  -0.01   0.02     0.05  -0.02   0.02     0.05  -0.06  -0.12
  37   1     0.08  -0.00   0.02     0.05  -0.00   0.01    -0.06  -0.05   0.04
  38   1     0.07  -0.00   0.02     0.04  -0.00   0.01     0.05  -0.04  -0.06
  39   1     0.01  -0.00   0.03    -0.00  -0.00   0.02     0.00  -0.01  -0.02
  40   1     0.02  -0.01   0.06     0.01  -0.01   0.05    -0.00  -0.00  -0.02
  41   1     0.01  -0.00   0.03     0.00  -0.00   0.01     0.01  -0.02   0.02
                     25                     26                     27
                        a                      a                      a 
 Frequencies --   762.6817               768.8754               794.5716
 Red. masses --     2.1831                 1.9809                 3.0352
 Frc consts  --     0.0000                 0.0000                 0.0000
 IR Inten    --    20.0580                 2.1494                 4.7113
 Raman Activ --     0.0000                 0.0000                 0.0000
 Depolar     --     0.0000                 0.0000                 0.0000
 Atom AN      X      Y      Z        X      Y      Z        X      Y      Z
   1   7    -0.04  -0.04   0.02     0.03   0.03  -0.01     0.03   0.04  -0.01
   2   6    -0.05   0.03  -0.02     0.02  -0.02   0.01     0.00  -0.02   0.02
   3   6    -0.00   0.09  -0.06    -0.02  -0.07   0.03    -0.04  -0.09   0.02
   4   6     0.04   0.11  -0.08    -0.03  -0.05   0.07    -0.02   0.02   0.09
   5   6     0.04   0.04  -0.05     0.00  -0.01   0.03     0.04   0.04  -0.03
   6   6     0.03  -0.03  -0.02     0.02  -0.02  -0.05     0.07  -0.08  -0.16
   7   6    -0.05  -0.01   0.03    -0.00  -0.02  -0.13    -0.02  -0.05  -0.13
   8   6    -0.04  -0.01   0.08    -0.00  -0.07  -0.09    -0.03   0.01   0.12
   9   6     0.04   0.00   0.09    -0.00  -0.01  -0.03     0.06   0.03   0.21
  10   6     0.06   0.09   0.01     0.02   0.07   0.01     0.06   0.08   0.02
  11   6     0.01   0.13  -0.02     0.01   0.13   0.04     0.01  -0.01  -0.10
  12   6    -0.03   0.08   0.03     0.01   0.10   0.02    -0.06  -0.10   0.00
  13   6    -0.01   0.01  -0.01     0.00   0.01  -0.00    -0.02  -0.02  -0.01
  14   1     0.03   0.04  -0.01    -0.02  -0.02   0.00    -0.02  -0.02   0.00
  15   1     0.00  -0.11   0.02    -0.00   0.07  -0.01    -0.00   0.07  -0.01
  16   1     0.04   0.01  -0.00    -0.03  -0.00   0.00    -0.02   0.01   0.00
  17   1     0.08   0.00  -0.03    -0.05  -0.00   0.02    -0.03   0.00   0.01
  18   1    -0.01  -0.03   0.08     0.00   0.03  -0.04    -0.00   0.03  -0.02
  19   1     0.12  -0.00   0.20    -0.08  -0.00  -0.13    -0.07  -0.01  -0.12
  20   1    -0.15  -0.17  -0.04     0.09   0.11   0.02     0.07   0.09   0.02
  21   1     0.12   0.03   0.28    -0.09  -0.00  -0.15    -0.09   0.04  -0.02
  22   1    -0.13  -0.24  -0.06     0.07   0.15   0.04     0.04   0.06   0.03
  23   1     0.02   0.03   0.18    -0.01  -0.01  -0.09     0.02   0.01   0.05
  24   1    -0.04  -0.17  -0.05     0.01   0.09   0.03    -0.06  -0.02   0.00
  25   1    -0.02  -0.01   0.00    -0.01   0.15   0.03    -0.07   0.28   0.06
  26   1     0.02  -0.01   0.01     0.01  -0.10   0.12     0.07  -0.20   0.23
  27   1     0.04  -0.06  -0.02    -0.12   0.23   0.07    -0.02   0.22   0.04
  28   1    -0.07   0.02  -0.06     0.10  -0.15   0.20    -0.05  -0.19   0.17
  29   1     0.03  -0.19  -0.05    -0.13   0.19   0.08    -0.06  -0.24  -0.04
  30   1    -0.07   0.10  -0.14     0.10  -0.14   0.18     0.01   0.15  -0.15
  31   1     0.04  -0.16  -0.04    -0.02   0.10   0.03     0.10  -0.30  -0.08
  32   1    -0.04   0.10  -0.11    -0.01  -0.09   0.08    -0.07   0.20  -0.21
  33   1    -0.07  -0.13   0.14    -0.04  -0.12   0.14    -0.09  -0.04   0.03
  34   1     0.06  -0.08  -0.20     0.04  -0.08  -0.16     0.04  -0.03  -0.08
  35   1    -0.16  -0.18   0.16    -0.17  -0.19   0.18     0.07   0.03  -0.04
  36   1     0.12  -0.12  -0.26     0.15  -0.13  -0.23    -0.10   0.04  -0.04
  37   1    -0.15  -0.13   0.11    -0.17  -0.16   0.13     0.09   0.11  -0.11
  38   1     0.12  -0.10  -0.14     0.15  -0.12  -0.19    -0.09   0.08   0.16
  39   1    -0.01  -0.03  -0.07    -0.03  -0.03  -0.10     0.05   0.02   0.11
  40   1    -0.00  -0.02  -0.02    -0.00  -0.03   0.00    -0.00   0.05  -0.04
  41   1     0.02  -0.05   0.06     0.01  -0.07   0.08    -0.01   0.06  -0.08
                     28                     29                     30
                        a                      a                      a 
 Frequencies --   801.8595               819.6004               839.2020
 Red. masses --     2.4925                 3.0066                 4.0476
 Frc consts  --     0.0000                 0.0000                 0.0000
 IR Inten    --    43.2405                 1.1724                 3.9622
 Raman Activ --     0.0000                 0.0000                 0.0000
 Depolar     --     0.0000                 0.0000                 0.0000
 Atom AN      X      Y      Z        X      Y      Z        X      Y      Z
   1   7     0.14  -0.03   0.04     0.00  -0.06   0.03     0.00  -0.17   0.09
   2   6     0.19  -0.05   0.10     0.05   0.02  -0.00     0.10   0.07  -0.04
   3   6    -0.00  -0.04   0.05     0.03   0.10  -0.02     0.02   0.27  -0.08
   4   6    -0.10   0.04  -0.12    -0.02  -0.02  -0.07    -0.06  -0.01   0.01
   5   6     0.05   0.13  -0.02    -0.02  -0.05   0.06    -0.12  -0.19   0.14
   6   6     0.01   0.01   0.01    -0.04   0.03   0.10     0.01  -0.04   0.01
   7   6    -0.01  -0.06   0.04    -0.04   0.05  -0.02     0.04   0.09  -0.13
   8   6    -0.03   0.02  -0.00     0.01  -0.14  -0.07     0.06   0.03   0.02
   9   6    -0.01  -0.01  -0.02     0.01   0.02  -0.01     0.03   0.01   0.11
  10   6    -0.00  -0.02  -0.01     0.08   0.22   0.03    -0.05  -0.07   0.02
  11   6    -0.00  -0.00   0.01     0.01   0.08   0.02     0.00  -0.05  -0.07
  12   6     0.01   0.02   0.00    -0.02  -0.20  -0.03    -0.02   0.07   0.02
  13   6     0.00   0.01   0.00    -0.01  -0.06  -0.02    -0.00   0.03   0.01
  14   1    -0.12  -0.09  -0.04    -0.02  -0.00  -0.02    -0.04  -0.00  -0.05
  15   1    -0.02   0.44  -0.16    -0.00   0.05  -0.04    -0.01   0.09  -0.08
  16   1    -0.22  -0.27  -0.00    -0.04  -0.09  -0.00    -0.09  -0.22  -0.01
  17   1    -0.37  -0.11   0.11    -0.05  -0.04   0.00    -0.05  -0.11  -0.03
  18   1     0.06   0.16  -0.38     0.02   0.02  -0.07     0.03   0.05  -0.10
  19   1    -0.02  -0.01  -0.05     0.05   0.02   0.12     0.10   0.07   0.30
  20   1    -0.06   0.09   0.05    -0.08  -0.08  -0.01    -0.16  -0.21  -0.06
  21   1    -0.06   0.05   0.16     0.08  -0.04   0.00     0.16  -0.09  -0.09
  22   1    -0.07  -0.14  -0.06    -0.07  -0.02  -0.01    -0.16   0.09   0.06
  23   1     0.06   0.04   0.19    -0.04  -0.01  -0.09    -0.13  -0.04  -0.29
  24   1    -0.04  -0.16  -0.05     0.09   0.07   0.02     0.12   0.24   0.09
  25   1    -0.01  -0.03  -0.01     0.08  -0.11  -0.03     0.10   0.06   0.00
  26   1    -0.03   0.00  -0.02    -0.05   0.09  -0.11    -0.01  -0.03   0.02
  27   1     0.00  -0.05  -0.00    -0.07  -0.01   0.00    -0.02   0.16   0.01
  28   1    -0.04  -0.01  -0.02     0.08   0.05  -0.00     0.07  -0.04   0.08
  29   1     0.02   0.01  -0.01    -0.09   0.09   0.05    -0.05  -0.06  -0.00
  30   1    -0.02   0.00  -0.01     0.03  -0.13   0.11     0.08   0.06  -0.03
  31   1    -0.01   0.02   0.01     0.00   0.04   0.01     0.06  -0.13  -0.03
  32   1     0.02  -0.01   0.02    -0.08  -0.06   0.04    -0.02   0.09  -0.09
  33   1     0.03   0.02  -0.02    -0.11  -0.18   0.22    -0.02   0.06  -0.09
  34   1    -0.01   0.01   0.03     0.14  -0.12  -0.26    -0.04   0.03   0.08
  35   1    -0.01   0.00  -0.01     0.07  -0.08   0.16    -0.01   0.05  -0.10
  36   1     0.01  -0.00   0.01    -0.08  -0.02  -0.18     0.00   0.02   0.07
  37   1    -0.02  -0.02   0.02     0.10   0.19  -0.23    -0.01  -0.06   0.09
  38   1     0.02  -0.01  -0.03    -0.09   0.11   0.28     0.01  -0.03  -0.09
  39   1    -0.01  -0.01  -0.03     0.07   0.06   0.24    -0.02  -0.02  -0.09
  40   1    -0.00  -0.01   0.00     0.00   0.10   0.01    -0.00  -0.04  -0.03
  41   1     0.00  -0.01   0.02    -0.06   0.14  -0.21     0.04  -0.06   0.09
                     31                     32                     33
                        a                      a                      a 
 Frequencies --   887.6304               890.0192               928.8425
 Red. masses --     4.2827                 6.6191                 5.1607
 Frc consts  --     0.0000                 0.0000                 0.0000
 IR Inten    --     5.8499                38.2461                 1.5235
 Raman Activ --     0.0000                 0.0000                 0.0000
 Depolar     --     0.0000                 0.0000                 0.0000
 Atom AN      X      Y      Z        X      Y      Z        X      Y      Z
   1   7     0.01   0.10   0.15     0.02  -0.38  -0.15     0.01   0.08  -0.03
   2   6    -0.08  -0.00   0.04     0.16   0.14  -0.18    -0.01  -0.08   0.04
   3   6    -0.03  -0.04  -0.19    -0.09   0.27   0.23     0.03  -0.04   0.00
   4   6     0.06   0.04   0.17    -0.12   0.04   0.06    -0.01   0.02  -0.04
   5   6    -0.01  -0.07  -0.04    -0.02  -0.04  -0.05    -0.09  -0.02   0.02
   6   6     0.08  -0.07  -0.19     0.13  -0.07  -0.09    -0.01  -0.04   0.06
   7   6     0.03   0.03   0.09     0.03   0.03   0.04     0.09   0.03  -0.04
   8   6    -0.02   0.05   0.11    -0.02   0.05   0.06     0.06   0.24  -0.08
   9   6    -0.07  -0.05  -0.19    -0.04  -0.05  -0.10     0.09  -0.17   0.10
  10   6    -0.01  -0.02  -0.09    -0.02  -0.02  -0.05    -0.22  -0.24   0.11
  11   6    -0.06   0.07   0.16    -0.04   0.05   0.09     0.09   0.22  -0.13
  12   6     0.07  -0.04  -0.05     0.04  -0.02  -0.03    -0.06  -0.00   0.02
  13   6     0.05  -0.05   0.01     0.03  -0.04   0.00    -0.08  -0.13  -0.01
  14   1     0.04   0.23  -0.12    -0.13  -0.43   0.17     0.01   0.02   0.00
  15   1     0.02   0.06  -0.11    -0.04   0.03   0.11     0.00  -0.00   0.01
  16   1    -0.06  -0.28  -0.03     0.00   0.23   0.06     0.02   0.05  -0.00
  17   1     0.02  -0.16  -0.04     0.04   0.12  -0.02    -0.03   0.02   0.03
  18   1    -0.03   0.08   0.06     0.05  -0.00  -0.05     0.00  -0.03  -0.02
  19   1     0.03  -0.01   0.06    -0.08   0.10   0.10     0.04  -0.03  -0.04
  20   1     0.02  -0.14  -0.09    -0.05   0.07   0.07    -0.02   0.03   0.02
  21   1     0.01   0.00  -0.05    -0.02   0.00  -0.01     0.02  -0.00   0.03
  22   1    -0.01   0.12   0.08    -0.02   0.03   0.02    -0.02  -0.04  -0.02
  23   1    -0.00  -0.02  -0.05    -0.00  -0.01  -0.02    -0.06   0.01  -0.02
  24   1    -0.09   0.07   0.03    -0.04   0.00  -0.00     0.02   0.01  -0.00
  25   1    -0.10   0.17   0.03    -0.02   0.09   0.02     0.03  -0.05  -0.00
  26   1     0.14  -0.11   0.15     0.10  -0.07   0.09    -0.03   0.00  -0.02
  27   1     0.19  -0.02  -0.03     0.10  -0.00  -0.02    -0.03   0.02   0.01
  28   1    -0.16  -0.00  -0.06    -0.10  -0.01  -0.02     0.05   0.00   0.01
  29   1     0.18  -0.04  -0.04     0.10  -0.02  -0.02     0.01   0.08  -0.01
  30   1    -0.17   0.03  -0.08    -0.10   0.02  -0.05     0.08   0.08  -0.01
  31   1    -0.16   0.15   0.05    -0.09   0.08   0.03     0.12  -0.04  -0.00
  32   1     0.12  -0.10   0.11     0.07  -0.06   0.07     0.09   0.02  -0.02
  33   1     0.12  -0.00   0.03     0.07  -0.00   0.02     0.10   0.08  -0.07
  34   1    -0.03   0.02  -0.01    -0.04   0.01  -0.00    -0.28   0.09   0.11
  35   1    -0.06  -0.06   0.11    -0.04  -0.04   0.07    -0.18  -0.08   0.02
  36   1     0.05  -0.04  -0.03     0.04  -0.03  -0.02     0.24  -0.07  -0.10
  37   1    -0.04   0.04  -0.10    -0.03   0.03  -0.06    -0.17   0.03  -0.11
  38   1     0.04   0.01   0.06     0.03   0.01   0.04     0.22  -0.04   0.17
  39   1    -0.00   0.03   0.09     0.00   0.02   0.06     0.15   0.02   0.30
  40   1     0.02   0.03   0.12     0.01   0.02   0.07    -0.01   0.14  -0.13
  41   1    -0.07   0.06  -0.12    -0.05   0.04  -0.08    -0.01   0.13  -0.18
                     34                     35                     36
                        a                      a                      a 
 Frequencies --   934.7422               942.3238               957.4807
 Red. masses --     5.6852                 6.9286                 5.4812
 Frc consts  --     0.0000                 0.0000                 0.0000
 IR Inten    --     1.0008                 3.7485                 7.0547
 Raman Activ --     0.0000                 0.0000                 0.0000
 Depolar     --     0.0000                 0.0000                 0.0000
 Atom AN      X      Y      Z        X      Y      Z        X      Y      Z
   1   7    -0.00   0.16  -0.08     0.17   0.20  -0.15    -0.11   0.11  -0.04
   2   6     0.01  -0.16   0.10    -0.17  -0.27   0.11     0.17  -0.11   0.08
   3   6     0.08  -0.07   0.02    -0.07  -0.09  -0.01     0.16   0.01   0.01
   4   6    -0.04   0.00  -0.16     0.06   0.25   0.06    -0.16  -0.09  -0.17
   5   6    -0.04  -0.02   0.14    -0.18  -0.23  -0.05     0.04   0.05   0.18
   6   6    -0.07   0.00   0.06     0.12  -0.20  -0.01    -0.05   0.05  -0.10
   7   6    -0.00   0.02  -0.12     0.02   0.24   0.00    -0.01  -0.06  -0.00
   8   6     0.03  -0.01   0.10     0.08  -0.03  -0.00    -0.05  -0.04   0.12
   9   6    -0.03   0.04  -0.01     0.01  -0.03  -0.04    -0.12   0.06  -0.15
  10   6     0.02  -0.02  -0.18    -0.03   0.07   0.05     0.09   0.01  -0.01
  11   6    -0.27   0.02   0.19     0.06  -0.05  -0.04     0.22  -0.03   0.05
  12   6     0.18   0.02  -0.13    -0.04  -0.01   0.03    -0.09  -0.02   0.11
  13   6     0.24  -0.05   0.07    -0.06   0.05  -0.01    -0.19   0.04  -0.09
  14   1     0.03   0.02   0.03    -0.07  -0.15   0.06     0.09   0.12  -0.00
  15   1     0.01  -0.05   0.04     0.00   0.22   0.02     0.01  -0.21   0.04
  16   1     0.06   0.16  -0.00    -0.02   0.20   0.02     0.09   0.11  -0.01
  17   1    -0.09   0.08   0.08    -0.02   0.01   0.05    -0.14   0.10   0.10
  18   1     0.02  -0.10  -0.08    -0.06   0.04   0.07     0.08  -0.19  -0.21
  19   1     0.11  -0.06  -0.07     0.18  -0.12  -0.12     0.07  -0.01   0.01
  20   1    -0.10   0.07   0.06    -0.13   0.06   0.05    -0.12   0.05   0.05
  21   1     0.06  -0.02   0.05     0.12   0.03   0.15     0.00  -0.04  -0.03
  22   1    -0.10  -0.08  -0.04    -0.11  -0.05   0.02    -0.16  -0.00  -0.01
  23   1    -0.08   0.02  -0.06    -0.23   0.01  -0.11     0.02  -0.00  -0.05
  24   1     0.13   0.05   0.02     0.05   0.05  -0.00     0.05   0.09   0.06
  25   1     0.12   0.02  -0.01     0.03   0.02   0.02     0.06   0.15  -0.00
  26   1    -0.11  -0.01  -0.03     0.17  -0.03   0.05    -0.10  -0.08   0.05
  27   1    -0.02   0.12   0.01     0.08   0.02  -0.03     0.14   0.08  -0.01
  28   1     0.04  -0.05   0.06    -0.02   0.10  -0.06    -0.12  -0.08   0.03
  29   1    -0.04  -0.12  -0.00     0.06   0.03   0.00     0.13  -0.05  -0.02
  30   1     0.06   0.09  -0.06    -0.06  -0.06   0.02    -0.12   0.01  -0.05
  31   1    -0.13  -0.06   0.01     0.01   0.04   0.01    -0.11   0.10   0.02
  32   1     0.09   0.07  -0.03    -0.05  -0.07   0.04     0.02  -0.05   0.06
  33   1     0.07   0.02  -0.04    -0.06  -0.03   0.05     0.05  -0.01   0.02
  34   1     0.01   0.02   0.01     0.03  -0.03  -0.04     0.06  -0.01   0.00
  35   1    -0.15  -0.01   0.03     0.10   0.02   0.00     0.11  -0.01   0.04
  36   1    -0.05  -0.02   0.02    -0.04   0.02   0.01     0.08  -0.01   0.04
  37   1    -0.08   0.02  -0.12     0.08  -0.01   0.06     0.04  -0.02   0.07
  38   1     0.01   0.01  -0.06    -0.06   0.01  -0.02     0.01  -0.01   0.06
  39   1    -0.13   0.04  -0.03     0.01  -0.02  -0.06     0.09  -0.02   0.02
  40   1     0.06  -0.05   0.41    -0.02  -0.02  -0.10    -0.05   0.05  -0.29
  41   1    -0.16   0.03  -0.13     0.06  -0.04   0.09     0.10  -0.01   0.06
                     37                     38                     39
                        a                      a                      a 
 Frequencies --   978.6217              1000.2929              1009.9515
 Red. masses --     6.7851                 6.3299                 4.6558
 Frc consts  --     0.0000                 0.0000                 0.0000
 IR Inten    --     6.6611                 7.1283                 1.4463
 Raman Activ --     0.0000                 0.0000                 0.0000
 Depolar     --     0.0000                 0.0000                 0.0000
 Atom AN      X      Y      Z        X      Y      Z        X      Y      Z
   1   7    -0.16   0.01   0.07     0.08   0.12  -0.11     0.04  -0.08   0.02
   2   6     0.24   0.04  -0.03    -0.07  -0.22   0.10    -0.13   0.12  -0.01
   3   6     0.12  -0.03   0.04    -0.00   0.14  -0.05    -0.03  -0.05  -0.01
   4   6    -0.21   0.03   0.00     0.01  -0.10   0.03     0.16  -0.09  -0.14
   5   6    -0.16   0.02  -0.05     0.18   0.05   0.04     0.01   0.06   0.13
   6   6     0.14  -0.20   0.01    -0.08   0.20  -0.14    -0.16   0.02   0.08
   7   6     0.08   0.18   0.03     0.02  -0.26   0.15     0.10  -0.01  -0.10
   8   6     0.08   0.15  -0.09    -0.10   0.12  -0.09     0.03   0.25   0.06
   9   6     0.18  -0.20   0.06     0.15  -0.10   0.06     0.02  -0.21  -0.07
  10   6    -0.19   0.07   0.12    -0.09   0.01   0.14    -0.15   0.01  -0.02
  11   6    -0.13   0.01  -0.14    -0.10   0.04  -0.16     0.02   0.03   0.05
  12   6     0.02  -0.03  -0.10    -0.00  -0.02  -0.08    -0.00  -0.10  -0.03
  13   6     0.11   0.04   0.10     0.08   0.02   0.09    -0.04   0.09   0.03
  14   1     0.10   0.20  -0.05    -0.02  -0.08   0.04    -0.04  -0.07   0.01
  15   1     0.01  -0.25   0.00     0.00   0.09   0.02    -0.01   0.09  -0.01
  16   1     0.07  -0.06  -0.02     0.01   0.14   0.01    -0.04  -0.04   0.01
  17   1    -0.07   0.04   0.03    -0.04  -0.00   0.05     0.06  -0.01  -0.04
  18   1     0.10  -0.14  -0.19    -0.02  -0.05  -0.01    -0.05   0.10   0.12
  19   1    -0.07   0.03   0.00     0.15  -0.02   0.07    -0.03  -0.01  -0.03
  20   1     0.06   0.03   0.01    -0.20  -0.03   0.01     0.06  -0.01  -0.02
  21   1    -0.14   0.05   0.03     0.13  -0.10  -0.13     0.05  -0.02  -0.00
  22   1    -0.04  -0.00  -0.01    -0.15   0.14   0.09     0.12  -0.10  -0.07
  23   1    -0.12   0.05   0.04     0.30  -0.10  -0.05    -0.05   0.04   0.02
  24   1    -0.05  -0.03  -0.02    -0.16   0.11   0.08     0.14  -0.02  -0.00
  25   1    -0.02  -0.02   0.02    -0.17   0.04  -0.01     0.12   0.01  -0.01
  26   1     0.10  -0.06   0.05    -0.02   0.01   0.02    -0.24  -0.05  -0.03
  27   1     0.05  -0.02  -0.02     0.01  -0.13   0.02     0.06   0.12   0.01
  28   1    -0.07   0.05  -0.05    -0.05  -0.05  -0.01    -0.00  -0.08   0.06
  29   1     0.03   0.10  -0.01     0.01   0.09  -0.01     0.05  -0.03  -0.03
  30   1    -0.07  -0.04   0.02    -0.05  -0.01   0.02     0.00   0.14  -0.09
  31   1     0.14   0.01   0.01     0.18   0.03  -0.01    -0.11   0.00   0.04
  32   1    -0.02  -0.10   0.03     0.01  -0.03   0.01     0.21  -0.03   0.05
  33   1    -0.07  -0.05   0.10    -0.01  -0.02   0.07     0.17  -0.05   0.16
  34   1    -0.11  -0.01  -0.09    -0.10   0.01  -0.04    -0.23   0.04  -0.14
  35   1     0.07   0.00   0.01     0.02  -0.00  -0.00     0.21  -0.06   0.19
  36   1    -0.15   0.03  -0.09    -0.11   0.02  -0.11    -0.12   0.01  -0.11
  37   1     0.11   0.01   0.00     0.06   0.01  -0.01     0.20   0.01   0.05
  38   1    -0.12   0.03  -0.07    -0.08   0.02  -0.04    -0.16   0.04  -0.02
  39   1    -0.06  -0.01  -0.09    -0.04  -0.00  -0.05    -0.02  -0.03  -0.11
  40   1     0.02  -0.07   0.12     0.02  -0.04   0.10    -0.01  -0.05  -0.08
  41   1     0.00  -0.05   0.09    -0.00  -0.03   0.05     0.07  -0.07   0.14
                     40                     41                     42
                        a                      a                      a 
 Frequencies --  1024.7161              1050.9106              1076.6757
 Red. masses --     5.8837                 7.4214                 8.4686
 Frc consts  --     0.0000                 0.0000                 0.0000
 IR Inten    --     4.3837                11.8869                 2.4646
 Raman Activ --     0.0000                 0.0000                 0.0000
 Depolar     --     0.0000                 0.0000                 0.0000
 Atom AN      X      Y      Z        X      Y      Z        X      Y      Z
   1   7     0.00   0.12  -0.02    -0.12  -0.22   0.03    -0.01   0.02  -0.00
   2   6     0.06  -0.20  -0.04     0.09   0.46   0.20     0.05  -0.05  -0.02
   3   6     0.02   0.10   0.06    -0.02  -0.33  -0.27    -0.03   0.03   0.02
   4   6    -0.17   0.07   0.15     0.15   0.10   0.03    -0.04   0.10   0.11
   5   6    -0.11  -0.03  -0.19     0.05  -0.08   0.02     0.18  -0.09  -0.08
   6   6     0.20   0.03   0.07    -0.05   0.00  -0.07    -0.10   0.04  -0.03
   7   6     0.11  -0.08  -0.01    -0.00  -0.00   0.04    -0.42   0.02  -0.07
   8   6    -0.07   0.14  -0.05     0.01   0.02  -0.04     0.35  -0.18   0.12
   9   6    -0.18  -0.08   0.04    -0.03  -0.01   0.03     0.18   0.08  -0.12
  10   6     0.07  -0.03  -0.19     0.00  -0.02  -0.05    -0.20  -0.01   0.03
  11   6     0.10  -0.00   0.22     0.02   0.01   0.05    -0.10   0.03  -0.01
  12   6     0.01  -0.07   0.09     0.01  -0.02   0.03     0.02   0.03  -0.27
  13   6    -0.07   0.06  -0.10    -0.01   0.02  -0.03    -0.06  -0.03   0.23
  14   1     0.03   0.07  -0.02    -0.01  -0.07   0.04     0.01   0.02  -0.00
  15   1     0.01  -0.02  -0.01    -0.02  -0.12   0.05     0.00  -0.02  -0.00
  16   1     0.02   0.02  -0.01     0.01   0.02   0.02     0.01   0.00  -0.00
  17   1    -0.00  -0.07  -0.01    -0.16   0.27   0.14    -0.01  -0.02  -0.00
  18   1     0.03  -0.10  -0.06     0.03   0.14  -0.06     0.02  -0.03  -0.04
  19   1     0.02   0.02   0.05     0.12  -0.14  -0.17    -0.02   0.02   0.02
  20   1    -0.01  -0.01   0.01    -0.14   0.05  -0.00    -0.01   0.00   0.01
  21   1    -0.03   0.00  -0.03     0.11  -0.00   0.04    -0.06   0.05   0.05
  22   1    -0.05   0.09   0.06    -0.18   0.06   0.07    -0.03   0.05   0.04
  23   1     0.07  -0.05  -0.01     0.01  -0.03  -0.05     0.06  -0.03  -0.02
  24   1    -0.16  -0.03  -0.03    -0.10   0.10   0.06     0.06  -0.03  -0.03
  25   1    -0.08  -0.13   0.01    -0.16  -0.03   0.01    -0.05   0.00  -0.01
  26   1     0.18   0.11  -0.04     0.13   0.04   0.02     0.09   0.08  -0.02
  27   1    -0.20  -0.10   0.03    -0.07  -0.07   0.00    -0.20  -0.01   0.00
  28   1     0.19   0.03   0.02     0.09   0.07  -0.03    -0.06   0.01  -0.00
  29   1    -0.20  -0.04   0.01    -0.06   0.01   0.01     0.06  -0.11   0.02
  30   1     0.20   0.14  -0.03     0.09   0.03   0.01     0.20   0.03  -0.01
  31   1    -0.22  -0.13   0.02    -0.04  -0.04   0.00    -0.10   0.01   0.01
  32   1     0.13   0.09  -0.04     0.04   0.04  -0.02     0.21   0.05   0.01
  33   1     0.18  -0.01   0.03     0.04   0.00   0.00     0.05  -0.01   0.06
  34   1    -0.11   0.04  -0.10    -0.05   0.01  -0.02    -0.03   0.00   0.05
  35   1     0.10  -0.05   0.15     0.02  -0.01   0.04     0.08  -0.03   0.09
  36   1    -0.04  -0.01  -0.03    -0.01  -0.00  -0.01     0.06  -0.01   0.03
  37   1     0.08   0.00   0.04     0.02   0.00   0.01     0.08   0.01  -0.04
  38   1    -0.07   0.02   0.02    -0.02   0.00   0.01     0.03   0.01  -0.04
  39   1    -0.02  -0.00  -0.08    -0.01   0.00  -0.02     0.11  -0.04   0.11
  40   1    -0.02  -0.01  -0.07    -0.00  -0.00  -0.01    -0.01   0.02  -0.13
  41   1     0.01  -0.02   0.02    -0.00  -0.00   0.00     0.12  -0.03   0.14
                     43                     44                     45
                        a                      a                      a 
 Frequencies --  1083.5591              1097.2139              1106.2942
 Red. masses --     8.8276                 7.3846                 7.9862
 Frc consts  --     0.0000                 0.0000                 0.0000
 IR Inten    --     2.7524                 1.9285                 0.6916
 Raman Activ --     0.0000                 0.0000                 0.0000
 Depolar     --     0.0000                 0.0000                 0.0000
 Atom AN      X      Y      Z        X      Y      Z        X      Y      Z
   1   7    -0.01  -0.03   0.03     0.03  -0.04   0.05     0.03  -0.03   0.00
   2   6    -0.01   0.08  -0.02    -0.08   0.12  -0.03    -0.08   0.06   0.04
   3   6     0.07  -0.08   0.03     0.23  -0.07   0.08     0.14  -0.01  -0.02
   4   6    -0.11   0.11   0.02    -0.31   0.22   0.06    -0.09  -0.06  -0.06
   5   6    -0.16  -0.10  -0.07     0.01  -0.22  -0.11    -0.10   0.07   0.01
   6   6     0.15   0.13   0.05     0.02   0.26  -0.03     0.10   0.04   0.01
   7   6     0.24  -0.19   0.01    -0.19  -0.24   0.03    -0.07  -0.02   0.01
   8   6    -0.37  -0.11   0.06     0.10   0.03   0.00     0.13   0.16  -0.06
   9   6    -0.07   0.17  -0.09     0.01  -0.04   0.03    -0.14  -0.16   0.09
  10   6     0.13  -0.08   0.20    -0.02  -0.03   0.02     0.14   0.05  -0.12
  11   6    -0.11   0.07  -0.20     0.04   0.03  -0.03     0.29  -0.07   0.10
  12   6    -0.03   0.04  -0.31     0.01  -0.07   0.23    -0.35   0.10  -0.29
  13   6    -0.00  -0.04   0.27     0.04   0.05  -0.19     0.09  -0.08   0.31
  14   1    -0.00   0.01  -0.01    -0.01  -0.01  -0.01    -0.02  -0.03   0.01
  15   1    -0.00  -0.00  -0.01     0.00   0.04  -0.01    -0.00   0.04   0.00
  16   1    -0.01  -0.04   0.00    -0.03  -0.06   0.01    -0.02  -0.00   0.01
  17   1     0.02   0.03  -0.01     0.07   0.04  -0.02     0.02   0.03   0.00
  18   1    -0.00   0.02   0.03    -0.02   0.02   0.08    -0.02   0.02   0.06
  19   1     0.07  -0.05  -0.07     0.18  -0.07  -0.08     0.10  -0.03  -0.01
  20   1     0.08   0.01   0.00     0.20  -0.00  -0.01     0.06  -0.03  -0.02
  21   1     0.01   0.02   0.04    -0.09   0.07   0.09    -0.01  -0.03  -0.04
  22   1    -0.02  -0.03  -0.01    -0.10  -0.01   0.00    -0.03  -0.01  -0.01
  23   1    -0.05  -0.02  -0.06     0.05  -0.09  -0.13     0.03  -0.01   0.00
  24   1     0.04  -0.01  -0.03     0.20  -0.06  -0.07    -0.06   0.02   0.01
  25   1     0.14   0.02  -0.01     0.19   0.11  -0.04     0.06   0.02  -0.00
  26   1     0.03   0.06  -0.03     0.00   0.10  -0.05    -0.01  -0.00  -0.00
  27   1     0.10   0.01   0.02     0.01  -0.01   0.01    -0.07  -0.03   0.00
  28   1     0.14  -0.05   0.04    -0.14  -0.12   0.03    -0.10  -0.04   0.01
  29   1    -0.12  -0.09   0.00     0.16   0.06  -0.01     0.10   0.10  -0.01
  30   1    -0.08   0.01  -0.02     0.04   0.01  -0.00     0.03   0.03  -0.00
  31   1     0.00   0.10  -0.01     0.09   0.03  -0.01    -0.06  -0.10   0.01
  32   1     0.11   0.08  -0.00    -0.04  -0.03   0.01    -0.18  -0.08   0.00
  33   1     0.18  -0.02   0.12    -0.00   0.00  -0.01    -0.06   0.00  -0.07
  34   1     0.07  -0.01   0.12    -0.09   0.02  -0.04     0.03  -0.01  -0.08
  35   1     0.02  -0.00  -0.01    -0.03  -0.00  -0.02     0.11   0.01   0.01
  36   1    -0.02   0.00  -0.08    -0.05   0.01  -0.06     0.15  -0.02   0.10
  37   1     0.04   0.02  -0.07     0.01  -0.00   0.05    -0.23   0.03  -0.15
  38   1     0.01   0.01  -0.06    -0.04  -0.00   0.05    -0.18   0.03  -0.16
  39   1     0.09  -0.03   0.11    -0.09   0.03  -0.12     0.04  -0.01   0.12
  40   1     0.01   0.00  -0.05     0.01  -0.02   0.08     0.02  -0.01   0.10
  41   1     0.10  -0.03   0.13    -0.08   0.01  -0.09     0.03  -0.02   0.08
                     46                     47                     48
                        a                      a                      a 
 Frequencies --  1113.1288              1118.9733              1123.7560
 Red. masses --     8.0034                 7.7441                 7.8599
 Frc consts  --     0.0000                 0.0000                 0.0000
 IR Inten    --     2.3146                 2.2835                 0.5981
 Raman Activ --     0.0000                 0.0000                 0.0000
 Depolar     --     0.0000                 0.0000                 0.0000
 Atom AN      X      Y      Z        X      Y      Z        X      Y      Z
   1   7     0.07  -0.05  -0.01     0.02  -0.00   0.01     0.04  -0.01  -0.01
   2   6    -0.18   0.12   0.09    -0.02   0.02  -0.01    -0.08   0.03   0.04
   3   6     0.30  -0.01  -0.06     0.10   0.01   0.05     0.17   0.03  -0.00
   4   6    -0.20  -0.18  -0.13    -0.20   0.13   0.12    -0.19  -0.01   0.04
   5   6    -0.21   0.22   0.02     0.28  -0.15  -0.10     0.21  -0.01  -0.04
   6   6     0.24  -0.05   0.07    -0.28  -0.14   0.01    -0.21  -0.19   0.01
   7   6    -0.00   0.02  -0.02     0.27   0.12  -0.04     0.05   0.22  -0.06
   8   6     0.01  -0.03   0.03    -0.22  -0.02  -0.02     0.13   0.17  -0.03
   9   6     0.22  -0.02  -0.04     0.21   0.04  -0.01    -0.31  -0.14   0.04
  10   6    -0.18   0.13  -0.09    -0.18   0.10  -0.18     0.28  -0.05   0.16
  11   6    -0.20  -0.07   0.12     0.12  -0.06   0.19    -0.20   0.01  -0.16
  12   6     0.23   0.03  -0.01    -0.08   0.04  -0.05     0.14   0.01  -0.06
  13   6    -0.12  -0.01  -0.04    -0.01  -0.02   0.06    -0.04  -0.01   0.01
  14   1    -0.04  -0.07   0.01    -0.01  -0.00  -0.00    -0.02  -0.04   0.01
  15   1    -0.00   0.09   0.00     0.00   0.02  -0.01     0.00   0.04   0.00
  16   1    -0.04   0.00   0.02    -0.01  -0.02   0.00    -0.02   0.01   0.01
  17   1     0.03   0.07   0.02     0.02   0.01  -0.01     0.02   0.03   0.01
  18   1    -0.05   0.03   0.12    -0.00  -0.01   0.02    -0.02  -0.01   0.05
  19   1     0.21  -0.06  -0.01     0.08  -0.02  -0.01     0.10  -0.01   0.02
  20   1     0.11  -0.07  -0.04     0.09  -0.01  -0.00     0.09  -0.04  -0.02
  21   1    -0.00  -0.08  -0.12    -0.07   0.04   0.04    -0.08   0.01  -0.01
  22   1    -0.06   0.01  -0.02    -0.11   0.07   0.06    -0.10   0.07   0.04
  23   1     0.07   0.00   0.05     0.14  -0.07  -0.04     0.12  -0.03   0.01
  24   1    -0.21   0.03   0.03     0.17  -0.10  -0.06     0.06  -0.06  -0.03
  25   1     0.04  -0.03   0.02    -0.18  -0.11   0.00    -0.18  -0.10   0.01
  26   1     0.00  -0.03   0.01    -0.15  -0.08   0.00    -0.10  -0.08   0.01
  27   1    -0.10  -0.04   0.01     0.14   0.08  -0.01     0.00   0.06  -0.01
  28   1    -0.06  -0.04   0.02     0.12   0.05  -0.01    -0.01   0.06  -0.02
  29   1    -0.08  -0.07   0.01    -0.13  -0.04   0.00     0.01   0.04  -0.01
  30   1    -0.07  -0.04   0.00    -0.15  -0.06   0.01     0.07   0.08  -0.02
  31   1    -0.03  -0.02   0.01     0.07   0.01  -0.01    -0.16  -0.07   0.03
  32   1     0.07  -0.01   0.01     0.09   0.05  -0.02    -0.19  -0.10   0.03
  33   1    -0.16  -0.00  -0.03    -0.17   0.03  -0.11     0.17  -0.05   0.13
  34   1     0.08  -0.02  -0.00    -0.05   0.01  -0.08     0.16  -0.04   0.09
  35   1    -0.03   0.01   0.01     0.08  -0.01   0.07    -0.10   0.03  -0.10
  36   1     0.00  -0.00   0.12     0.07  -0.01   0.10    -0.08   0.01  -0.05
  37   1     0.09  -0.03   0.06    -0.09   0.00  -0.04     0.09  -0.01   0.03
  38   1     0.18  -0.03   0.05    -0.03   0.00  -0.04     0.11  -0.01   0.02
  39   1     0.07  -0.02   0.05     0.02  -0.00   0.04     0.04  -0.01   0.03
  40   1    -0.02   0.04  -0.15    -0.00   0.01  -0.01    -0.01   0.02  -0.07
  41   1     0.06   0.02   0.00     0.01   0.00   0.01     0.04   0.00   0.02
                     49                     50                     51
                        a                      a                      a 
 Frequencies --  1136.2906              1157.5410              1168.3071
 Red. masses --     8.0979                 7.4891                 6.0728
 Frc consts  --     0.0000                 0.0000                 0.0000
 IR Inten    --     5.3836                 2.1477                 3.6889
 Raman Activ --     0.0000                 0.0000                 0.0000
 Depolar     --     0.0000                 0.0000                 0.0000
 Atom AN      X      Y      Z        X      Y      Z        X      Y      Z
   1   7     0.06  -0.02  -0.02     0.05  -0.00   0.10     0.00  -0.00   0.16
   2   6    -0.12   0.03   0.08    -0.09   0.00  -0.22     0.02   0.02  -0.35
   3   6     0.20   0.04  -0.04     0.07  -0.03   0.25    -0.09  -0.08   0.29
   4   6    -0.14  -0.16  -0.09    -0.05  -0.01  -0.27     0.01   0.06  -0.10
   5   6     0.02   0.16   0.05     0.08  -0.00   0.28     0.01   0.02   0.05
   6   6     0.03  -0.20  -0.00    -0.05  -0.03  -0.26     0.02  -0.03   0.03
   7   6    -0.07   0.20  -0.03    -0.03   0.02   0.21     0.02   0.02  -0.08
   8   6     0.04  -0.27   0.07    -0.02  -0.08  -0.17     0.03   0.08   0.11
   9   6    -0.03   0.25  -0.11    -0.05   0.08   0.16     0.05  -0.10  -0.16
  10   6    -0.04  -0.18   0.14     0.06  -0.09  -0.15    -0.07   0.12   0.16
  11   6     0.23   0.12  -0.17    -0.09   0.06   0.15     0.08  -0.09  -0.17
  12   6    -0.23  -0.08   0.13     0.10  -0.05  -0.10    -0.10   0.08   0.10
  13   6     0.13   0.04  -0.06    -0.07   0.03   0.05     0.06  -0.05  -0.05
  14   1    -0.03  -0.05   0.01    -0.01   0.05  -0.04     0.01   0.11  -0.06
  15   1     0.00   0.06   0.01     0.01   0.06  -0.05     0.01   0.02  -0.07
  16   1    -0.02   0.02   0.01    -0.03  -0.12   0.00    -0.03  -0.17  -0.01
  17   1     0.01   0.03   0.01     0.14   0.03  -0.09     0.15   0.07  -0.11
  18   1    -0.03  -0.01   0.06    -0.02  -0.06   0.08     0.00  -0.05   0.05
  19   1     0.08   0.00   0.04    -0.01  -0.01  -0.08     0.11  -0.10  -0.18
  20   1     0.09  -0.06  -0.04     0.05   0.11   0.09    -0.14   0.22   0.16
  21   1    -0.07  -0.03  -0.07     0.02   0.00   0.06     0.20  -0.07   0.00
  22   1    -0.05   0.02  -0.01    -0.09  -0.10  -0.07    -0.13  -0.02  -0.00
  23   1     0.01   0.04   0.08    -0.11   0.05  -0.03     0.13  -0.06  -0.05
  24   1    -0.10   0.00   0.02     0.05   0.13   0.10    -0.13   0.08   0.06
  25   1    -0.11  -0.05   0.02    -0.15   0.13   0.00    -0.11  -0.07   0.01
  26   1     0.06  -0.05   0.04     0.16  -0.03   0.08    -0.01  -0.01   0.00
  27   1    -0.02   0.02  -0.02     0.06  -0.12  -0.01    -0.13  -0.01   0.01
  28   1     0.06   0.10  -0.03     0.04   0.13  -0.09     0.05  -0.01   0.02
  29   1    -0.04  -0.09   0.03    -0.03   0.11   0.01    -0.06  -0.11   0.00
  30   1     0.07  -0.04   0.01     0.10  -0.06   0.06    -0.02   0.07  -0.05
  31   1     0.02   0.10  -0.02     0.10  -0.06  -0.02    -0.16   0.02   0.03
  32   1     0.15   0.12  -0.02    -0.05   0.10  -0.07     0.10  -0.08   0.06
  33   1     0.16   0.02   0.04     0.08   0.03  -0.07    -0.07  -0.04   0.10
  34   1    -0.13   0.04   0.07    -0.10   0.04  -0.03     0.12  -0.05   0.03
  35   1     0.06  -0.03   0.03    -0.03  -0.03   0.09     0.04   0.04  -0.10
  36   1     0.01   0.00  -0.16    -0.04  -0.01  -0.04     0.03   0.02   0.05
  37   1    -0.06   0.03  -0.02     0.08   0.01  -0.03    -0.09  -0.02   0.04
  38   1    -0.18   0.02   0.01     0.00   0.01   0.01     0.02  -0.02  -0.02
  39   1    -0.11   0.03  -0.11     0.04  -0.02   0.00    -0.03   0.02   0.02
  40   1     0.02  -0.05   0.17    -0.01   0.00  -0.09     0.01   0.01   0.09
  41   1    -0.09  -0.02  -0.03     0.06  -0.02   0.08    -0.07   0.03  -0.09
                     52                     53                     54
                        a                      a                      a 
 Frequencies --  1187.7393              1219.2267              1229.8096
 Red. masses --     5.4702                 4.6643                 2.9762
 Frc consts  --     0.0000                 0.0000                 0.0000
 IR Inten    --     5.0617                 0.6316                21.8604
 Raman Activ --     0.0000                 0.0000                 0.0000
 Depolar     --     0.0000                 0.0000                 0.0000
 Atom AN      X      Y      Z        X      Y      Z        X      Y      Z
   1   7    -0.03  -0.00   0.07    -0.01  -0.00   0.02     0.19  -0.03   0.15
   2   6     0.06   0.02  -0.15     0.02   0.00  -0.04    -0.18  -0.02  -0.10
   3   6    -0.11  -0.02   0.07    -0.03   0.01  -0.01     0.04   0.02  -0.13
   4   6     0.03   0.01   0.12    -0.00  -0.03   0.07     0.11  -0.07   0.08
   5   6    -0.06   0.08  -0.19    -0.03   0.05  -0.08     0.02  -0.01  -0.08
   6   6     0.07  -0.08   0.21     0.02  -0.05   0.04    -0.03   0.04   0.06
   7   6    -0.05   0.11  -0.12    -0.07   0.06   0.05     0.00  -0.05  -0.06
   8   6     0.07  -0.10   0.02     0.02  -0.12  -0.08    -0.03   0.02   0.04
   9   6    -0.06   0.14   0.10    -0.07   0.10   0.09    -0.00  -0.02  -0.01
  10   6     0.07  -0.18  -0.12     0.04   0.00  -0.04     0.01   0.01  -0.01
  11   6    -0.04   0.17   0.13    -0.04  -0.20   0.00    -0.00  -0.00   0.02
  12   6     0.06  -0.18  -0.08     0.05   0.35   0.05     0.01  -0.01  -0.01
  13   6    -0.03   0.11   0.05    -0.03  -0.28  -0.04    -0.01   0.00   0.00
  14   1     0.01   0.05  -0.02    -0.00   0.01  -0.01    -0.04   0.01  -0.05
  15   1     0.00  -0.02  -0.03     0.00  -0.00  -0.01     0.03   0.19  -0.07
  16   1    -0.00  -0.07  -0.00     0.00  -0.02  -0.00    -0.08  -0.14   0.03
  17   1     0.04   0.05  -0.04     0.01   0.04  -0.00     0.03   0.56   0.11
  18   1     0.01   0.01  -0.01     0.00   0.00  -0.00     0.01  -0.51  -0.01
  19   1     0.17  -0.10  -0.11     0.10  -0.04  -0.03    -0.16   0.08   0.07
  20   1    -0.19   0.11   0.09    -0.08   0.03   0.02    -0.15  -0.01  -0.00
  21   1     0.16  -0.08  -0.08     0.03  -0.03  -0.05    -0.14   0.05   0.01
  22   1    -0.02   0.07   0.06     0.02   0.03   0.02    -0.06   0.09   0.07
  23   1     0.23  -0.09   0.00     0.06  -0.01   0.02    -0.14   0.07   0.07
  24   1    -0.15  -0.05  -0.04    -0.01  -0.05  -0.03     0.01  -0.04  -0.03
  25   1     0.12  -0.09   0.01     0.11   0.03   0.00     0.02  -0.03  -0.00
  26   1    -0.21  -0.07  -0.03    -0.08  -0.05   0.00     0.07   0.09  -0.04
  27   1     0.05   0.11  -0.02     0.13   0.04  -0.02     0.05   0.06  -0.00
  28   1    -0.12  -0.07   0.03    -0.06   0.02  -0.02     0.02  -0.04   0.03
  29   1     0.14   0.05  -0.00     0.05   0.08   0.00     0.05  -0.00  -0.01
  30   1    -0.13  -0.10   0.02     0.05  -0.05   0.03     0.01   0.03  -0.02
  31   1     0.16   0.03  -0.03     0.11   0.02  -0.02     0.06   0.04  -0.01
  32   1    -0.17   0.02  -0.03     0.04   0.11  -0.05    -0.02  -0.03   0.01
  33   1     0.05   0.06  -0.13     0.21  -0.04   0.14    -0.02   0.00  -0.01
  34   1    -0.09   0.04   0.03    -0.23   0.05  -0.18    -0.01   0.00  -0.02
  35   1    -0.09  -0.05   0.09     0.19   0.03   0.01    -0.02   0.00  -0.01
  36   1     0.02  -0.03  -0.10    -0.21   0.05   0.00     0.00  -0.00   0.01
  37   1     0.09   0.05  -0.09     0.03  -0.11   0.24     0.00   0.00  -0.01
  38   1    -0.06   0.03   0.07    -0.03  -0.02  -0.27    -0.00   0.00   0.00
  39   1    -0.00  -0.02  -0.10     0.08   0.02   0.27     0.00  -0.00  -0.00
  40   1    -0.01  -0.04  -0.06     0.00   0.12   0.00    -0.00  -0.00  -0.01
  41   1     0.06  -0.05   0.13    -0.05   0.12  -0.23     0.00  -0.00   0.01
                     55                     56                     57
                        a                      a                      a 
 Frequencies --  1245.1344              1256.1136              1266.7052
 Red. masses --     3.7242                 3.4668                 2.8519
 Frc consts  --     0.0000                 0.0000                 0.0000
 IR Inten    --     1.0918                 2.9290                 0.7741
 Raman Activ --     0.0000                 0.0000                 0.0000
 Depolar     --     0.0000                 0.0000                 0.0000
 Atom AN      X      Y      Z        X      Y      Z        X      Y      Z
   1   7    -0.02   0.01  -0.04    -0.04   0.00   0.01     0.02   0.01  -0.02
   2   6    -0.01  -0.00   0.04     0.04   0.02  -0.05    -0.02  -0.03   0.05
   3   6     0.06  -0.05   0.07    -0.01   0.07   0.01     0.01  -0.12   0.05
   4   6     0.01   0.04  -0.14    -0.09  -0.19   0.12     0.04   0.15  -0.09
   5   6     0.05  -0.01   0.05     0.04   0.15  -0.04    -0.02   0.04  -0.09
   6   6    -0.01   0.01   0.12    -0.08  -0.10  -0.01     0.03  -0.08   0.06
   7   6    -0.03  -0.07  -0.27    -0.14  -0.06   0.01    -0.11   0.02  -0.01
   8   6    -0.04   0.03   0.26    -0.16  -0.01   0.03    -0.08  -0.07  -0.07
   9   6    -0.04  -0.01  -0.08    -0.03  -0.13  -0.02    -0.05  -0.03   0.12
  10   6     0.08  -0.03  -0.04     0.01   0.15   0.01    -0.01   0.14  -0.01
  11   6    -0.01  -0.02   0.09    -0.01  -0.09   0.00    -0.06  -0.10  -0.07
  12   6     0.08   0.04  -0.02     0.02  -0.07  -0.01    -0.04  -0.05  -0.00
  13   6    -0.04  -0.06   0.01    -0.00   0.08   0.02     0.03   0.07  -0.01
  14   1     0.01  -0.01   0.01    -0.00   0.01  -0.00    -0.01  -0.02   0.00
  15   1    -0.01  -0.02   0.02    -0.00  -0.04  -0.01     0.00   0.01   0.01
  16   1     0.01   0.04  -0.00     0.01  -0.01  -0.01    -0.01   0.01   0.00
  17   1    -0.00  -0.14  -0.03     0.02  -0.06  -0.04    -0.02   0.02   0.03
  18   1    -0.01   0.08   0.03    -0.00   0.11   0.01    -0.00  -0.05   0.01
  19   1    -0.16   0.06   0.03     0.29  -0.11  -0.07    -0.35   0.11   0.06
  20   1     0.14  -0.01  -0.01    -0.18   0.05   0.05     0.27  -0.06  -0.06
  21   1     0.04   0.01   0.04    -0.00  -0.08  -0.14     0.26  -0.07  -0.00
  22   1    -0.16   0.00   0.00     0.09   0.06   0.04    -0.29   0.04   0.05
  23   1    -0.03   0.02   0.01    -0.13   0.11   0.15     0.14  -0.06  -0.02
  24   1    -0.14   0.10   0.07     0.13  -0.14  -0.08    -0.14   0.03   0.01
  25   1    -0.22  -0.20   0.02     0.09   0.06  -0.00     0.13   0.03   0.00
  26   1     0.25   0.19  -0.06     0.22   0.10  -0.01    -0.10  -0.06  -0.00
  27   1    -0.02   0.17  -0.00     0.22   0.12  -0.02     0.10   0.06  -0.02
  28   1     0.13  -0.08   0.08     0.24   0.12  -0.02     0.13   0.08  -0.01
  29   1     0.18  -0.08  -0.01     0.17   0.08  -0.02     0.26   0.19  -0.02
  30   1    -0.04   0.11  -0.08     0.26   0.17  -0.04     0.01  -0.04   0.02
  31   1     0.31   0.22  -0.04     0.13   0.09  -0.01    -0.01  -0.07   0.01
  32   1    -0.21  -0.14   0.05     0.11   0.01   0.00     0.20   0.15  -0.06
  33   1    -0.02   0.02  -0.06    -0.04  -0.03   0.06     0.11  -0.06   0.16
  34   1    -0.15   0.03  -0.13    -0.01  -0.01  -0.11    -0.00  -0.00  -0.08
  35   1    -0.06   0.01  -0.02    -0.11   0.04  -0.11    -0.01   0.03  -0.07
  36   1    -0.08   0.01  -0.03     0.08  -0.01   0.12     0.16  -0.02   0.18
  37   1     0.04  -0.02   0.04    -0.08   0.03  -0.10    -0.04   0.02  -0.05
  38   1    -0.09   0.02  -0.11     0.07  -0.01   0.09     0.11  -0.02   0.11
  39   1     0.04  -0.01   0.07    -0.01  -0.01  -0.07    -0.02   0.00  -0.06
  40   1    -0.01   0.03  -0.04    -0.00  -0.03  -0.02     0.00  -0.03   0.03
  41   1     0.01   0.03  -0.04     0.02  -0.03   0.07    -0.00  -0.03   0.04
                     58                     59                     60
                        a                      a                      a 
 Frequencies --  1275.7847              1277.0003              1281.3381
 Red. masses --     3.0819                 2.6234                 2.1988
 Frc consts  --     0.0000                 0.0000                 0.0000
 IR Inten    --     0.9635                 0.2863                 1.6945
 Raman Activ --     0.0000                 0.0000                 0.0000
 Depolar     --     0.0000                 0.0000                 0.0000
 Atom AN      X      Y      Z        X      Y      Z        X      Y      Z
   1   7     0.03   0.01   0.01    -0.00   0.01   0.00    -0.03  -0.00  -0.01
   2   6     0.02  -0.01   0.04     0.01  -0.01  -0.00    -0.01  -0.03  -0.02
   3   6    -0.12  -0.03  -0.02    -0.01  -0.02   0.02     0.09  -0.08   0.08
   4   6    -0.08   0.10   0.05    -0.05  -0.05   0.05     0.09  -0.06  -0.02
   5   6    -0.06   0.08  -0.01     0.03   0.09  -0.04     0.02   0.06  -0.13
   6   6     0.02  -0.08  -0.15    -0.04  -0.03  -0.07    -0.01   0.02   0.06
   7   6    -0.06   0.05   0.13    -0.02  -0.07  -0.04    -0.06  -0.02   0.10
   8   6     0.02   0.03   0.13    -0.05   0.06   0.04     0.03   0.03  -0.08
   9   6    -0.00  -0.02  -0.15     0.04  -0.04   0.07     0.02  -0.05  -0.06
  10   6     0.06  -0.03   0.08    -0.03  -0.06  -0.06    -0.02  -0.10  -0.00
  11   6     0.09  -0.01   0.10    -0.07   0.24  -0.03     0.03   0.03   0.01
  12   6     0.11  -0.00  -0.01    -0.08   0.01   0.00     0.01   0.08   0.01
  13   6    -0.06  -0.01   0.04     0.04  -0.14  -0.05    -0.00   0.01   0.01
  14   1    -0.02  -0.02  -0.00    -0.01  -0.00  -0.00     0.01   0.01  -0.00
  15   1     0.01   0.01  -0.01     0.00  -0.01  -0.01    -0.01  -0.01   0.00
  16   1    -0.01  -0.02   0.00     0.00  -0.00  -0.00     0.02   0.02  -0.00
  17   1    -0.03   0.12   0.05    -0.00   0.01   0.00     0.01  -0.07  -0.02
  18   1     0.02  -0.14  -0.05    -0.00   0.02   0.00    -0.02   0.14   0.07
  19   1    -0.07   0.01  -0.00    -0.00  -0.01  -0.01    -0.17   0.06   0.02
  20   1     0.20  -0.09  -0.08     0.04  -0.01  -0.00     0.01   0.05   0.04
  21   1     0.29  -0.13  -0.09     0.16  -0.10  -0.10     0.12  -0.07  -0.06
  22   1     0.05  -0.04  -0.02    -0.09   0.07   0.05    -0.41   0.19   0.16
  23   1     0.13  -0.05  -0.03    -0.12   0.09   0.09    -0.15   0.10   0.12
  24   1     0.13  -0.09  -0.06     0.14  -0.11  -0.07     0.03  -0.09  -0.07
  25   1     0.16   0.18  -0.01     0.05   0.08  -0.01     0.10   0.03  -0.00
  26   1    -0.15  -0.17   0.06     0.06   0.01   0.01    -0.01   0.04  -0.03
  27   1    -0.16  -0.16   0.02    -0.14  -0.04   0.01     0.25   0.06  -0.02
  28   1     0.22   0.19  -0.06     0.26   0.10  -0.01    -0.15  -0.04  -0.01
  29   1    -0.11  -0.15   0.02     0.21   0.09  -0.02    -0.22  -0.07   0.01
[...]
  33   1    -0.01   0.02   0.02     0.02  -0.05  -0.04    -0.13   0.37   0.29
  34   1     0.03   0.05  -0.02    -0.04  -0.09   0.04    -0.11  -0.24   0.08
  35   1    -0.01   0.03   0.02     0.01  -0.03  -0.02     0.07  -0.19  -0.15
  36   1     0.00   0.01  -0.00    -0.02  -0.04   0.02     0.14   0.34  -0.12
  37   1     0.02  -0.05  -0.04    -0.03   0.08   0.06    -0.01   0.02   0.01
  38   1     0.03   0.07  -0.03    -0.05  -0.12   0.04     0.00   0.01  -0.00
  39   1    -0.00  -0.01   0.00     0.00   0.01  -0.01    -0.01  -0.02   0.01
  40   1    -0.01   0.00   0.00     0.01  -0.00  -0.00    -0.01   0.00  -0.00
  41   1     0.00   0.00   0.00    -0.00  -0.00  -0.00    -0.00   0.00   0.00
                    103                    104                    105
                        a                      a                      a 
 Frequencies --  2956.6290              2958.6205              2960.2751
 Red. masses --     1.4758                 1.5550                 1.8299
 Frc consts  --     0.0000                 0.0000                 0.0000
 IR Inten    --     8.7256                 5.2875                 0.7322
 Raman Activ --     0.0000                 0.0000                 0.0000
 Depolar     --     0.0000                 0.0000                 0.0000
 Atom AN      X      Y      Z        X      Y      Z        X      Y      Z
   1   7     0.00   0.00   0.00     0.00  -0.00   0.00    -0.00   0.00   0.00
   2   6    -0.02   0.00  -0.02    -0.10   0.00  -0.05     0.22  -0.01   0.12
   3   6    -0.00  -0.01   0.01     0.01   0.04   0.00    -0.02  -0.05  -0.01
   4   6     0.03   0.01   0.05     0.04   0.04   0.04     0.01   0.01   0.03
   5   6    -0.03  -0.02  -0.05    -0.07  -0.06  -0.11    -0.03  -0.03  -0.04
   6   6    -0.03   0.04  -0.04     0.04  -0.08   0.01     0.02  -0.04   0.01
   7   6     0.04  -0.08   0.03    -0.02   0.03  -0.01     0.00  -0.00   0.00
   8   6    -0.01   0.02  -0.02    -0.00   0.00   0.00    -0.01   0.02  -0.00
   9   6     0.03  -0.06   0.02    -0.02   0.03  -0.00    -0.01   0.01  -0.00
  10   6    -0.06   0.01   0.09     0.01   0.01  -0.01    -0.00   0.01   0.00
  11   6     0.04   0.03  -0.05    -0.01   0.00   0.01     0.00   0.01  -0.00
  12   6    -0.01   0.00   0.02     0.00   0.00  -0.00    -0.00   0.00   0.00
  13   6    -0.00  -0.00   0.00    -0.00  -0.00  -0.00     0.00   0.00  -0.00
  14   1     0.00  -0.00   0.00     0.00  -0.00   0.00     0.00  -0.00  -0.00
  15   1    -0.00  -0.00  -0.00    -0.01  -0.00  -0.00     0.01   0.00   0.00
  16   1    -0.00   0.00  -0.00    -0.00   0.00  -0.00     0.00  -0.00   0.01
  17   1     0.01  -0.01   0.05     0.04  -0.05   0.17    -0.09   0.11  -0.40
  18   1     0.08   0.01   0.00     0.32   0.04   0.02    -0.69  -0.08  -0.05
  19   1     0.01   0.03  -0.00    -0.05  -0.13   0.02     0.09   0.22  -0.03
  20   1    -0.00   0.01  -0.02    -0.00   0.01  -0.02     0.02  -0.04   0.10
  21   1    -0.05  -0.12   0.03    -0.10  -0.24   0.05    -0.03  -0.08   0.02
  22   1    -0.05   0.07  -0.21    -0.05   0.08  -0.22    -0.03   0.04  -0.14
  23   1     0.06   0.15  -0.03     0.17   0.39  -0.07     0.08   0.19  -0.03
  24   1     0.03  -0.07   0.20     0.08  -0.16   0.47     0.03  -0.07   0.20
  25   1     0.04  -0.06   0.24    -0.04   0.05  -0.25    -0.03   0.04  -0.16
  26   1     0.06  -0.12  -0.10    -0.11   0.23   0.19    -0.06   0.12   0.10
  27   1    -0.06   0.07  -0.30     0.02  -0.03   0.12    -0.00   0.00  -0.02
  28   1    -0.09   0.21   0.20     0.04  -0.09  -0.08    -0.00   0.01   0.01
  29   1     0.03  -0.03   0.11    -0.00   0.00  -0.00     0.01  -0.02   0.06
  30   1     0.02  -0.05  -0.05     0.00  -0.00  -0.00     0.02  -0.05  -0.04
  31   1    -0.06   0.06  -0.23     0.03  -0.03   0.10     0.01  -0.01   0.03
  32   1    -0.06   0.16   0.16     0.03  -0.08  -0.08     0.01  -0.03  -0.03
  33   1     0.10  -0.31  -0.24    -0.01   0.03   0.02     0.01  -0.02  -0.02
  34   1     0.13   0.27  -0.10    -0.02  -0.04   0.02     0.00   0.00   0.00
  35   1    -0.05   0.14   0.11     0.01  -0.03  -0.03     0.00  -0.00  -0.00
  36   1    -0.10  -0.24   0.08     0.01   0.03  -0.01    -0.01  -0.02   0.01
  37   1     0.03  -0.07  -0.06    -0.00   0.01   0.01     0.00  -0.00  -0.00
  38   1     0.03   0.07  -0.02    -0.01  -0.01   0.01     0.00   0.00  -0.00
  39   1     0.00   0.01  -0.00     0.00   0.00  -0.00    -0.00  -0.00   0.00
  40   1    -0.00  -0.00   0.00     0.00  -0.00  -0.00    -0.00   0.00  -0.00
  41   1     0.00  -0.00  -0.00    -0.00   0.00   0.00    -0.00   0.00   0.00
                    106                    107                    108
                        a                      a                      a 
 Frequencies --  2961.7514              2966.4402              2967.6626
 Red. masses --     1.5567                 1.5356                 1.5495
 Frc consts  --     0.0000                 0.0000                 0.0000
 IR Inten    --    25.5449                30.6900               134.3229
 Raman Activ --     0.0000                 0.0000                 0.0000
 Depolar     --     0.0000                 0.0000                 0.0000
 Atom AN      X      Y      Z        X      Y      Z        X      Y      Z
   1   7     0.00   0.00   0.00     0.00   0.00   0.00    -0.00  -0.00  -0.00
   2   6     0.03  -0.00   0.02    -0.04  -0.00  -0.01     0.02   0.00   0.00
   3   6     0.00   0.01  -0.02    -0.04  -0.04  -0.07     0.02   0.02   0.04
   4   6     0.02   0.04   0.01     0.06   0.06   0.10    -0.04  -0.04  -0.05
   5   6    -0.02   0.01  -0.07     0.04   0.03   0.08    -0.02  -0.02  -0.03
   6   6    -0.06   0.10  -0.07     0.01  -0.02   0.04     0.01  -0.03  -0.01
   7   6    -0.03   0.05  -0.03     0.00   0.00   0.02     0.02  -0.04  -0.01
   8   6     0.05  -0.10   0.03     0.01  -0.02   0.00     0.01  -0.02  -0.03
   9   6     0.02  -0.03  -0.00     0.01  -0.01  -0.01     0.01  -0.03  -0.03
  10   6     0.02  -0.02  -0.04     0.03  -0.01  -0.05     0.05  -0.01  -0.08
  11   6    -0.00  -0.02  -0.00     0.04   0.02  -0.06     0.08   0.03  -0.11
  12   6     0.01  -0.00  -0.01     0.02   0.00  -0.03     0.03   0.01  -0.04
  13   6    -0.00   0.00   0.00    -0.01  -0.00   0.01    -0.03  -0.00   0.01
  14   1    -0.00  -0.00  -0.00     0.00  -0.00  -0.00    -0.00   0.00   0.00
  15   1    -0.00  -0.00  -0.00    -0.01  -0.01  -0.00     0.01   0.00   0.00
  16   1     0.00  -0.00   0.00     0.00  -0.00   0.00    -0.00   0.00  -0.00
  17   1    -0.02   0.02  -0.08     0.01  -0.01   0.03     0.00   0.00  -0.00
  18   1    -0.10  -0.01  -0.01     0.12   0.01   0.01    -0.06  -0.01  -0.00
  19   1    -0.01  -0.03   0.00     0.09   0.25  -0.04    -0.05  -0.15   0.02
  20   1     0.01  -0.02   0.06     0.06  -0.09   0.28    -0.04   0.06  -0.19
  21   1    -0.07  -0.18   0.03    -0.14  -0.35   0.08     0.09   0.22  -0.05
  22   1    -0.01   0.03  -0.06    -0.09   0.15  -0.44     0.05  -0.07   0.22
  23   1     0.02   0.06  -0.02    -0.09  -0.20   0.04     0.05   0.12  -0.02
  24   1     0.05  -0.09   0.27    -0.05   0.10  -0.30     0.02  -0.04   0.12
  25   1     0.09  -0.11   0.46    -0.03   0.04  -0.16    -0.00   0.00  -0.03
  26   1     0.12  -0.24  -0.22    -0.01   0.02   0.02    -0.04   0.08   0.07
  27   1     0.05  -0.06   0.23    -0.01   0.01  -0.04    -0.02   0.02  -0.08
  28   1     0.06  -0.13  -0.12     0.01  -0.03  -0.02    -0.05   0.12   0.11
  29   1    -0.08   0.09  -0.35    -0.01   0.01  -0.04     0.01  -0.02   0.06
  30   1    -0.11   0.26   0.24    -0.02   0.05   0.04    -0.03   0.07   0.06
  31   1    -0.02   0.02  -0.07     0.00  -0.00  -0.00     0.00  -0.01   0.00
  32   1    -0.03   0.09   0.09    -0.02   0.04   0.04    -0.04   0.10   0.09
  33   1    -0.05   0.15   0.12    -0.05   0.15   0.11    -0.09   0.26   0.20
  34   1    -0.03  -0.07   0.02    -0.06  -0.13   0.04    -0.10  -0.22   0.07
  35   1    -0.01   0.03   0.03    -0.06   0.18   0.14    -0.11   0.32   0.25
  36   1     0.02   0.05  -0.02    -0.10  -0.23   0.08    -0.17  -0.42   0.15
  37   1    -0.02   0.05   0.04    -0.03   0.07   0.06    -0.05   0.13   0.10
  38   1    -0.01  -0.03   0.01    -0.04  -0.09   0.03    -0.06  -0.15   0.05
  39   1    -0.00  -0.00   0.00     0.01   0.03  -0.01     0.02   0.05  -0.02
  40   1     0.01   0.00   0.00     0.03  -0.00   0.00     0.06  -0.00   0.00
  41   1     0.00  -0.01  -0.01     0.01  -0.02  -0.02     0.01  -0.04  -0.04
                    109                    110                    111
                        a                      a                      a 
 Frequencies --  2973.1261              2979.1702              2988.1872
 Red. masses --     1.5516                 1.5630                 1.5713
 Frc consts  --     0.0000                 0.0000                 0.0000
 IR Inten    --   180.6083                61.0774                 9.4677
 Raman Activ --     0.0000                 0.0000                 0.0000
 Depolar     --     0.0000                 0.0000                 0.0000
 Atom AN      X      Y      Z        X      Y      Z        X      Y      Z
   1   7     0.00  -0.00   0.00     0.00  -0.00   0.00    -0.00   0.00   0.00
   2   6    -0.00  -0.00   0.00     0.07   0.01   0.00     0.07   0.07  -0.19
   3   6    -0.00   0.00  -0.01     0.08   0.08   0.13    -0.01   0.01  -0.06
   4   6     0.01   0.02  -0.00     0.05   0.04   0.07    -0.00   0.00  -0.01
   5   6    -0.00   0.02  -0.02     0.02   0.02   0.04    -0.00  -0.00  -0.01
   6   6    -0.04   0.07  -0.04     0.00   0.00   0.02    -0.00   0.00  -0.00
   7   6    -0.04   0.08  -0.04    -0.00   0.01   0.01    -0.00   0.00  -0.00
   8   6    -0.07   0.12  -0.06    -0.00   0.00   0.01    -0.00   0.00  -0.00
   9   6    -0.03   0.05  -0.02    -0.00   0.00   0.00    -0.00   0.00  -0.00
  10   6     0.01   0.02  -0.01    -0.00   0.00   0.00     0.00  -0.00  -0.00
  11   6     0.03   0.03  -0.03    -0.00  -0.00   0.00     0.00  -0.00  -0.00
  12   6     0.01   0.01  -0.01    -0.00   0.00   0.00    -0.00   0.00   0.00
  13   6    -0.01  -0.01   0.00     0.00  -0.00  -0.00    -0.00  -0.00   0.00
  14   1    -0.00   0.00   0.00    -0.00   0.00   0.00     0.00   0.00  -0.00
  15   1    -0.00  -0.00  -0.00    -0.00  -0.00   0.00     0.01   0.00   0.00
  16   1     0.00  -0.00   0.00    -0.00   0.00  -0.01    -0.00   0.01  -0.02
  17   1    -0.01   0.01  -0.02     0.01  -0.00   0.02     0.23  -0.21   0.76
  18   1     0.01   0.00   0.00    -0.27  -0.03  -0.02    -0.47  -0.05  -0.07
  19   1    -0.00  -0.01  -0.00    -0.18  -0.49   0.08    -0.00   0.00  -0.01
  20   1     0.01  -0.01   0.03    -0.11   0.18  -0.55     0.04  -0.06   0.19
  21   1    -0.04  -0.08   0.01    -0.10  -0.25   0.05    -0.00  -0.00  -0.00
  22   1     0.00   0.00  -0.00    -0.06   0.10  -0.30     0.01  -0.01   0.04
  23   1    -0.02  -0.04   0.00    -0.06  -0.14   0.03     0.00   0.01  -0.00
  24   1     0.01  -0.02   0.07    -0.03   0.06  -0.18     0.00  -0.01   0.03
  25   1     0.05  -0.06   0.28    -0.01   0.01  -0.05     0.00  -0.00   0.01
  26   1     0.08  -0.17  -0.15     0.01  -0.02  -0.01    -0.00   0.00  -0.00
  27   1     0.06  -0.07   0.30    -0.00   0.00  -0.00     0.00  -0.00   0.01
  28   1     0.08  -0.19  -0.18     0.02  -0.04  -0.03     0.00  -0.00  -0.00
  29   1     0.11  -0.13   0.51    -0.00   0.00  -0.01     0.00  -0.00   0.01
  30   1     0.13  -0.31  -0.29     0.01  -0.01  -0.01     0.00  -0.00  -0.00
  31   1     0.05  -0.05   0.18    -0.00   0.00  -0.00     0.00  -0.00   0.00
  32   1     0.04  -0.12  -0.12     0.00  -0.01  -0.01     0.00  -0.00  -0.00
  33   1     0.00  -0.00  -0.01     0.00  -0.01  -0.01    -0.00   0.00   0.00
  34   1    -0.04  -0.07   0.03     0.00   0.01  -0.00    -0.00  -0.00   0.00
  35   1    -0.02   0.07   0.05     0.00  -0.01  -0.01    -0.00   0.00   0.00
  36   1    -0.08  -0.18   0.07     0.00   0.01  -0.00    -0.00  -0.00   0.00
  37   1    -0.00   0.02   0.01     0.00  -0.00  -0.00     0.00  -0.00  -0.00
  38   1    -0.02  -0.04   0.02     0.00   0.00  -0.00    -0.00  -0.00   0.00
  39   1     0.01   0.03  -0.01    -0.00  -0.00   0.00     0.00   0.00  -0.00
  40   1     0.03  -0.00   0.00    -0.01   0.00  -0.00     0.00  -0.00   0.00
  41   1    -0.00  -0.00  -0.00    -0.00   0.00   0.00    -0.00   0.00   0.00
                    112                    113                    114
                        a                      a                      a 
 Frequencies --  3001.8082              3002.8859              3018.3568
 Red. masses --     1.9133                 1.9401                 1.2827
 Frc consts  --     0.0000                 0.0000                 0.0000
 IR Inten    --    54.7961                58.9731                35.2812
 Raman Activ --     0.0000                 0.0000                 0.0000
 Depolar     --     0.0000                 0.0000                 0.0000
 Atom AN      X      Y      Z        X      Y      Z        X      Y      Z
   1   7    -0.00   0.00   0.00     0.00   0.00   0.00    -0.00   0.00   0.00
   2   6    -0.00   0.00  -0.00     0.00  -0.00   0.00     0.00  -0.00   0.00
   3   6    -0.00  -0.00  -0.00    -0.00  -0.00   0.00    -0.00  -0.00   0.00
   4   6    -0.00  -0.00  -0.00    -0.00   0.00  -0.00     0.00   0.00   0.00
   5   6    -0.00  -0.00  -0.00    -0.00  -0.00   0.00    -0.00  -0.00   0.00
   6   6    -0.00   0.00  -0.00     0.00  -0.00   0.00     0.00  -0.00   0.00
   7   6    -0.00   0.00  -0.00     0.00  -0.00  -0.00    -0.00   0.00   0.00
   8   6    -0.00   0.00  -0.00     0.00  -0.00   0.00     0.00  -0.00   0.00
   9   6    -0.00  -0.00  -0.00     0.00  -0.00  -0.00    -0.00   0.00   0.00
  10   6     0.00  -0.00  -0.01    -0.00  -0.00  -0.00    -0.00  -0.00   0.00
  11   6     0.01   0.00  -0.01    -0.00  -0.01  -0.00    -0.01  -0.00   0.01
  12   6     0.02  -0.00  -0.02    -0.00  -0.04  -0.00    -0.01  -0.00   0.01
  13   6     0.27  -0.03  -0.08    -0.04  -0.28  -0.04     0.01  -0.03   0.15
  14   1     0.00  -0.00  -0.00     0.00  -0.00   0.00     0.00  -0.00  -0.00
  15   1     0.00   0.00   0.00    -0.00  -0.00   0.00     0.00   0.00   0.00
  16   1    -0.00   0.00  -0.00    -0.00   0.00  -0.00    -0.00   0.00  -0.00
  17   1     0.00  -0.00   0.00    -0.00   0.00  -0.00    -0.00   0.00  -0.00
  18   1     0.00   0.00   0.00    -0.00  -0.00   0.00    -0.00  -0.00   0.00
  19   1     0.00   0.00  -0.00     0.00   0.00  -0.00     0.00   0.00  -0.00
  20   1     0.00  -0.00   0.00    -0.00   0.00  -0.00    -0.00  -0.00  -0.00
  21   1     0.00   0.00  -0.00     0.00   0.00  -0.00    -0.00  -0.00   0.00
  22   1     0.00  -0.00   0.00     0.00  -0.00   0.00    -0.00   0.00  -0.00
  23   1     0.00   0.00  -0.00     0.00   0.00  -0.00     0.00   0.00  -0.00
  24   1     0.00  -0.00   0.00    -0.00   0.00  -0.00    -0.00  -0.00  -0.00
  25   1     0.00  -0.00   0.00    -0.00   0.00  -0.00    -0.00   0.00  -0.00
  26   1     0.00  -0.00  -0.00    -0.00   0.00   0.00    -0.00   0.00   0.00
  27   1     0.00  -0.00   0.00    -0.00   0.00  -0.00    -0.00  -0.00   0.00
  28   1    -0.00   0.00   0.00    -0.00   0.00   0.00     0.00  -0.00  -0.00
  29   1     0.00  -0.00   0.01    -0.00   0.00  -0.01    -0.00   0.00  -0.00
  30   1    -0.00   0.00  -0.00    -0.00   0.01   0.00    -0.00   0.00   0.00
  31   1     0.00  -0.00   0.01    -0.00   0.00  -0.00     0.00  -0.00   0.00
  32   1    -0.00   0.00   0.00    -0.00   0.01   0.01     0.00  -0.00  -0.00
  33   1    -0.00   0.02   0.01    -0.00   0.01   0.01     0.00  -0.00  -0.00
  34   1    -0.01  -0.01   0.01     0.00   0.01  -0.00     0.00   0.00  -0.00
  35   1    -0.02   0.04   0.03    -0.01   0.01   0.01     0.01  -0.02  -0.02
  36   1    -0.02  -0.05   0.02     0.01   0.03  -0.01     0.01   0.03  -0.01
  37   1    -0.02   0.06   0.05    -0.02   0.04   0.03     0.01  -0.03  -0.02
  38   1    -0.02  -0.06   0.02     0.03   0.06  -0.02     0.01   0.03  -0.01
  39   1    -0.04  -0.20   0.06     0.26   0.59  -0.26     0.23   0.55  -0.20
  40   1    -0.85   0.04   0.00     0.09  -0.05  -0.01    -0.43   0.02   0.02
  41   1    -0.06   0.27   0.22    -0.20   0.45   0.41     0.17  -0.47  -0.37
                    115                    116                    117
                        a                      a                      a 
 Frequencies --  3253.3152              3260.5885              3275.8825
 Red. masses --     2.0328                 2.0440                 1.2797
 Frc consts  --     0.0000                 0.0000                 0.0000
 IR Inten    --   108.5748                79.2911                22.5213
 Raman Activ --     0.0000                 0.0000                 0.0000
 Depolar     --     0.0000                 0.0000                 0.0000
 Atom AN      X      Y      Z        X      Y      Z        X      Y      Z
   1   7    -0.28   0.04  -0.03    -0.02   0.06   0.27     0.00   0.14  -0.04
   2   6    -0.01  -0.00  -0.00     0.00  -0.00   0.01     0.00   0.01  -0.00
   3   6     0.00   0.00   0.00     0.00  -0.00  -0.00     0.00  -0.00   0.00
   4   6     0.00   0.00  -0.00    -0.00  -0.00  -0.00    -0.00  -0.00  -0.00
   5   6    -0.00   0.00   0.00     0.00  -0.00   0.00     0.00   0.00   0.00
   6   6    -0.00   0.00   0.00    -0.00   0.00   0.00    -0.00  -0.00  -0.00
   7   6    -0.00   0.00   0.00     0.00  -0.00  -0.00     0.00  -0.00   0.00
   8   6    -0.00   0.00   0.00    -0.00   0.00   0.00     0.00  -0.00  -0.00
   9   6    -0.00   0.00   0.00     0.00  -0.00  -0.00     0.00  -0.00   0.00
  10   6    -0.00   0.00   0.00     0.00  -0.00  -0.00     0.00   0.00  -0.00
  11   6    -0.00  -0.00   0.00     0.00   0.00  -0.00     0.00  -0.00  -0.00
  12   6    -0.00  -0.00   0.00     0.00  -0.00  -0.00    -0.00   0.00   0.00
  13   6    -0.00  -0.00  -0.00    -0.00   0.00   0.00     0.00  -0.00  -0.00
  14   1     0.18  -0.23  -0.26     0.36  -0.40  -0.42     0.30  -0.32  -0.37
  15   1     0.82   0.14   0.12    -0.11  -0.01   0.01    -0.47  -0.06  -0.07
  16   1     0.04  -0.06   0.25    -0.17   0.18  -0.62     0.16  -0.15   0.61
  17   1     0.00  -0.00   0.00    -0.00   0.00  -0.01     0.00  -0.00   0.01
  18   1     0.02   0.00   0.00     0.00  -0.00  -0.00    -0.01  -0.00  -0.00
  19   1    -0.00  -0.00   0.00    -0.00   0.00   0.00    -0.00  -0.00   0.00
  20   1    -0.00   0.00  -0.00     0.00  -0.00  -0.00    -0.00   0.00  -0.00
  21   1    -0.01  -0.02   0.00     0.00   0.00  -0.00     0.00   0.01  -0.00
  22   1     0.00   0.00  -0.00     0.00  -0.00   0.00     0.00  -0.00   0.00
  23   1    -0.00  -0.00   0.00    -0.00   0.00   0.00    -0.00  -0.00   0.00
  24   1    -0.00   0.00  -0.00    -0.00   0.00  -0.00    -0.00   0.00  -0.00
  25   1    -0.00   0.00  -0.00     0.00  -0.00   0.00     0.00  -0.00   0.00
  26   1     0.00  -0.00  -0.00     0.00  -0.00  -0.00     0.00  -0.00   0.00
  27   1    -0.00   0.00  -0.00     0.00  -0.00   0.00    -0.00   0.00  -0.00
  28   1     0.00  -0.00  -0.00    -0.00   0.00   0.00    -0.00   0.00   0.00
  29   1    -0.00   0.00   0.00    -0.00   0.00  -0.00     0.00  -0.00   0.00
  30   1     0.00  -0.00  -0.00     0.00  -0.00  -0.00    -0.00   0.00   0.00
  31   1    -0.00   0.00  -0.00     0.00  -0.00   0.00    -0.00   0.00  -0.00
  32   1     0.00  -0.00  -0.00    -0.00   0.00   0.00    -0.00   0.00   0.00
  33   1     0.00  -0.00  -0.00    -0.00   0.00   0.00     0.00  -0.00  -0.00
  34   1     0.00   0.00  -0.00     0.00   0.00  -0.00    -0.00  -0.00   0.00
  35   1    -0.00  -0.00  -0.00     0.00  -0.00  -0.00    -0.00   0.00   0.00
  36   1     0.00   0.00  -0.00    -0.00  -0.00   0.00     0.00   0.00  -0.00
  37   1     0.00  -0.00  -0.00    -0.00   0.00   0.00     0.00  -0.00  -0.00
  38   1     0.00   0.00  -0.00     0.00   0.00  -0.00    -0.00  -0.00   0.00
  39   1     0.00   0.00  -0.00    -0.00  -0.00   0.00     0.00   0.00  -0.00
  40   1     0.00   0.00   0.00     0.00  -0.00  -0.00    -0.00   0.00   0.00
  41   1    -0.00   0.00   0.00     0.00  -0.00  -0.00    -0.00   0.00   0.00
