 Entering Gaussian System
 *********************************************
 Gaussian 98:
 frequency output generated by the xtb code
 *********************************************
                         Standard orientation:
 --------------------------------------------------------------------
  Center     Atomic     Atomic              Coordinates (Angstroms)
  Number     Number      Type              X           Y           Z
 --------------------------------------------------------------------
    1          7             0        3.785362    0.903009   -0.875465
    2          6             0        3.517913   -0.190672   -1.851862
    3          6             0        3.247378   -1.531659   -1.172719
    4          6             0        1.952821   -1.555951   -0.416634
    5          6             0        0.753287   -1.747856   -1.087690
    6          6             0       -0.442421   -1.754349   -0.406015
    7          6             0        1.922686   -1.362039    0.957316
    8          6             0        0.728589   -1.364741    1.643030
    9          6             0       -0.474715   -1.555476    0.970304
   10          7             0       -1.686552   -1.525118    1.661139
   11          7             0       -2.658510   -0.813664    1.341811
   12          6             0       -2.629688    0.158144    0.342229
   13          6             0       -1.589094    1.077829    0.271704
   14          6             0       -1.555862    2.028357   -0.723728
   15          6             0       -2.566805    2.081331   -1.663355
   16          6             0       -3.611280    1.179106   -1.602360
   17          6             0       -3.644851    0.226088   -0.608178
   18         17             0        1.256345    2.018876    1.349182
   19          1             0        2.975235    1.066874   -0.258802
   20          1             0        3.998005    1.792997   -1.346787
   21          1             0        4.587633    0.667136   -0.271357
   22          1             0        4.372160   -0.278807   -2.534585
   23          1             0        2.663012    0.081122   -2.481470
   24          1             0        4.070219   -1.770412   -0.490881
   25          1             0        3.238141   -2.340411   -1.912537
   26          1             0        0.766513   -1.891478   -2.154850
   27          1             0       -1.370623   -1.899585   -0.930452
   28          1             0        2.847409   -1.205612    1.486352
   29          1             0        0.708233   -1.208059    2.707410
   30          1             0       -0.798441    1.017726    0.999391
   31          1             0       -0.737778    2.728343   -0.770642
   32          1             0       -2.540544    2.825189   -2.442876
   33          1             0       -4.401072    1.220209   -2.334707
   34          1             0       -4.452945   -0.482538   -0.555344
 --------------------------------------------------------------------
     1 basis functions        1 primitive gaussians
     1 alpha electrons        1 beta electrons

 Harmonic frequencies (cm**-1), IR intensities (km*mol⁻¹),
 Raman scattering activities (A**4/amu), Raman depolarization ratios,
 reduced masses (AMU), force constants (mDyne/A) and normal coordinates:
                      1                      2                      3
                        a                      a                      a 
 Frequencies --   -64.5221               -49.8096               -15.1532
 Red. masses --    20.0226                16.9792                14.5132
 Frc consts  --     0.0000                 0.0000                 0.0000
 IR Inten    --    21.0720                45.6524                 2.8842
 Raman Activ --     0.0000                 0.0000                 0.0000
 Depolar     --     0.0000                 0.0000                 0.0000
 Atom AN      X      Y      Z        X      Y      Z        X      Y      Z
   1   7     0.08  -0.07  -0.09    -0.16   0.18   0.26    -0.09   0.03  -0.01
   2   6     0.03  -0.06  -0.07    -0.06   0.21   0.17    -0.10   0.03  -0.01
   3   6     0.02  -0.05  -0.05     0.00   0.14   0.07    -0.05   0.01  -0.02
   4   6     0.02  -0.04  -0.04    -0.01   0.03   0.05    -0.05  -0.04  -0.01
   5   6     0.02  -0.11  -0.02     0.01   0.01   0.02    -0.02  -0.32   0.03
   6   6     0.03  -0.11  -0.01    -0.00  -0.05  -0.01    -0.02  -0.36   0.03
   7   6     0.03   0.03  -0.05    -0.03  -0.05   0.06    -0.08   0.20  -0.05
   8   6     0.03   0.04  -0.04    -0.05  -0.10   0.03    -0.07   0.17  -0.05
   9   6     0.03  -0.02  -0.02    -0.03  -0.08  -0.00    -0.05  -0.11  -0.01
  10   7     0.04   0.02  -0.02    -0.04  -0.05  -0.02    -0.08  -0.16  -0.06
  11   7     0.05   0.04  -0.02    -0.02   0.00   0.00    -0.06  -0.15  -0.08
  12   6     0.04   0.01  -0.04     0.01   0.00   0.01     0.03  -0.07  -0.01
  13   6     0.18  -0.16  -0.28     0.15  -0.17  -0.18     0.08  -0.12   0.13
  14   6     0.12  -0.17  -0.29     0.15  -0.18  -0.19     0.18  -0.03   0.21
  15   6    -0.06  -0.03  -0.08     0.00  -0.03  -0.03     0.23   0.10   0.17
  16   6    -0.18   0.13   0.13    -0.14   0.15   0.16     0.19   0.14   0.03
  17   6    -0.14   0.15   0.16    -0.14   0.17   0.18     0.09   0.05  -0.06
  18  17    -0.21   0.27   0.53     0.26  -0.17  -0.42    -0.05   0.37  -0.15
  19   1     0.03  -0.02  -0.01    -0.05   0.04   0.06    -0.02   0.01  -0.00
  20   1     0.01  -0.02  -0.03    -0.04   0.05   0.09    -0.02   0.01  -0.01
  21   1     0.03  -0.02  -0.04    -0.05   0.04   0.08    -0.02   0.01  -0.01
  22   1     0.00  -0.03  -0.03    -0.01   0.09   0.05    -0.03   0.01  -0.01
  23   1     0.00  -0.02  -0.01    -0.02   0.06   0.05    -0.03   0.00   0.00
  24   1     0.01  -0.01  -0.01     0.00   0.04   0.02    -0.01   0.01  -0.01
  25   1     0.00  -0.02  -0.01     0.02   0.06   0.00    -0.01   0.01  -0.01
  26   1     0.01  -0.05  -0.00     0.01   0.01   0.00    -0.00  -0.15   0.02
  27   1     0.01  -0.05   0.00     0.00  -0.01  -0.01    -0.00  -0.16   0.02
  28   1     0.01   0.02  -0.02    -0.01  -0.01   0.02    -0.03   0.12  -0.02
  29   1     0.01   0.03  -0.01    -0.02  -0.04   0.01    -0.03   0.11  -0.02
  30   1     0.09  -0.07  -0.13     0.07  -0.08  -0.09     0.01  -0.06   0.05
  31   1     0.06  -0.08  -0.13     0.07  -0.09  -0.10     0.06  -0.02   0.09
  32   1    -0.03  -0.01  -0.03    -0.00  -0.01  -0.01     0.09   0.05   0.07
  33   1    -0.09   0.07   0.08    -0.08   0.08   0.09     0.07   0.07  -0.00
  34   1    -0.07   0.08   0.10    -0.08   0.09   0.09     0.01   0.02  -0.05
                      4                      5                      6
                        a                      a                      a 
 Frequencies --    31.4978                50.5210                74.9741
 Red. masses --    14.2361                18.1544                11.4777
 Frc consts  --     0.0000                 0.0000                 0.0000
 IR Inten    --    11.0936                13.9866                23.5721
 Raman Activ --     0.0000                 0.0000                 0.0000
 Depolar     --     0.0000                 0.0000                 0.0000
 Atom AN      X      Y      Z        X      Y      Z        X      Y      Z
   1   7     0.24  -0.14   0.04     0.07  -0.04  -0.04    -0.19   0.19  -0.51
   2   6     0.25  -0.18   0.08     0.04  -0.05  -0.02    -0.11  -0.11  -0.17
   3   6     0.16  -0.13   0.14    -0.02  -0.02   0.02     0.11   0.06   0.24
   4   6     0.12  -0.05   0.06    -0.04   0.02  -0.00     0.09   0.05   0.20
   5   6     0.15  -0.03  -0.00    -0.05   0.30  -0.06     0.13   0.09   0.11
   6   6     0.11  -0.00  -0.07    -0.05   0.26  -0.07     0.09   0.06   0.02
   7   6     0.04  -0.01   0.05    -0.03  -0.28   0.04    -0.00  -0.03   0.21
   8   6     0.00   0.01  -0.01    -0.04  -0.32   0.03    -0.06  -0.08   0.12
   9   6     0.04  -0.01  -0.07    -0.05  -0.07  -0.02    -0.01  -0.03   0.03
  10   7     0.01  -0.08  -0.13    -0.05  -0.12  -0.01    -0.07  -0.07  -0.07
  11   7    -0.01  -0.11  -0.11    -0.04  -0.07   0.06    -0.06  -0.08  -0.13
  12   6    -0.06  -0.03  -0.03    -0.01  -0.02   0.09    -0.01  -0.02  -0.06
  13   6    -0.09   0.00  -0.01     0.05  -0.09   0.10     0.03  -0.06  -0.02
  14   6    -0.20   0.12   0.11     0.15  -0.15   0.04     0.07  -0.01   0.03
  15   6    -0.29   0.22   0.21     0.20  -0.13  -0.00     0.06   0.10   0.05
  16   6    -0.25   0.17   0.17     0.11  -0.03   0.03     0.02   0.14   0.01
  17   6    -0.13   0.04   0.05     0.01   0.02   0.08    -0.02   0.09  -0.05
  18  17    -0.11   0.16  -0.32    -0.17   0.52  -0.15    -0.00  -0.21   0.07
  19   1     0.05  -0.02  -0.01     0.02   0.01  -0.02    -0.03   0.05  -0.12
  20   1     0.09  -0.05  -0.00     0.04  -0.02  -0.02    -0.11   0.03  -0.20
  21   1     0.05  -0.04   0.03     0.01  -0.02   0.00    -0.02   0.13  -0.15
  22   1     0.08  -0.07   0.04     0.01  -0.03  -0.00    -0.04  -0.05  -0.06
  23   1     0.08  -0.05   0.00     0.02  -0.01  -0.01    -0.06  -0.11  -0.05
  24   1     0.03  -0.03   0.06    -0.01  -0.01   0.01     0.04   0.12   0.09
  25   1     0.05  -0.05   0.05    -0.01  -0.01   0.01     0.07  -0.05   0.14
  26   1     0.06  -0.01   0.00    -0.02   0.16  -0.03     0.06   0.04   0.03
  27   1     0.04   0.00  -0.03    -0.02   0.13  -0.03     0.04   0.03  -0.02
  28   1     0.00  -0.00   0.03    -0.00  -0.14   0.02    -0.01  -0.01   0.08
  29   1    -0.02   0.01  -0.00    -0.01  -0.17   0.02    -0.04  -0.04   0.04
  30   1    -0.01  -0.02  -0.02     0.01  -0.03   0.04     0.01  -0.04  -0.01
  31   1    -0.06   0.04   0.03     0.06  -0.06   0.01     0.03  -0.01   0.02
  32   1    -0.11   0.09   0.09     0.08  -0.06  -0.02     0.02   0.04   0.02
  33   1    -0.09   0.07   0.07     0.04  -0.00   0.00     0.00   0.06   0.01
  34   1    -0.03   0.00   0.01    -0.01   0.02   0.03    -0.01   0.04  -0.02
                      7                      8                      9
                        a                      a                      a 
 Frequencies --    88.0108               120.2779               137.3416
 Red. masses --    12.7595                24.8131                13.2588
 Frc consts  --     0.0000                 0.0000                 0.0000
 IR Inten    --    14.3733                10.7972                40.0144
 Raman Activ --     0.0000                 0.0000                 0.0000
 Depolar     --     0.0000                 0.0000                 0.0000
 Atom AN      X      Y      Z        X      Y      Z        X      Y      Z
   1   7     0.44  -0.01  -0.12    -0.20  -0.07   0.09     0.42   0.03  -0.05
   2   6     0.22  -0.02  -0.05     0.04  -0.04  -0.00    -0.10   0.15  -0.05
   3   6    -0.03   0.07   0.03     0.07  -0.09  -0.08    -0.15   0.14  -0.09
   4   6    -0.07   0.23  -0.02     0.09  -0.05  -0.04    -0.08   0.07   0.03
   5   6    -0.05   0.14  -0.02     0.07   0.00  -0.01    -0.12   0.03   0.11
   6   6    -0.06   0.07  -0.03     0.08   0.10   0.01    -0.06  -0.08   0.20
   7   6    -0.11   0.32  -0.03     0.13   0.01  -0.05     0.02  -0.08   0.05
   8   6    -0.12   0.25  -0.05     0.14   0.12  -0.03     0.06  -0.16   0.15
   9   6    -0.09   0.08  -0.03     0.11   0.16   0.01     0.02  -0.10   0.20
  10   7    -0.11  -0.08  -0.04     0.13   0.14   0.03     0.01   0.07   0.20
  11   7    -0.15  -0.10   0.05     0.04   0.03   0.06     0.06   0.03  -0.05
  12   6    -0.12  -0.02   0.11    -0.03   0.04   0.06     0.10  -0.11  -0.17
  13   6    -0.05  -0.11   0.10     0.01  -0.02   0.07     0.10  -0.11  -0.16
  14   6     0.09  -0.20   0.02     0.16  -0.06   0.05     0.03   0.04  -0.02
  15   6     0.14  -0.18  -0.02     0.19  -0.00   0.02    -0.05   0.19   0.08
  16   6     0.01  -0.03   0.04     0.09   0.12   0.05     0.02   0.11  -0.02
  17   6    -0.12   0.04   0.11    -0.03   0.13   0.06     0.10  -0.05  -0.17
  18  17     0.03  -0.26  -0.02    -0.66  -0.31  -0.19    -0.28  -0.14  -0.14
  19   1     0.13   0.02  -0.02    -0.08  -0.05  -0.00     0.15   0.05   0.03
  20   1     0.14  -0.01  -0.05    -0.06  -0.01   0.04     0.15   0.00  -0.01
  21   1     0.12  -0.02  -0.04    -0.07  -0.00   0.05     0.13  -0.06  -0.06
  22   1     0.06  -0.06  -0.01     0.04   0.02   0.03    -0.08   0.01  -0.08
  23   1     0.08   0.03  -0.02     0.03  -0.03  -0.03    -0.06   0.11   0.06
  24   1    -0.03   0.00   0.03     0.03  -0.04  -0.03    -0.03   0.01  -0.05
  25   1    -0.02   0.01   0.02     0.01  -0.01  -0.03    -0.07   0.05  -0.04
  26   1    -0.01   0.03  -0.00     0.01  -0.01  -0.00    -0.06   0.03   0.03
  27   1    -0.01  -0.01  -0.01     0.02   0.04   0.01    -0.03  -0.03   0.08
  28   1    -0.04   0.12  -0.01     0.04  -0.01  -0.02     0.02  -0.03  -0.00
  29   1    -0.04   0.09  -0.02     0.05   0.05  -0.01     0.04  -0.06   0.05
  30   1    -0.02  -0.03   0.04    -0.02  -0.03   0.04     0.04  -0.06  -0.06
  31   1     0.05  -0.08  -0.00     0.07  -0.04   0.02     0.01   0.01   0.01
  32   1     0.08  -0.08  -0.03     0.08  -0.01  -0.01    -0.04   0.10   0.06
  33   1     0.01   0.00   0.01     0.03   0.05   0.01    -0.00   0.05   0.00
  34   1    -0.06   0.04   0.04    -0.03   0.06   0.01     0.04  -0.02  -0.07
                     10                     11                     12
                        a                      a                      a 
 Frequencies --   163.7740               189.2753               230.1050
 Red. masses --    11.8967                10.0829                10.5443
 Frc consts  --     0.0000                 0.0000                 0.0000
 IR Inten    --    10.3902                 1.5127                 5.2754
 Raman Activ --     0.0000                 0.0000                 0.0000
 Depolar     --     0.0000                 0.0000                 0.0000
 Atom AN      X      Y      Z        X      Y      Z        X      Y      Z
   1   7    -0.25  -0.18   0.10    -0.16   0.11  -0.07     0.01  -0.24   0.09
   2   6     0.05  -0.13  -0.02     0.39  -0.11   0.02    -0.36  -0.05   0.02
   3   6    -0.10  -0.12  -0.09    -0.02   0.03   0.11    -0.04  -0.06   0.08
   4   6    -0.06   0.12  -0.02    -0.13   0.17  -0.07     0.00   0.06   0.11
   5   6    -0.10   0.29   0.03    -0.12   0.07  -0.07     0.07   0.18  -0.04
   6   6    -0.04   0.26   0.11    -0.11  -0.13  -0.04     0.02   0.12  -0.15
   7   6     0.04   0.17  -0.02    -0.14   0.11  -0.06    -0.06   0.22   0.08
   8   6     0.09   0.20   0.07    -0.11  -0.10  -0.04    -0.12   0.14  -0.03
   9   6     0.06   0.13   0.14    -0.09  -0.22  -0.03    -0.01  -0.07  -0.13
  10   7     0.03  -0.02   0.08    -0.01  -0.06   0.11    -0.01  -0.24  -0.14
  11   7    -0.04  -0.22  -0.17     0.15   0.18   0.16     0.14   0.01   0.01
  12   6     0.02  -0.22  -0.17     0.20   0.02   0.02     0.25   0.06   0.07
  13   6     0.07  -0.26  -0.12     0.18   0.04  -0.09     0.21   0.09  -0.06
  14   6     0.04  -0.11   0.02     0.03   0.09  -0.05     0.03   0.09  -0.08
  15   6    -0.05   0.10   0.12    -0.08   0.09   0.06    -0.07   0.01   0.03
  16   6    -0.03   0.07   0.00     0.05  -0.06   0.05     0.04  -0.12   0.09
  17   6     0.03  -0.11  -0.17     0.20  -0.09   0.03     0.21  -0.08   0.11
  18  17     0.20   0.05   0.06    -0.15  -0.08  -0.03    -0.14  -0.06  -0.07
  19   1    -0.10  -0.07  -0.01    -0.11   0.03  -0.11     0.06  -0.09   0.11
  20   1    -0.06  -0.04   0.05    -0.02   0.01  -0.04    -0.04  -0.04   0.05
  21   1    -0.10  -0.04   0.07    -0.10   0.09   0.09     0.06  -0.10  -0.07
  22   1     0.06  -0.03   0.05     0.22  -0.08   0.15    -0.19   0.02  -0.11
  23   1     0.05  -0.04  -0.06     0.21  -0.06  -0.15    -0.19  -0.00   0.13
  24   1    -0.03  -0.08  -0.04    -0.05  -0.01   0.09     0.01   0.02   0.01
  25   1    -0.08  -0.03  -0.03     0.01  -0.01   0.05    -0.02  -0.04   0.05
  26   1    -0.05   0.10   0.00    -0.03   0.03  -0.02     0.06   0.07  -0.01
  27   1    -0.02   0.08   0.05    -0.03  -0.06  -0.01     0.02   0.05  -0.06
  28   1     0.02   0.04  -0.02    -0.04   0.05  -0.02    -0.03   0.09   0.04
  29   1     0.05   0.06   0.02    -0.04  -0.05  -0.01    -0.08   0.05  -0.01
  30   1     0.03  -0.09  -0.05     0.07   0.01  -0.05     0.08   0.04  -0.04
  31   1     0.02  -0.04   0.02    -0.01   0.04  -0.03    -0.01   0.04  -0.05
  32   1    -0.03   0.08   0.08    -0.07   0.05   0.04    -0.07   0.01   0.01
  33   1    -0.02   0.06   0.01     0.00  -0.04   0.03    -0.00  -0.06   0.04
  34   1     0.01  -0.04  -0.08     0.08  -0.05   0.01     0.08  -0.05   0.06
                     13                     14                     15
                        a                      a                      a 
 Frequencies --   257.0266               313.9878               317.2655
 Red. masses --    10.9990                 1.9117                10.7594
 Frc consts  --     0.0000                 0.0000                 0.0000
 IR Inten    --     3.5393                 0.2228                28.1641
 Raman Activ --     0.0000                 0.0000                 0.0000
 Depolar     --     0.0000                 0.0000                 0.0000
 Atom AN      X      Y      Z        X      Y      Z        X      Y      Z
   1   7    -0.06  -0.09   0.02    -0.02   0.00  -0.04     0.09   0.31  -0.07
   2   6     0.10   0.00  -0.11    -0.12   0.03  -0.05     0.01  -0.01   0.23
   3   6    -0.10   0.02  -0.17    -0.04   0.02  -0.04    -0.02  -0.09   0.12
   4   6     0.01   0.14   0.04     0.04  -0.03   0.08    -0.14  -0.32  -0.11
   5   6    -0.02   0.07   0.12     0.08  -0.03   0.03    -0.20  -0.11  -0.06
   6   6     0.05  -0.12   0.21     0.03   0.03  -0.06    -0.11   0.20   0.09
   7   6     0.08   0.07   0.06     0.01  -0.01   0.08    -0.02  -0.19  -0.13
   8   6     0.11  -0.07   0.16    -0.04   0.04  -0.01     0.07   0.23   0.00
   9   6     0.09  -0.15   0.21    -0.01   0.06  -0.07     0.04   0.22   0.09
  10   7    -0.12  -0.33  -0.13     0.01   0.02  -0.05    -0.06  -0.15  -0.11
  11   7     0.01  -0.21  -0.28    -0.01   0.03   0.03    -0.05  -0.19  -0.22
  12   6     0.09   0.12   0.04     0.00   0.01   0.02     0.17   0.05   0.04
  13   6    -0.04   0.28   0.05     0.03  -0.03  -0.01     0.15   0.07  -0.01
  14   6    -0.08   0.18  -0.07     0.02  -0.02  -0.00     0.03   0.05  -0.05
  15   6     0.05  -0.07  -0.23    -0.02  -0.00   0.04    -0.04  -0.02   0.02
  16   6    -0.03   0.02  -0.01     0.01  -0.04   0.01     0.01  -0.08   0.07
  17   6    -0.03   0.21   0.16     0.02  -0.04   0.00     0.12  -0.02   0.10
  18  17    -0.04  -0.01  -0.01     0.00  -0.02   0.04    -0.05  -0.03  -0.01
  19   1    -0.06  -0.02  -0.05    -0.17   0.37  -0.32     0.03   0.16  -0.03
  20   1     0.04  -0.02   0.04     0.56  -0.13  -0.01     0.04   0.02  -0.12
  21   1    -0.07  -0.05   0.06    -0.34  -0.27   0.33     0.02   0.13  -0.00
  22   1     0.07  -0.01   0.02    -0.04  -0.01  -0.02    -0.00  -0.03   0.06
  23   1     0.07   0.02  -0.08    -0.03   0.02  -0.01     0.00  -0.02   0.06
  24   1    -0.01  -0.06  -0.09     0.02   0.01  -0.04    -0.04  -0.03   0.08
  25   1    -0.11   0.02  -0.07    -0.03   0.01  -0.02     0.07   0.00  -0.00
  26   1    -0.03   0.04   0.03     0.04  -0.02   0.01    -0.10  -0.03  -0.02
  27   1     0.01  -0.05   0.08     0.02   0.01  -0.03    -0.06   0.10   0.06
  28   1     0.03   0.03   0.00    -0.01  -0.01   0.04     0.02  -0.08  -0.08
  29   1     0.06  -0.03   0.05    -0.03   0.01  -0.00     0.06   0.12  -0.01
  30   1    -0.01   0.11   0.02     0.01  -0.01  -0.01     0.05   0.04  -0.01
  31   1    -0.04   0.07  -0.03     0.00  -0.01  -0.00    -0.01   0.03  -0.04
  32   1     0.04  -0.08  -0.12    -0.02   0.01   0.02    -0.04  -0.01   0.00
  33   1    -0.02  -0.02   0.01     0.01  -0.01  -0.00    -0.01  -0.04   0.03
  34   1    -0.02   0.08   0.09     0.01  -0.02   0.00     0.05  -0.02   0.06
                     16                     17                     18
                        a                      a                      a 
 Frequencies --   349.7115               356.9314               365.0383
 Red. masses --     9.8169                 8.9704                 8.9147
 Frc consts  --     0.0000                 0.0000                 0.0000
 IR Inten    --    13.2728                 1.8421                 2.4963
 Raman Activ --     0.0000                 0.0000                 0.0000
 Depolar     --     0.0000                 0.0000                 0.0000
 Atom AN      X      Y      Z        X      Y      Z        X      Y      Z
   1   7    -0.01   0.02  -0.01    -0.00   0.02  -0.01    -0.01  -0.04   0.00
   2   6     0.16   0.09  -0.13     0.04   0.02  -0.02    -0.03  -0.00  -0.02
   3   6    -0.01   0.01  -0.29    -0.04  -0.00  -0.08     0.07   0.02   0.05
   4   6     0.17  -0.03   0.11     0.03  -0.01   0.04     0.02   0.00  -0.03
   5   6     0.14  -0.03   0.16     0.04  -0.14   0.06    -0.03   0.41  -0.07
   6   6     0.07  -0.01   0.04     0.00   0.10  -0.01     0.04  -0.42   0.06
   7   6     0.02  -0.19   0.14    -0.01   0.06   0.04     0.04  -0.37   0.01
   8   6    -0.11   0.11  -0.00    -0.02  -0.09   0.03    -0.02   0.37  -0.08
   9   6    -0.13   0.17   0.01    -0.02   0.04  -0.00    -0.00  -0.07   0.01
  10   7    -0.28  -0.03  -0.15    -0.05  -0.05  -0.05    -0.03  -0.01   0.02
  11   7    -0.25   0.09   0.05    -0.03  -0.01   0.01     0.01   0.03   0.04
  12   6    -0.03   0.18   0.15     0.01   0.06   0.06    -0.02   0.00   0.01
  13   6     0.20  -0.11  -0.09    -0.17   0.27   0.22    -0.09   0.09   0.07
  14   6     0.04  -0.01  -0.01     0.21  -0.26  -0.27     0.04  -0.07  -0.07
  15   6    -0.13   0.08   0.18    -0.05   0.03   0.01     0.00   0.00  -0.02
  16   6     0.10  -0.20  -0.06    -0.19   0.22   0.22    -0.06   0.08   0.06
  17   6     0.07  -0.07   0.05     0.25  -0.25  -0.21     0.05  -0.06  -0.07
  18  17    -0.02  -0.01  -0.02    -0.00   0.01   0.01     0.00   0.00   0.01
  19   1     0.00  -0.09   0.03     0.00  -0.01   0.01    -0.01  -0.00  -0.01
  20   1    -0.10   0.05   0.03    -0.02   0.01   0.00     0.02  -0.01   0.01
  21   1     0.04   0.05  -0.04     0.01   0.02  -0.01    -0.01  -0.03   0.01
  22   1     0.08   0.02   0.01     0.03  -0.00   0.01    -0.02   0.01  -0.02
  23   1     0.09   0.05  -0.08     0.03   0.02  -0.03    -0.02  -0.01   0.01
  24   1     0.05  -0.10  -0.18     0.01  -0.04  -0.06     0.01   0.05   0.04
  25   1    -0.12   0.06  -0.15    -0.05   0.02  -0.05     0.06  -0.02   0.04
  26   1     0.04  -0.01   0.05     0.02  -0.08   0.02    -0.03   0.26  -0.04
  27   1     0.05  -0.02  -0.03     0.00   0.06  -0.02     0.02  -0.24   0.04
  28   1    -0.01  -0.11   0.09    -0.01   0.04   0.02     0.02  -0.22   0.02
  29   1    -0.03   0.05  -0.00    -0.01  -0.06   0.01    -0.01   0.25  -0.05
  30   1     0.09  -0.07  -0.07    -0.10   0.15   0.13    -0.05   0.05   0.05
  31   1     0.01  -0.00  -0.03     0.13  -0.16  -0.17     0.03  -0.05  -0.04
  32   1    -0.09   0.07   0.09    -0.02   0.01   0.01     0.01  -0.00  -0.01
  33   1     0.06  -0.11  -0.06    -0.12   0.12   0.14    -0.04   0.05   0.04
  34   1     0.04  -0.04   0.03     0.15  -0.17  -0.15     0.03  -0.04  -0.05
                     19                     20                     21
                        a                      a                      a 
 Frequencies --   398.4143               415.8965               452.5031
 Red. masses --     8.1441                10.8647                10.5220
 Frc consts  --     0.0000                 0.0000                 0.0000
 IR Inten    --     2.7476                 9.2513                 2.3484
 Raman Activ --     0.0000                 0.0000                 0.0000
 Depolar     --     0.0000                 0.0000                 0.0000
 Atom AN      X      Y      Z        X      Y      Z        X      Y      Z
   1   7    -0.04  -0.25   0.07    -0.01  -0.13   0.01    -0.00  -0.04   0.01
   2   6    -0.01   0.05  -0.22     0.04   0.01  -0.11     0.07   0.09  -0.15
   3   6     0.28   0.23   0.16    -0.20   0.19   0.10     0.20   0.05  -0.11
   4   6     0.02   0.08  -0.22    -0.17   0.25   0.09     0.17  -0.20  -0.02
   5   6    -0.06  -0.09  -0.04    -0.05  -0.11  -0.02     0.06  -0.03   0.10
   6   6     0.02   0.04   0.16    -0.07  -0.12  -0.10    -0.03   0.16   0.02
   7   6    -0.02  -0.00  -0.21    -0.03  -0.16   0.15    -0.10  -0.04  -0.03
   8   6     0.10  -0.09   0.01    -0.03  -0.02   0.07    -0.17   0.08  -0.11
   9   6    -0.03   0.11   0.17     0.06   0.35  -0.17    -0.22  -0.10   0.06
  10   7    -0.19  -0.04  -0.01     0.19   0.26  -0.16    -0.19   0.07   0.24
  11   7    -0.19  -0.02  -0.02     0.04  -0.04  -0.30    -0.04   0.11  -0.12
  12   6    -0.05   0.13   0.12     0.15  -0.01  -0.13     0.29  -0.21  -0.30
  13   6     0.05   0.01  -0.02     0.12   0.03   0.09     0.10   0.03   0.06
  14   6     0.04  -0.04  -0.07     0.05   0.01   0.10    -0.05   0.10   0.14
  15   6    -0.08   0.07   0.06     0.03  -0.19   0.10     0.11  -0.25  -0.06
  16   6     0.03  -0.06  -0.03    -0.08  -0.08   0.12    -0.14   0.05   0.16
  17   6     0.06  -0.02  -0.00    -0.00  -0.08   0.08     0.02  -0.05   0.03
  18  17    -0.00   0.00  -0.00    -0.01  -0.00  -0.01    -0.01  -0.00  -0.00
  19   1    -0.03  -0.11  -0.00    -0.00  -0.10   0.02    -0.01  -0.05  -0.01
  20   1     0.05  -0.02   0.14    -0.04   0.00   0.06     0.00   0.02   0.06
  21   1    -0.05  -0.17   0.03     0.01  -0.05  -0.02    -0.01  -0.04   0.01
  22   1    -0.02   0.05  -0.09     0.05  -0.05   0.02     0.02   0.05  -0.04
  23   1    -0.03  -0.00  -0.03     0.06   0.03  -0.08     0.02   0.02  -0.04
  24   1     0.03   0.29   0.19    -0.07   0.08   0.05     0.07   0.06  -0.04
  25   1     0.28  -0.07   0.19    -0.05   0.01   0.08     0.09   0.01  -0.02
  26   1    -0.08  -0.07  -0.01     0.04  -0.11   0.01    -0.01   0.02   0.02
  27   1    -0.00   0.01   0.06    -0.02  -0.13   0.01     0.02   0.10  -0.06
  28   1     0.00  -0.01  -0.07     0.01  -0.16   0.04    -0.06   0.04   0.04
  29   1     0.11  -0.07   0.01    -0.06  -0.08   0.03    -0.03   0.09  -0.04
  30   1     0.03  -0.01  -0.03     0.01   0.01   0.06    -0.03   0.06   0.08
  31   1     0.03  -0.03  -0.05    -0.02   0.04   0.01    -0.08   0.11   0.08
  32   1    -0.04   0.04   0.04     0.00  -0.07   0.02     0.04  -0.09  -0.04
  33   1     0.02  -0.05  -0.03    -0.03   0.01   0.05    -0.10   0.10   0.11
  34   1     0.04  -0.03  -0.01     0.01  -0.03   0.08    -0.03   0.03   0.10
                     22                     23                     24
                        a                      a                      a 
 Frequencies --   482.8215               532.6869               580.3076
 Red. masses --    11.1953                 9.3856                11.2712
 Frc consts  --     0.0000                 0.0000                 0.0000
 IR Inten    --     1.7906                 0.2927                 3.1832
 Raman Activ --     0.0000                 0.0000                 0.0000
 Depolar     --     0.0000                 0.0000                 0.0000
 Atom AN      X      Y      Z        X      Y      Z        X      Y      Z
   1   7     0.00   0.08  -0.00    -0.01   0.06   0.00    -0.00   0.01  -0.00
   2   6    -0.08  -0.09   0.18    -0.07  -0.10   0.16    -0.01  -0.02   0.02
   3   6     0.08  -0.20  -0.01     0.15  -0.19  -0.03    -0.02  -0.02  -0.00
   4   6     0.05   0.08  -0.10     0.10   0.34  -0.11    -0.05   0.10  -0.08
   5   6     0.02   0.17  -0.05     0.06   0.07   0.04     0.06  -0.06  -0.14
   6   6     0.10  -0.15   0.10     0.02  -0.12   0.01     0.19   0.06   0.08
   7   6     0.03   0.19  -0.13     0.02   0.03  -0.10    -0.12  -0.06  -0.04
   8   6     0.10  -0.19   0.01    -0.02  -0.14  -0.15    -0.01   0.06   0.18
   9   6     0.01  -0.12   0.10    -0.15   0.35  -0.04     0.05   0.11   0.06
  10   7    -0.16   0.22  -0.13    -0.09   0.02   0.17    -0.13  -0.20  -0.17
  11   7    -0.08   0.27  -0.29    -0.22  -0.17   0.09     0.06   0.19   0.18
  12   6    -0.02   0.21  -0.14     0.13  -0.15   0.06    -0.11  -0.09  -0.12
  13   6     0.13   0.04   0.13     0.03  -0.02  -0.04    -0.19   0.01  -0.30
  14   6     0.14  -0.06   0.10    -0.12   0.04  -0.02     0.17   0.30  -0.01
  15   6    -0.03  -0.20   0.26     0.02   0.04  -0.18     0.20  -0.04  -0.00
  16   6    -0.12  -0.14   0.01     0.02   0.08   0.06     0.14  -0.01   0.31
  17   6    -0.14  -0.10  -0.02     0.20   0.04   0.03    -0.20  -0.32  -0.00
  18  17    -0.01  -0.00   0.00    -0.01  -0.00  -0.00     0.02   0.01   0.00
  19   1     0.01   0.09  -0.01     0.01   0.08  -0.00     0.00   0.01   0.00
  20   1     0.02  -0.02  -0.08     0.01  -0.03  -0.08    -0.00  -0.00  -0.01
  21   1     0.00   0.06   0.01    -0.00   0.05   0.01     0.00   0.01  -0.00
  22   1    -0.07   0.02  -0.01    -0.08   0.05  -0.04    -0.01   0.00  -0.00
  23   1    -0.08  -0.06   0.11    -0.10  -0.07   0.14    -0.01  -0.01   0.01
  24   1     0.01  -0.12  -0.02     0.03  -0.13  -0.03    -0.01  -0.03  -0.00
  25   1    -0.02  -0.02  -0.04    -0.04  -0.02  -0.04    -0.03   0.00  -0.01
  26   1    -0.03   0.08  -0.02     0.01  -0.15   0.03    -0.01  -0.09  -0.03
  27   1     0.03  -0.05   0.03     0.04  -0.23  -0.01     0.04  -0.04   0.06
  28   1     0.01   0.09  -0.05     0.00  -0.14   0.02    -0.01  -0.09  -0.03
  29   1     0.07  -0.07   0.01     0.03  -0.22  -0.01     0.04  -0.05   0.06
  30   1     0.01  -0.05   0.06     0.01   0.07  -0.00    -0.10  -0.01  -0.03
  31   1     0.03  -0.01  -0.04    -0.06   0.05   0.04     0.04   0.10   0.07
  32   1    -0.01  -0.05   0.08     0.00   0.02  -0.05    -0.05  -0.04  -0.03
  33   1     0.00  -0.00  -0.03    -0.05   0.02   0.07     0.03   0.09   0.10
  34   1     0.00  -0.07   0.05     0.02   0.05   0.03    -0.11  -0.03  -0.02
                     25                     26                     27
                        a                      a                      a 
 Frequencies --   589.7653               613.8380               639.5723
 Red. masses --    11.4336                11.6196                10.5220
 Frc consts  --     0.0000                 0.0000                 0.0000
 IR Inten    --     0.1012                 0.8288                 3.9018
 Raman Activ --     0.0000                 0.0000                 0.0000
 Depolar     --     0.0000                 0.0000                 0.0000
 Atom AN      X      Y      Z        X      Y      Z        X      Y      Z
   1   7     0.00   0.00   0.00    -0.00  -0.01   0.01     0.01  -0.01  -0.00
   2   6     0.01   0.01  -0.01    -0.02  -0.03   0.03     0.00   0.03  -0.03
   3   6     0.07  -0.01   0.00    -0.05   0.03   0.08    -0.05   0.03   0.00
   4   6     0.08  -0.04   0.07    -0.00   0.13   0.06    -0.01  -0.28   0.07
   5   6    -0.09   0.07   0.26    -0.13  -0.05   0.29    -0.03   0.14  -0.03
   6   6    -0.29  -0.06  -0.06    -0.29   0.06  -0.02    -0.01  -0.19  -0.01
   7   6     0.18   0.06   0.03     0.44  -0.02   0.03     0.02   0.16   0.02
   8   6     0.02  -0.08  -0.28     0.24   0.05  -0.30     0.05  -0.18   0.06
   9   6    -0.10  -0.05  -0.07     0.02  -0.02  -0.06     0.04   0.07  -0.03
  10   7     0.08   0.13   0.17    -0.17  -0.25  -0.20     0.05   0.21  -0.12
  11   7    -0.04  -0.20  -0.22     0.07   0.24   0.18    -0.22  -0.11   0.01
  12   6    -0.09  -0.02   0.00    -0.03   0.07  -0.05    -0.13   0.14   0.24
  13   6    -0.19   0.17  -0.16     0.08  -0.10  -0.02     0.11  -0.16  -0.18
  14   6     0.25   0.18  -0.16    -0.06   0.03   0.12    -0.16   0.20   0.13
  15   6     0.03   0.13   0.10     0.06  -0.15  -0.02     0.14  -0.12  -0.21
  16   6     0.24  -0.15   0.20    -0.15   0.10  -0.02    -0.07   0.17   0.25
  17   6    -0.19  -0.14   0.16     0.00  -0.06  -0.15     0.21  -0.18  -0.08
  18  17     0.01   0.01   0.00    -0.00  -0.00  -0.00    -0.00  -0.00  -0.00
  19   1    -0.00   0.00  -0.00     0.00   0.01   0.00     0.00  -0.01   0.00
  20   1     0.00   0.00   0.00    -0.00  -0.01  -0.01     0.00   0.01   0.02
  21   1    -0.00  -0.00   0.00     0.00   0.00  -0.00     0.00  -0.01  -0.01
  22   1    -0.00   0.02  -0.01     0.00  -0.02   0.02     0.03  -0.02   0.03
  23   1    -0.01  -0.01   0.01     0.00  -0.01   0.00     0.04   0.03  -0.05
  24   1     0.02   0.02   0.01    -0.03   0.04   0.06    -0.01   0.04   0.00
  25   1     0.04  -0.01   0.01     0.02  -0.02   0.05     0.03   0.00   0.00
  26   1    -0.00   0.05   0.07    -0.00  -0.06   0.09    -0.01   0.18  -0.03
  27   1    -0.06  -0.00  -0.06    -0.07  -0.01  -0.01    -0.02   0.06  -0.01
  28   1     0.02   0.05   0.05     0.12  -0.06   0.02    -0.00   0.17  -0.02
  29   1    -0.03   0.00  -0.08     0.05  -0.04  -0.07    -0.01   0.05   0.00
  30   1    -0.05   0.01  -0.05     0.01  -0.04   0.01     0.08  -0.06  -0.10
  31   1     0.11  -0.00  -0.05    -0.05   0.04   0.04    -0.03   0.04   0.04
  32   1    -0.08  -0.01  -0.02     0.05  -0.03   0.00     0.06  -0.09  -0.11
  33   1     0.11  -0.05   0.01    -0.05   0.08   0.01    -0.03   0.01   0.08
  34   1    -0.04  -0.05  -0.01    -0.01  -0.00  -0.02     0.09  -0.09  -0.08
                     28                     29                     30
                        a                      a                      a 
 Frequencies --   672.4074               694.9042               738.5692
 Red. masses --     8.3010                10.1945                 7.6982
 Frc consts  --     0.0000                 0.0000                 0.0000
 IR Inten    --    14.0064                 7.0299                30.5473
 Raman Activ --     0.0000                 0.0000                 0.0000
 Depolar     --     0.0000                 0.0000                 0.0000
 Atom AN      X      Y      Z        X      Y      Z        X      Y      Z
   1   7     0.01  -0.00  -0.00    -0.01  -0.04  -0.01     0.00  -0.02  -0.00
   2   6    -0.00   0.03  -0.03    -0.08  -0.06   0.09    -0.10   0.00   0.03
   3   6    -0.07   0.03   0.01    -0.28   0.11   0.12    -0.26   0.10   0.07
   4   6    -0.01  -0.32   0.07    -0.07   0.21   0.00    -0.01  -0.26   0.06
   5   6    -0.05   0.16  -0.00     0.16  -0.17  -0.17     0.13   0.12  -0.14
   6   6    -0.02  -0.19   0.02     0.22   0.09  -0.09     0.20  -0.03  -0.02
   7   6     0.09   0.19   0.01     0.22  -0.14  -0.02     0.12   0.13  -0.04
   8   6     0.10  -0.18   0.04     0.15   0.06  -0.14     0.07  -0.04  -0.14
   9   6     0.04   0.25  -0.06     0.02  -0.32   0.06    -0.07   0.20  -0.02
  10   7    -0.07  -0.02  -0.21    -0.17   0.21   0.12    -0.21  -0.14   0.25
  11   7    -0.12   0.08   0.19    -0.35  -0.05  -0.02     0.00   0.05   0.01
  12   6     0.16  -0.21  -0.15     0.03  -0.04   0.03     0.09  -0.10  -0.13
  13   6    -0.08   0.03   0.05     0.01   0.01  -0.02    -0.03   0.08   0.06
  14   6     0.06  -0.15  -0.13     0.01  -0.00  -0.06     0.00   0.06   0.03
  15   6    -0.04   0.08   0.00     0.01   0.03  -0.06    -0.05   0.04   0.10
  16   6     0.14  -0.12  -0.10     0.09  -0.05   0.06    -0.06   0.04   0.01
  17   6     0.01   0.04   0.06     0.09  -0.03   0.05    -0.09   0.08   0.05
  18  17     0.00   0.00  -0.00    -0.00   0.00  -0.00    -0.00  -0.00   0.00
  19   1     0.00  -0.01   0.00     0.02   0.02   0.02     0.04   0.03   0.04
  20   1     0.00   0.01   0.02    -0.00  -0.03  -0.04     0.01  -0.01  -0.01
  21   1     0.01  -0.01  -0.01     0.02  -0.00  -0.02     0.03  -0.04  -0.05
  22   1     0.03  -0.03   0.04     0.02  -0.10   0.09     0.08  -0.12   0.15
  23   1     0.04   0.03  -0.06     0.04   0.01  -0.05     0.10   0.05  -0.14
  24   1    -0.01   0.06   0.02    -0.08   0.01   0.04    -0.06   0.10   0.03
  25   1     0.05   0.00   0.01    -0.11   0.02   0.05    -0.01   0.01   0.03
  26   1    -0.01   0.13  -0.01     0.08   0.05  -0.06     0.08  -0.06  -0.03
  27   1    -0.02  -0.01   0.01     0.07   0.15  -0.07     0.08  -0.14  -0.02
  28   1     0.03   0.12  -0.02     0.07   0.06  -0.05     0.05  -0.06  -0.01
  29   1     0.02  -0.04   0.01     0.07   0.16  -0.06     0.05  -0.16  -0.02
  30   1    -0.15   0.17   0.16    -0.05   0.08   0.06     0.09  -0.10  -0.10
  31   1    -0.09   0.10   0.11    -0.05   0.07   0.05     0.12  -0.13  -0.13
  32   1    -0.14   0.18   0.15    -0.09   0.08   0.05     0.14  -0.18  -0.15
  33   1    -0.09   0.10   0.12    -0.05   0.03   0.10     0.12  -0.13  -0.15
  34   1    -0.14   0.19   0.18    -0.03   0.07   0.09     0.09  -0.13  -0.12
                     31                     32                     33
                        a                      a                      a 
 Frequencies --   767.0074               799.9348               820.1401
 Red. masses --     9.0520                 7.4384                 9.1103
 Frc consts  --     0.0000                 0.0000                 0.0000
 IR Inten    --     2.8746                22.1572                 1.3983
 Raman Activ --     0.0000                 0.0000                 0.0000
 Depolar     --     0.0000                 0.0000                 0.0000
 Atom AN      X      Y      Z        X      Y      Z        X      Y      Z
   1   7     0.00   0.00  -0.00    -0.01  -0.04  -0.01    -0.05  -0.05   0.01
   2   6    -0.03   0.02  -0.01     0.02  -0.04   0.05    -0.16  -0.04   0.11
   3   6    -0.06   0.01   0.01     0.01   0.06   0.04    -0.13   0.08  -0.00
   4   6     0.01  -0.13   0.03     0.01   0.18  -0.03     0.13   0.06  -0.08
   5   6     0.05   0.08  -0.08     0.04  -0.15   0.04     0.11   0.03   0.28
   6   6     0.05   0.04  -0.05     0.04  -0.18   0.05     0.16   0.03   0.21
   7   6    -0.03   0.07  -0.00    -0.03  -0.16  -0.03    -0.19  -0.10  -0.21
   8   6    -0.04   0.04  -0.05    -0.01  -0.18  -0.03    -0.13  -0.13  -0.24
   9   6    -0.02  -0.01  -0.00    -0.03   0.30  -0.04    -0.13   0.13   0.04
  10   7     0.09  -0.12   0.31     0.05  -0.14   0.06     0.12  -0.05  -0.06
  11   7     0.02  -0.24   0.03    -0.02  -0.16   0.23     0.30   0.08  -0.18
  12   6    -0.17   0.27   0.14     0.06  -0.04  -0.09    -0.09   0.09   0.10
  13   6     0.17   0.06  -0.09     0.05   0.12  -0.01    -0.03  -0.09  -0.01
  14   6     0.24   0.17  -0.03     0.17   0.17  -0.01    -0.10  -0.12   0.02
  15   6     0.06  -0.24   0.09    -0.02  -0.10   0.16     0.04   0.02  -0.10
  16   6    -0.19  -0.01  -0.23    -0.18   0.03  -0.16     0.08  -0.01   0.04
  17   6    -0.06  -0.06  -0.22    -0.08   0.05  -0.09     0.00  -0.04   0.01
  18  17    -0.00  -0.00  -0.00    -0.00   0.00  -0.00    -0.00   0.00   0.00
  19   1     0.01   0.00   0.02    -0.02  -0.01  -0.02     0.10   0.13   0.11
  20   1     0.01   0.00   0.01    -0.01  -0.02  -0.03     0.03  -0.08  -0.10
  21   1     0.01  -0.02  -0.02    -0.01   0.03   0.02     0.06  -0.06  -0.11
  22   1     0.03  -0.03   0.05    -0.04   0.01  -0.04     0.10  -0.10   0.22
  23   1     0.04   0.02  -0.06    -0.04  -0.03   0.07     0.10   0.01  -0.16
  24   1    -0.00   0.03  -0.00    -0.01  -0.06  -0.01    -0.04   0.08   0.02
  25   1     0.01   0.00   0.00    -0.08   0.04  -0.01    -0.00   0.00   0.02
  26   1     0.05  -0.12  -0.00    -0.04   0.30  -0.03    -0.05   0.04   0.08
  27   1     0.03  -0.16   0.00    -0.01   0.32  -0.05     0.08   0.02  -0.01
  28   1    -0.00  -0.10   0.02    -0.05   0.29  -0.04    -0.11   0.10   0.00
  29   1    -0.01  -0.14   0.01    -0.01   0.28  -0.06     0.03   0.12  -0.09
  30   1    -0.04   0.07   0.08     0.04  -0.02  -0.03    -0.04   0.02   0.03
  31   1    -0.07   0.21   0.03     0.05   0.04  -0.10    -0.05  -0.01   0.08
  32   1    -0.13   0.12   0.19     0.05  -0.09  -0.02    -0.05   0.11   0.07
  33   1    -0.12   0.20   0.02     0.02   0.02  -0.11    -0.03   0.04   0.07
  34   1    -0.11   0.09   0.09    -0.00  -0.01  -0.02    -0.01   0.00  -0.01
                     34                     35                     36
                        a                      a                      a 
 Frequencies --   846.9882               852.1291               859.5570
 Red. masses --     4.2107                 6.3282                 3.9412
 Frc consts  --     0.0000                 0.0000                 0.0000
 IR Inten    --    34.7647                53.0998                 8.5310
 Raman Activ --     0.0000                 0.0000                 0.0000
 Depolar     --     0.0000                 0.0000                 0.0000
 Atom AN      X      Y      Z        X      Y      Z        X      Y      Z
   1   7    -0.01   0.00   0.02     0.05  -0.09  -0.11    -0.01   0.04   0.05
   2   6    -0.02   0.00  -0.01     0.17   0.02   0.03    -0.05  -0.01  -0.03
   3   6     0.01  -0.01  -0.02    -0.04   0.19   0.19     0.01  -0.08  -0.07
   4   6     0.01  -0.00   0.00    -0.05  -0.11   0.06     0.01   0.04  -0.01
   5   6    -0.04   0.18   0.00     0.00   0.04  -0.13    -0.01   0.02   0.02
   6   6    -0.03   0.27  -0.04     0.04   0.04  -0.02    -0.02   0.03  -0.01
   7   6     0.01  -0.16   0.02     0.07  -0.07   0.01    -0.00  -0.02   0.02
   8   6     0.02  -0.22   0.05     0.03  -0.12  -0.09     0.00  -0.01   0.05
   9   6    -0.00  -0.08   0.03    -0.04   0.16   0.01     0.02  -0.05  -0.00
  10   7     0.07   0.06  -0.13    -0.12  -0.12   0.19     0.04   0.03  -0.07
  11   7    -0.11  -0.05   0.13     0.18   0.12  -0.20    -0.08  -0.02   0.08
  12   6     0.05  -0.05  -0.05    -0.07   0.08   0.07     0.02  -0.07  -0.01
  13   6    -0.02   0.06   0.02     0.01  -0.08  -0.02     0.12  -0.10  -0.15
  14   6     0.03   0.07   0.01    -0.06  -0.12  -0.00     0.15  -0.04  -0.10
  15   6    -0.03  -0.00   0.06     0.05   0.00  -0.11     0.01  -0.07   0.02
  16   6    -0.03  -0.01  -0.04     0.06   0.01   0.06    -0.13   0.10   0.05
  17   6     0.04  -0.01  -0.04    -0.07   0.02   0.06    -0.13   0.22   0.16
  18  17    -0.00   0.00  -0.00     0.00   0.00   0.00    -0.00   0.00  -0.00
  19   1     0.02   0.03   0.02    -0.15  -0.22  -0.19     0.04   0.07   0.05
  20   1     0.01  -0.01  -0.01    -0.08   0.06   0.08     0.02  -0.01  -0.02
  21   1     0.01  -0.01  -0.02    -0.09   0.09   0.15     0.03  -0.02  -0.03
  22   1     0.02  -0.00   0.03    -0.13  -0.01  -0.21     0.04   0.01   0.05
  23   1     0.02  -0.00  -0.03    -0.12  -0.01   0.22     0.03   0.01  -0.06
  24   1     0.00   0.02   0.00    -0.00  -0.17  -0.04    -0.00   0.06   0.02
  25   1     0.02  -0.01   0.00    -0.17   0.17  -0.07     0.06  -0.07   0.03
  26   1     0.03  -0.37   0.06     0.02  -0.07  -0.02     0.00  -0.05   0.01
  27   1     0.03  -0.49   0.09     0.02  -0.14   0.02    -0.01  -0.04   0.01
  28   1    -0.04   0.32  -0.04     0.00   0.20  -0.04    -0.00   0.03   0.00
  29   1    -0.02   0.43  -0.06     0.01   0.13  -0.05    -0.01   0.05   0.01
  30   1     0.05  -0.05  -0.05    -0.06   0.05   0.07    -0.22   0.25   0.26
  31   1     0.05  -0.04  -0.07    -0.08   0.04   0.11    -0.17   0.25   0.18
  32   1     0.05  -0.07  -0.05    -0.07   0.12   0.08    -0.04   0.02   0.04
  33   1    -0.00   0.01  -0.01     0.01  -0.01   0.02     0.15  -0.19  -0.20
  34   1    -0.05   0.07   0.07     0.08  -0.11  -0.12     0.28  -0.32  -0.32
                     37                     38                     39
                        a                      a                      a 
 Frequencies --   875.5671               887.2006               892.8245
 Red. masses --     8.3258                 4.7703                 4.1181
 Frc consts  --     0.0000                 0.0000                 0.0000
 IR Inten    --     9.6014                23.2109                 4.1776
 Raman Activ --     0.0000                 0.0000                 0.0000
 Depolar     --     0.0000                 0.0000                 0.0000
 Atom AN      X      Y      Z        X      Y      Z        X      Y      Z
   1   7    -0.04  -0.19  -0.18    -0.15  -0.07  -0.13     0.05   0.01   0.02
   2   6     0.04   0.04   0.19    -0.06   0.08   0.11     0.03  -0.02  -0.02
   3   6     0.03   0.31   0.22     0.28   0.11   0.13    -0.11  -0.00  -0.01
   4   6     0.07  -0.13  -0.02     0.00   0.03  -0.00     0.01  -0.03  -0.00
   5   6    -0.01   0.04   0.16    -0.08  -0.01  -0.15     0.01   0.16   0.08
   6   6     0.03   0.06   0.11    -0.15  -0.05  -0.11     0.07  -0.08   0.08
   7   6    -0.13   0.11  -0.18     0.06  -0.02   0.06    -0.06   0.13  -0.08
   8   6    -0.02   0.04  -0.12     0.05   0.01   0.14    -0.01  -0.09  -0.05
   9   6    -0.01  -0.16   0.04     0.05   0.04  -0.02    -0.02  -0.06   0.02
  10   7     0.16   0.12  -0.24    -0.09  -0.04   0.08     0.06   0.06  -0.12
  11   7    -0.11  -0.09   0.15    -0.02   0.03  -0.02    -0.07  -0.05   0.11
  12   6     0.04  -0.06  -0.03     0.01  -0.01  -0.02     0.06  -0.08  -0.06
  13   6     0.03  -0.01  -0.05    -0.04   0.05   0.06    -0.09   0.12   0.09
  14   6     0.07   0.05  -0.03    -0.02  -0.00   0.02     0.02   0.06   0.02
  15   6    -0.06   0.03   0.11     0.06  -0.07  -0.09     0.10  -0.15  -0.09
  16   6    -0.08   0.03  -0.01     0.04  -0.03  -0.02     0.02  -0.05  -0.08
  17   6     0.05   0.01  -0.03    -0.06   0.06   0.06    -0.07   0.13   0.10
  18  17     0.00   0.00   0.00    -0.00  -0.00  -0.00     0.00  -0.00  -0.00
  19   1    -0.03  -0.10  -0.06     0.15   0.11   0.18    -0.06  -0.06  -0.07
  20   1    -0.02  -0.03  -0.00     0.13  -0.02   0.03    -0.05   0.02   0.00
  21   1    -0.03  -0.07  -0.03     0.05  -0.33  -0.28    -0.03   0.10   0.09
  22   1    -0.03  -0.06   0.01     0.11   0.07   0.18    -0.04  -0.04  -0.06
  23   1    -0.03  -0.07   0.06     0.05  -0.19  -0.15    -0.02   0.06   0.06
  24   1     0.04  -0.19  -0.08     0.12  -0.21  -0.11    -0.04   0.05   0.03
  25   1    -0.17   0.28  -0.15    -0.09   0.20  -0.15     0.01  -0.03   0.03
  26   1    -0.07  -0.03   0.05    -0.01  -0.05  -0.04     0.02  -0.31   0.07
  27   1     0.02  -0.02   0.03    -0.07   0.03   0.01     0.01   0.25  -0.04
  28   1    -0.02  -0.26   0.00     0.03   0.05  -0.02     0.01  -0.31   0.04
  29   1     0.06  -0.09  -0.02    -0.01   0.04   0.03     0.01   0.22  -0.05
  30   1    -0.07   0.09   0.08     0.09  -0.11  -0.11     0.18  -0.20  -0.22
  31   1     0.00   0.03  -0.02    -0.00  -0.01   0.00     0.01   0.01  -0.02
  32   1     0.09  -0.13  -0.10    -0.11   0.13   0.12    -0.16   0.18   0.18
  33   1     0.06  -0.08  -0.09    -0.06   0.08   0.08    -0.11   0.14   0.11
  34   1    -0.03   0.05   0.05     0.09  -0.12  -0.11     0.17  -0.19  -0.18
                     40                     41                     42
                        a                      a                      a 
 Frequencies --   895.5884               908.6247               915.7835
 Red. masses --     3.8842                 4.5321                 4.1399
 Frc consts  --     0.0000                 0.0000                 0.0000
 IR Inten    --     0.9630                 5.8669                 4.0002
 Raman Activ --     0.0000                 0.0000                 0.0000
 Depolar     --     0.0000                 0.0000                 0.0000
 Atom AN      X      Y      Z        X      Y      Z        X      Y      Z
   1   7     0.01  -0.08   0.00    -0.01  -0.18  -0.00    -0.02  -0.15   0.00
   2   6     0.01  -0.02   0.05     0.01  -0.00   0.12     0.00   0.00   0.10
   3   6    -0.04   0.06  -0.04     0.01   0.14  -0.09     0.04   0.10  -0.10
   4   6     0.02  -0.03  -0.02     0.03  -0.02  -0.03     0.02   0.00  -0.01
   5   6     0.03  -0.21   0.10    -0.02   0.24   0.01    -0.01  -0.03  -0.03
   6   6     0.00   0.21   0.01    -0.02  -0.17   0.02    -0.05   0.01  -0.05
   7   6    -0.03  -0.06  -0.02     0.00  -0.27   0.04     0.01   0.06   0.03
   8   6    -0.01   0.12  -0.03    -0.02   0.25   0.01     0.01  -0.04   0.08
   9   6    -0.00  -0.05   0.01     0.03  -0.04  -0.02     0.01   0.02  -0.01
  10   7     0.06   0.07  -0.12     0.01   0.03  -0.03    -0.03  -0.02   0.04
  11   7    -0.08  -0.04   0.09    -0.03  -0.01   0.03     0.01   0.01  -0.01
  12   6     0.04  -0.06  -0.05     0.01  -0.02  -0.01     0.02  -0.01  -0.05
  13   6    -0.07   0.09   0.06    -0.00   0.01   0.00    -0.07   0.09   0.11
  14   6     0.02   0.05   0.01     0.01   0.01  -0.00     0.02  -0.07  -0.04
  15   6     0.07  -0.12  -0.05    -0.00  -0.01   0.00     0.11  -0.11  -0.14
  16   6     0.01  -0.04  -0.06     0.00  -0.01  -0.01    -0.14   0.20   0.21
  17   6    -0.04   0.11   0.08     0.00   0.01   0.01     0.05  -0.10  -0.08
  18  17    -0.00   0.00   0.00    -0.00   0.00   0.00    -0.00  -0.00   0.00
  19   1    -0.03  -0.00  -0.05    -0.02   0.05  -0.05    -0.00   0.06  -0.02
  20   1    -0.04  -0.05  -0.09    -0.06  -0.14  -0.20    -0.04  -0.13  -0.19
  21   1    -0.00   0.10   0.05     0.02   0.14   0.04     0.02   0.11   0.03
  22   1    -0.02  -0.02  -0.02    -0.01  -0.01   0.02     0.00   0.00   0.03
  23   1    -0.00   0.05   0.05     0.01   0.05   0.05     0.01   0.05   0.03
  24   1    -0.01   0.05   0.01     0.00   0.07  -0.01     0.02   0.07  -0.02
  25   1     0.02   0.01   0.00     0.06   0.05  -0.03     0.06   0.03  -0.02
  26   1    -0.06   0.46  -0.04     0.03  -0.37   0.06     0.01   0.03  -0.01
  27   1     0.04  -0.42   0.07    -0.02   0.25  -0.04    -0.02  -0.02  -0.00
  28   1    -0.03   0.18  -0.03    -0.05   0.45  -0.06     0.02  -0.10   0.02
  29   1     0.03  -0.29   0.04     0.02  -0.40   0.07    -0.02   0.10   0.01
  30   1     0.13  -0.15  -0.16     0.01  -0.01  -0.01     0.10  -0.11  -0.11
  31   1     0.01   0.00  -0.02     0.00   0.00  -0.01    -0.04   0.04   0.04
  32   1    -0.11   0.12   0.13    -0.00  -0.00  -0.00    -0.19   0.25   0.22
  33   1    -0.08   0.10   0.08    -0.01   0.01   0.01     0.31  -0.37  -0.34
  34   1     0.13  -0.14  -0.14     0.01  -0.01  -0.01    -0.14   0.17   0.16
                     43                     44                     45
                        a                      a                      a 
 Frequencies --   917.0226               929.8776               990.4841
 Red. masses --     5.4891                 3.3637                10.9140
 Frc consts  --     0.0000                 0.0000                 0.0000
 IR Inten    --    30.9417                 0.8363                 3.9688
 Raman Activ --     0.0000                 0.0000                 0.0000
 Depolar     --     0.0000                 0.0000                 0.0000
 Atom AN      X      Y      Z        X      Y      Z        X      Y      Z
   1   7     0.04   0.30  -0.00     0.00   0.02   0.00     0.01   0.01  -0.00
   2   6    -0.01  -0.01  -0.20    -0.00   0.00  -0.01    -0.01  -0.01   0.00
   3   6    -0.08  -0.20   0.20    -0.00  -0.01   0.01    -0.01   0.00   0.01
   4   6    -0.03  -0.01   0.01     0.00   0.00  -0.00     0.02   0.00  -0.01
   5   6     0.02   0.07   0.07     0.00   0.00   0.00     0.02   0.01   0.06
   6   6     0.11  -0.02   0.11     0.01  -0.00   0.00    -0.02   0.00  -0.03
   7   6    -0.03  -0.14  -0.07    -0.00  -0.01  -0.00    -0.04  -0.01  -0.04
   8   6    -0.02   0.11  -0.17    -0.00   0.01  -0.01     0.01   0.01   0.03
   9   6    -0.02  -0.03   0.02    -0.01   0.01   0.00     0.03  -0.02  -0.01
  10   7     0.06   0.05  -0.10    -0.00  -0.00   0.01     0.07  -0.02  -0.00
  11   7    -0.02  -0.03   0.05     0.01  -0.00  -0.00    -0.10  -0.11   0.15
  12   6     0.03  -0.04  -0.04    -0.03   0.05   0.01     0.02   0.10  -0.14
  13   6    -0.05   0.06   0.05    -0.09   0.12   0.13     0.48   0.06   0.32
  14   6     0.02   0.01  -0.01     0.16  -0.25  -0.21    -0.13  -0.04  -0.03
  15   6     0.06  -0.09  -0.06    -0.08   0.11   0.08     0.00   0.25  -0.27
  16   6    -0.09   0.09   0.08     0.01   0.02   0.03     0.13   0.03   0.08
  17   6     0.03  -0.02  -0.02     0.02  -0.07  -0.04    -0.46  -0.28  -0.05
  18  17     0.00   0.00  -0.00    -0.00  -0.00  -0.00    -0.01  -0.00  -0.00
  19   1     0.00  -0.12   0.04     0.00  -0.01   0.00    -0.01  -0.01  -0.01
  20   1     0.08   0.26   0.38     0.00   0.02   0.02    -0.00   0.01   0.02
  21   1    -0.04  -0.21  -0.05    -0.00  -0.02  -0.01    -0.00   0.00   0.01
  22   1    -0.01  -0.01  -0.05     0.00  -0.00   0.00    -0.00  -0.02   0.01
  23   1    -0.02  -0.09  -0.06     0.00  -0.00  -0.01     0.00   0.00  -0.01
  24   1    -0.04  -0.15   0.04    -0.00  -0.01   0.00    -0.00   0.00  -0.00
  25   1    -0.12  -0.05   0.05    -0.01  -0.00   0.00    -0.01   0.00   0.00
  26   1    -0.02  -0.07   0.03    -0.00   0.00   0.00     0.01   0.00   0.02
  27   1     0.04   0.05   0.00     0.00   0.00   0.00     0.00  -0.01  -0.01
  28   1    -0.05   0.23  -0.04    -0.00   0.01  -0.00    -0.01  -0.00  -0.02
  29   1     0.05  -0.23  -0.01     0.00  -0.02  -0.00     0.02  -0.00   0.01
  30   1     0.06  -0.06  -0.07     0.23  -0.25  -0.26     0.12   0.06   0.11
  31   1     0.01  -0.00  -0.01    -0.37   0.45   0.39    -0.06   0.02  -0.13
  32   1    -0.12   0.14   0.13     0.17  -0.20  -0.19    -0.01   0.06  -0.08
  33   1     0.14  -0.17  -0.17    -0.02   0.04   0.03     0.07   0.08  -0.02
  34   1    -0.05   0.06   0.06    -0.02   0.00   0.00    -0.12  -0.09  -0.10
                     46                     47                     48
                        a                      a                      a 
 Frequencies --  1013.2850              1034.6891              1050.2177
 Red. masses --     8.5982                 7.8148                 5.0580
 Frc consts  --     0.0000                 0.0000                 0.0000
 IR Inten    --     0.5709                15.3683                 8.9987
 Raman Activ --     0.0000                 0.0000                 0.0000
 Depolar     --     0.0000                 0.0000                 0.0000
 Atom AN      X      Y      Z        X      Y      Z        X      Y      Z
   1   7    -0.08  -0.07  -0.00     0.06   0.14   0.38     0.19   0.04  -0.13
   2   6     0.13   0.10  -0.02    -0.12  -0.35  -0.39    -0.35  -0.07   0.21
   3   6     0.04  -0.04  -0.05     0.15   0.21   0.18     0.17  -0.03  -0.07
   4   6    -0.15  -0.02   0.07     0.04  -0.05   0.08     0.08   0.12  -0.05
   5   6    -0.14  -0.05  -0.29    -0.07  -0.01  -0.11    -0.08  -0.04  -0.17
   6   6     0.25   0.06   0.32    -0.04  -0.00   0.02    -0.02  -0.00   0.07
   7   6     0.21   0.07   0.29    -0.01   0.01  -0.04     0.09   0.00   0.12
   8   6    -0.14  -0.05  -0.35    -0.01   0.00  -0.07    -0.06  -0.01  -0.03
   9   6    -0.12  -0.02   0.06     0.01  -0.00   0.04    -0.02   0.00   0.03
  10   7     0.10   0.04  -0.11     0.01   0.00  -0.03     0.02   0.01  -0.03
  11   7     0.02  -0.05   0.05    -0.00  -0.00   0.01     0.01  -0.01   0.01
  12   6     0.01  -0.00  -0.01     0.00  -0.00  -0.00     0.00  -0.00  -0.00
  13   6     0.05   0.01   0.03    -0.00  -0.00  -0.00    -0.00   0.00   0.00
  14   6    -0.01   0.00  -0.01    -0.00  -0.00  -0.00    -0.00  -0.00   0.00
  15   6     0.00   0.02  -0.02     0.00   0.00  -0.00     0.00  -0.00   0.00
  16   6     0.01   0.01  -0.00    -0.00  -0.00   0.00     0.00   0.00  -0.00
  17   6    -0.05  -0.03  -0.01    -0.00  -0.00   0.00    -0.00   0.00  -0.00
  18  17    -0.00  -0.00  -0.00    -0.00  -0.00   0.00     0.00   0.00  -0.00
  19   1     0.04   0.10   0.06     0.03   0.18   0.08    -0.11  -0.27  -0.17
  20   1     0.03  -0.09  -0.11    -0.03  -0.08  -0.14    -0.07   0.16   0.20
  21   1     0.03  -0.03  -0.07     0.06   0.22   0.11    -0.08   0.05   0.16
  22   1     0.01   0.18  -0.06     0.01  -0.09  -0.05     0.02  -0.38   0.24
  23   1    -0.03  -0.04   0.05    -0.01  -0.04  -0.11     0.11   0.15  -0.15
  24   1    -0.03  -0.02   0.04     0.26  -0.02  -0.25     0.19   0.11  -0.15
  25   1     0.04  -0.02  -0.00    -0.31   0.03   0.07     0.11   0.06  -0.09
  26   1    -0.22  -0.03  -0.08    -0.08  -0.02  -0.03    -0.13  -0.01  -0.05
  27   1    -0.02   0.04   0.23    -0.05   0.01   0.08    -0.07   0.03   0.12
  28   1    -0.03   0.01   0.23     0.00  -0.02  -0.02    -0.03   0.03   0.12
  29   1    -0.24  -0.05  -0.09     0.03  -0.02  -0.02    -0.12  -0.00  -0.01
  30   1     0.02   0.01   0.00    -0.00  -0.00   0.00     0.00   0.00  -0.00
  31   1    -0.01   0.01  -0.02     0.00  -0.00   0.00     0.00  -0.00  -0.00
  32   1    -0.00   0.01  -0.01     0.00  -0.00  -0.00    -0.00   0.00   0.00
  33   1     0.01   0.01  -0.01     0.00  -0.00  -0.00     0.00   0.00  -0.00
  34   1    -0.01  -0.01  -0.01     0.00  -0.00  -0.00    -0.00   0.00  -0.00
                     49                     50                     51
                        a                      a                      a 
 Frequencies --  1086.8692              1087.2661              1119.7497
 Red. masses --     6.2219                 7.3277                 4.3304
 Frc consts  --     0.0000                 0.0000                 0.0000
 IR Inten    --     1.5943                13.7418                 9.6200
 Raman Activ --     0.0000                 0.0000                 0.0000
 Depolar     --     0.0000                 0.0000                 0.0000
 Atom AN      X      Y      Z        X      Y      Z        X      Y      Z
   1   7     0.00  -0.02  -0.01     0.01  -0.19  -0.09     0.00  -0.00  -0.00
   2   6    -0.00   0.04  -0.01    -0.04   0.51  -0.05    -0.00   0.01  -0.00
   3   6     0.01  -0.03   0.02     0.08  -0.35   0.28     0.00  -0.00   0.01
   4   6    -0.00   0.00   0.01    -0.00   0.04   0.11     0.00  -0.00  -0.01
   5   6    -0.00  -0.00  -0.00    -0.03  -0.01  -0.05    -0.00   0.00   0.02
   6   6    -0.00  -0.00  -0.00    -0.04  -0.02  -0.02     0.01   0.00   0.01
   7   6    -0.01  -0.00  -0.01    -0.07  -0.03  -0.09    -0.00  -0.00  -0.00
   8   6     0.00  -0.00  -0.01     0.02  -0.01  -0.09    -0.00  -0.00   0.00
   9   6     0.00   0.00   0.00     0.02   0.01   0.06     0.02   0.01  -0.03
  10   7     0.00  -0.00  -0.00     0.01   0.00  -0.02    -0.03  -0.01   0.01
  11   7     0.00  -0.00   0.00    -0.00   0.00   0.01     0.04   0.06  -0.04
  12   6    -0.03  -0.01  -0.01     0.01   0.00  -0.01    -0.15  -0.11   0.00
  13   6     0.03   0.08  -0.06    -0.01  -0.01   0.00     0.11  -0.10   0.22
  14   6    -0.26  -0.12  -0.09     0.02   0.01   0.01     0.25   0.17   0.03
  15   6    -0.06  -0.31   0.29     0.01   0.03  -0.02    -0.15   0.02  -0.15
  16   6     0.32   0.07   0.20    -0.02  -0.01  -0.01     0.00  -0.06   0.06
  17   6     0.06   0.15  -0.11    -0.00  -0.01   0.01     0.12   0.14  -0.07
  18  17    -0.00  -0.00  -0.00     0.00   0.00   0.00     0.00   0.00   0.00
  19   1    -0.00   0.00  -0.01    -0.03  -0.01  -0.08    -0.00   0.00  -0.00
  20   1    -0.00  -0.01  -0.01    -0.06  -0.10  -0.14    -0.00  -0.00  -0.00
  21   1     0.00   0.01   0.00     0.00   0.09   0.03    -0.00   0.00   0.00
  22   1     0.00   0.01   0.00     0.06   0.10   0.07     0.00  -0.00   0.00
  23   1     0.01   0.03  -0.01     0.12   0.34  -0.10     0.00   0.00  -0.00
  24   1     0.01  -0.01  -0.01     0.18  -0.06  -0.11     0.00  -0.00  -0.00
  25   1    -0.02  -0.02   0.02    -0.25  -0.19   0.18    -0.01  -0.00   0.00
  26   1     0.01   0.00  -0.00     0.08   0.01  -0.02    -0.03  -0.00   0.00
  27   1    -0.01   0.01   0.01    -0.05   0.01   0.06    -0.00   0.00   0.01
  28   1    -0.00   0.00  -0.00    -0.03   0.01  -0.03     0.00   0.00  -0.01
  29   1     0.02   0.00  -0.00     0.16  -0.00  -0.02    -0.03   0.00  -0.00
  30   1     0.06   0.14  -0.07    -0.01  -0.01   0.01    -0.10  -0.32   0.20
  31   1    -0.22   0.11  -0.34     0.02  -0.01   0.03     0.02   0.11  -0.10
  32   1    -0.08  -0.12   0.06     0.01   0.01  -0.00    -0.35  -0.12  -0.18
  33   1     0.19   0.19  -0.03    -0.01  -0.01   0.00    -0.19  -0.34   0.21
  34   1    -0.16   0.23  -0.37     0.02  -0.02   0.03    -0.14   0.22  -0.31
                     52                     53                     54
                        a                      a                      a 
 Frequencies --  1132.1118              1174.1119              1178.4289
 Red. masses --     3.0549                 2.5517                 4.5508
 Frc consts  --     0.0000                 0.0000                 0.0000
 IR Inten    --     1.6382                 9.6121                21.1484
 Raman Activ --     0.0000                 0.0000                 0.0000
 Depolar     --     0.0000                 0.0000                 0.0000
 Atom AN      X      Y      Z        X      Y      Z        X      Y      Z
   1   7    -0.03   0.04  -0.01     0.00   0.00  -0.00    -0.01   0.00  -0.00
   2   6     0.05  -0.11   0.06    -0.00  -0.00   0.01     0.01   0.01  -0.00
   3   6    -0.03   0.07  -0.12     0.01  -0.00  -0.01    -0.02   0.01   0.01
   4   6     0.05   0.01   0.13    -0.03   0.00   0.02     0.06  -0.00  -0.03
   5   6     0.03  -0.02  -0.16    -0.02  -0.01  -0.05     0.07   0.02   0.12
   6   6    -0.14  -0.02  -0.05    -0.01  -0.01  -0.02     0.01   0.03   0.08
   7   6    -0.13  -0.00  -0.00     0.04   0.01   0.05    -0.10  -0.03  -0.14
   8   6     0.02  -0.01  -0.15     0.01   0.01   0.03    -0.03  -0.03  -0.08
   9   6     0.03   0.02   0.16    -0.15   0.00   0.07     0.39  -0.01  -0.18
  10   7     0.02   0.00  -0.04     0.02   0.03  -0.07    -0.11  -0.02   0.13
  11   7     0.00  -0.00   0.02     0.05   0.03  -0.05    -0.10   0.00   0.01
  12   6     0.00   0.01  -0.02    -0.02  -0.14   0.12    -0.03   0.05  -0.09
  13   6    -0.01  -0.01   0.00     0.03   0.08  -0.05    -0.02   0.02  -0.04
  14   6     0.00   0.00   0.00     0.04   0.04  -0.01    -0.03  -0.01  -0.01
  15   6    -0.00  -0.00  -0.00     0.07   0.05   0.01     0.04   0.01   0.02
  16   6     0.01  -0.00   0.01    -0.10  -0.03  -0.05     0.02  -0.01   0.03
  17   6     0.01   0.01  -0.00    -0.05  -0.11   0.06     0.02  -0.00   0.02
  18  17     0.00   0.00  -0.00    -0.00  -0.00  -0.00     0.00   0.00   0.00
  19   1     0.02  -0.00   0.03    -0.00  -0.00  -0.00     0.00   0.01   0.01
  20   1     0.02   0.02   0.03    -0.00   0.00   0.00     0.00   0.00   0.00
  21   1    -0.01  -0.05  -0.03    -0.00   0.00   0.00     0.00  -0.01  -0.01
  22   1    -0.02  -0.01  -0.03     0.00   0.01   0.01    -0.01  -0.02  -0.01
  23   1    -0.03  -0.06   0.06     0.00  -0.00  -0.00    -0.00   0.02   0.01
  24   1    -0.03   0.06   0.01     0.02   0.01  -0.01    -0.02  -0.02   0.02
  25   1     0.06   0.00  -0.02     0.01   0.00  -0.01    -0.03  -0.01   0.02
  26   1     0.44   0.04  -0.05    -0.05  -0.01  -0.01     0.22   0.02   0.03
  27   1    -0.23   0.04   0.31     0.08  -0.01  -0.15    -0.23   0.04   0.43
  28   1    -0.27   0.02   0.39     0.01   0.00   0.01     0.01  -0.02  -0.10
  29   1     0.47   0.01  -0.04     0.17   0.00   0.01    -0.47  -0.02  -0.03
  30   1    -0.01  -0.03   0.01     0.02   0.03  -0.02    -0.05  -0.06   0.03
  31   1     0.00   0.00  -0.00    -0.11   0.14  -0.26    -0.07   0.06  -0.14
  32   1    -0.01  -0.01  -0.01     0.59   0.25   0.25     0.24   0.10   0.11
  33   1    -0.01  -0.02   0.01    -0.21  -0.32   0.16    -0.07  -0.14   0.09
  34   1    -0.00   0.01  -0.01    -0.14   0.09  -0.20     0.02  -0.01   0.03
                     55                     56                     57
                        a                      a                      a 
 Frequencies --  1188.5241              1190.6695              1198.8260
 Red. masses --     3.7693                 4.0823                 4.4051
 Frc consts  --     0.0000                 0.0000                 0.0000
 IR Inten    --    15.0285                 8.4252                11.8906
 Raman Activ --     0.0000                 0.0000                 0.0000
 Depolar     --     0.0000                 0.0000                 0.0000
 Atom AN      X      Y      Z        X      Y      Z        X      Y      Z
   1   7     0.01  -0.01   0.01     0.14  -0.07   0.14     0.03  -0.01  -0.00
   2   6    -0.02   0.03  -0.04    -0.23   0.13  -0.30    -0.03  -0.04   0.00
   3   6    -0.02  -0.01   0.03     0.06  -0.11   0.17     0.09  -0.01  -0.04
   4   6     0.05  -0.00  -0.04    -0.06   0.02  -0.10    -0.23   0.02   0.11
   5   6    -0.02  -0.00  -0.01     0.04  -0.00   0.04     0.02  -0.00  -0.03
   6   6     0.01  -0.01  -0.05    -0.00   0.00   0.03     0.00   0.00   0.11
   7   6    -0.01   0.01   0.05     0.00   0.01   0.05     0.07   0.00  -0.00
   8   6     0.04   0.01   0.03     0.04  -0.00   0.00    -0.09  -0.00  -0.04
   9   6     0.03   0.01  -0.03     0.01  -0.00  -0.02    -0.33   0.02   0.18
  10   7     0.04  -0.06   0.06    -0.01   0.00   0.00     0.11   0.02  -0.11
  11   7    -0.02  -0.08   0.09    -0.01   0.01  -0.01     0.09  -0.04   0.03
  12   6    -0.10   0.22  -0.28     0.01  -0.02   0.03    -0.04   0.01  -0.03
  13   6    -0.09  -0.08  -0.01     0.01   0.01  -0.00    -0.03  -0.06   0.04
  14   6    -0.08  -0.02  -0.03     0.01   0.00   0.00    -0.00   0.02  -0.02
  15   6     0.01   0.01   0.00    -0.00  -0.00   0.00    -0.00   0.02  -0.02
  16   6     0.15   0.04   0.08    -0.02  -0.01  -0.01     0.04   0.04  -0.00
  17   6     0.10   0.07   0.03    -0.01  -0.01  -0.00     0.03   0.01   0.02
  18  17     0.01   0.00   0.00    -0.00  -0.00  -0.00     0.00   0.00   0.00
  19   1    -0.00   0.01  -0.00    -0.04   0.02  -0.08    -0.01  -0.01  -0.01
  20   1    -0.01  -0.01  -0.01    -0.09  -0.07  -0.11    -0.01   0.01   0.02
  21   1     0.00   0.02   0.01     0.02   0.19   0.14    -0.00   0.02   0.02
  22   1     0.00  -0.01   0.00     0.05   0.03   0.06     0.02   0.04   0.02
  23   1     0.00   0.00  -0.02     0.02  -0.07  -0.23     0.01  -0.03  -0.03
  24   1    -0.05  -0.04   0.05    -0.27  -0.34   0.27     0.08   0.01  -0.07
  25   1    -0.01   0.02  -0.02     0.26   0.30  -0.32     0.13   0.06  -0.08
  26   1    -0.25  -0.02  -0.00     0.14   0.03   0.01     0.50   0.05  -0.01
  27   1     0.07  -0.01  -0.14     0.01   0.00  -0.00     0.01   0.02   0.01
  28   1    -0.11   0.01   0.20    -0.07   0.01   0.14     0.27  -0.03  -0.43
  29   1     0.13   0.01   0.01    -0.01   0.01  -0.00    -0.05  -0.02  -0.01
  30   1    -0.22  -0.36   0.19     0.02   0.04  -0.02    -0.08  -0.16   0.09
  31   1    -0.19   0.16  -0.35     0.02  -0.02   0.04    -0.09   0.10  -0.19
  32   1     0.07   0.03   0.03     0.00   0.00   0.00    -0.02  -0.00  -0.01
  33   1     0.03  -0.01   0.04    -0.01  -0.01   0.00     0.05   0.07  -0.03
  34   1     0.21  -0.16   0.33    -0.03   0.02  -0.04     0.08  -0.07   0.15
                     58                     59                     60
                        a                      a                      a 
 Frequencies --  1210.7586              1237.4769              1255.3965
 Red. masses --     7.7282                 3.9315                 7.8781
 Frc consts  --     0.0000                 0.0000                 0.0000
 IR Inten    --    17.7100                36.2131                 6.2134
 Raman Activ --     0.0000                 0.0000                 0.0000
 Depolar     --     0.0000                 0.0000                 0.0000
 Atom AN      X      Y      Z        X      Y      Z        X      Y      Z
   1   7    -0.01   0.00   0.00     0.24  -0.05  -0.06    -0.09   0.02   0.00
   2   6     0.00   0.01  -0.01    -0.15   0.00   0.10     0.06  -0.08  -0.03
   3   6    -0.02   0.00   0.01     0.03   0.06  -0.14     0.15  -0.09  -0.02
   4   6     0.06  -0.00  -0.03    -0.17  -0.02   0.15    -0.43   0.05   0.22
   5   6     0.00   0.00   0.02    -0.04   0.01   0.07    -0.12   0.01   0.15
   6   6    -0.01   0.01  -0.01     0.10   0.02  -0.00     0.19   0.03   0.06
   7   6    -0.01  -0.00  -0.02    -0.11  -0.01   0.00    -0.21  -0.01   0.06
   8   6     0.02  -0.00   0.01     0.02  -0.01  -0.09     0.07  -0.03  -0.19
   9   6     0.11  -0.01  -0.06     0.16  -0.01  -0.11     0.31  -0.02  -0.21
  10   7    -0.13   0.07  -0.02    -0.05  -0.00   0.05    -0.09  -0.01   0.09
  11   7     0.06   0.17  -0.17    -0.03   0.01  -0.01    -0.06   0.03  -0.02
  12   6    -0.02  -0.43   0.42    -0.00  -0.01   0.00    -0.01  -0.02   0.01
  13   6     0.01  -0.08   0.13     0.00   0.00   0.00     0.01   0.01   0.00
  14   6     0.11   0.13  -0.05    -0.00   0.00  -0.00     0.00   0.00  -0.00
  15   6    -0.01   0.06  -0.08     0.00  -0.00   0.00     0.00  -0.00   0.00
  16   6    -0.10   0.07  -0.16    -0.00  -0.00   0.00    -0.00  -0.00   0.00
  17   6     0.00  -0.12   0.11     0.00   0.00   0.00     0.00   0.00  -0.00
  18  17    -0.00   0.00   0.00     0.00   0.00  -0.00    -0.00   0.00  -0.00
  19   1     0.00   0.00   0.00    -0.05  -0.12  -0.14     0.03   0.04   0.06
  20   1     0.00  -0.00  -0.01    -0.09   0.04   0.03     0.04  -0.01   0.01
  21   1     0.00  -0.00  -0.00    -0.04   0.09   0.16     0.01  -0.04  -0.06
  22   1    -0.00  -0.01  -0.01     0.15   0.50   0.20    -0.04  -0.13  -0.07
  23   1    -0.00   0.01   0.00    -0.06  -0.50  -0.16     0.05   0.23   0.06
  24   1    -0.02  -0.01   0.02     0.06   0.10  -0.07     0.19   0.08  -0.15
  25   1    -0.03  -0.01   0.02    -0.07  -0.10   0.09     0.26   0.16  -0.20
  26   1    -0.05  -0.01   0.00    -0.07  -0.00   0.02    -0.02   0.01   0.05
  27   1    -0.04   0.00   0.07     0.03  -0.01  -0.00     0.15  -0.02  -0.12
  28   1    -0.06   0.00   0.08    -0.00  -0.01  -0.05    -0.04  -0.00  -0.03
  29   1    -0.03   0.00   0.00     0.12   0.01  -0.03     0.20   0.02  -0.06
  30   1    -0.00  -0.09   0.05     0.01   0.01  -0.01     0.02   0.02  -0.02
  31   1    -0.11   0.19  -0.32    -0.00   0.00  -0.00     0.00  -0.00   0.00
  32   1    -0.03   0.01  -0.04     0.00   0.00   0.00     0.00   0.00   0.00
  33   1     0.16   0.35  -0.23     0.00   0.00  -0.00    -0.00  -0.00   0.00
  34   1     0.02  -0.06   0.12     0.00  -0.00   0.01     0.00  -0.00   0.01
                     61                     62                     63
                        a                      a                      a 
 Frequencies --  1272.8306              1287.1851              1326.6759
 Red. masses --     3.3303                 3.3188                 4.5281
 Frc consts  --     0.0000                 0.0000                 0.0000
 IR Inten    --     3.0415                15.2260                 7.1930
 Raman Activ --     0.0000                 0.0000                 0.0000
 Depolar     --     0.0000                 0.0000                 0.0000
 Atom AN      X      Y      Z        X      Y      Z        X      Y      Z
   1   7     0.01   0.01  -0.02     0.00  -0.00  -0.01     0.00  -0.04  -0.13
   2   6    -0.01  -0.04   0.03    -0.00  -0.01  -0.00     0.00  -0.31  -0.03
   3   6     0.06   0.04   0.00    -0.00  -0.00   0.00    -0.26  -0.11   0.24
   4   6    -0.13  -0.04  -0.12    -0.01   0.00   0.01     0.16   0.04  -0.02
   5   6    -0.17  -0.02  -0.02     0.01   0.00   0.00     0.03  -0.00  -0.02
   6   6    -0.04   0.01   0.08     0.01  -0.00  -0.01    -0.03  -0.02  -0.08
   7   6     0.03  -0.02  -0.14    -0.01   0.00   0.00     0.06  -0.01  -0.09
   8   6     0.12   0.01  -0.02    -0.00   0.00  -0.01    -0.04   0.00   0.05
   9   6     0.16   0.04   0.25     0.00  -0.00   0.00    -0.03   0.01   0.09
  10   7    -0.00   0.00  -0.04     0.00   0.02   0.00     0.01  -0.00  -0.01
  11   7    -0.01   0.01   0.01    -0.03  -0.05   0.02     0.01   0.00   0.00
  12   6     0.01  -0.00   0.00     0.23   0.15   0.03     0.01  -0.00   0.01
  13   6    -0.01  -0.01   0.01     0.00   0.09  -0.09    -0.01  -0.01   0.01
  14   6     0.00   0.00  -0.00    -0.07   0.03  -0.10    -0.00   0.00  -0.01
  15   6     0.00   0.00  -0.00    -0.16  -0.05  -0.09     0.02   0.01   0.01
  16   6    -0.01  -0.00   0.00    -0.08  -0.10   0.03    -0.00  -0.01   0.00
  17   6    -0.00  -0.00  -0.00     0.08  -0.09   0.17    -0.01   0.01  -0.02
  18  17     0.00   0.00  -0.00     0.01   0.00   0.00    -0.00  -0.00  -0.00
  19   1     0.01  -0.02   0.00     0.00   0.01   0.00     0.07   0.06   0.05
  20   1    -0.01   0.01   0.00    -0.00   0.01   0.01     0.01   0.07   0.12
  21   1    -0.02  -0.01   0.02    -0.00   0.01   0.01    -0.04   0.06   0.05
  22   1     0.02   0.06   0.02     0.00   0.01   0.00     0.11   0.56   0.04
  23   1     0.01   0.01   0.00     0.00   0.01   0.00     0.07   0.32   0.06
  24   1     0.08   0.02  -0.07     0.00   0.00  -0.00     0.14   0.18  -0.12
  25   1    -0.11  -0.06   0.08     0.01   0.01  -0.01     0.16   0.23  -0.22
  26   1     0.38   0.03  -0.01    -0.01   0.00   0.00    -0.07  -0.01  -0.01
  27   1     0.26  -0.05  -0.43    -0.00   0.00   0.00    -0.05   0.01   0.04
  28   1    -0.23   0.02   0.36     0.01  -0.00  -0.01    -0.02   0.01   0.04
  29   1    -0.41  -0.03  -0.01    -0.00  -0.00  -0.00    -0.07  -0.00   0.02
  30   1    -0.00  -0.01   0.00    -0.26  -0.47   0.24     0.01   0.01  -0.01
  31   1    -0.00   0.00  -0.00     0.11  -0.12   0.24    -0.00   0.00  -0.01
  32   1    -0.00  -0.00  -0.00     0.22   0.10   0.09    -0.01  -0.00  -0.00
  33   1     0.00   0.00  -0.00     0.16   0.30  -0.18    -0.01  -0.01   0.01
  34   1    -0.01   0.00  -0.01    -0.16   0.16  -0.31     0.00  -0.00   0.01
                     64                     65                     66
                        a                      a                      a 
 Frequencies --  1333.2887              1341.1697              1346.3716
 Red. masses --     8.9554                 9.8049                 9.0782
 Frc consts  --     0.0000                 0.0000                 0.0000
 IR Inten    --     8.6928                 4.3081                 2.2013
 Raman Activ --     0.0000                 0.0000                 0.0000
 Depolar     --     0.0000                 0.0000                 0.0000
 Atom AN      X      Y      Z        X      Y      Z        X      Y      Z
   1   7     0.00   0.01  -0.09    -0.00  -0.01   0.05    -0.00  -0.01   0.05
   2   6    -0.10  -0.20   0.04     0.09   0.14  -0.02     0.10   0.15  -0.01
   3   6     0.17   0.14  -0.06    -0.17  -0.13   0.11    -0.19  -0.14   0.14
   4   6    -0.18  -0.09  -0.26     0.04   0.03  -0.04    -0.08  -0.01  -0.29
   5   6     0.22   0.03   0.01     0.03  -0.00  -0.02     0.27   0.02  -0.02
   6   6    -0.10   0.03   0.26    -0.04  -0.01   0.01    -0.17   0.02   0.23
   7   6    -0.10   0.02   0.23     0.00  -0.01  -0.02    -0.12   0.01   0.18
   8   6     0.25   0.02   0.02     0.03   0.00   0.02     0.30   0.02   0.03
   9   6    -0.17  -0.05  -0.30    -0.02   0.01   0.02    -0.17  -0.04  -0.21
  10   7     0.00  -0.01   0.02     0.00  -0.02  -0.01     0.02   0.00   0.00
  11   7     0.01  -0.01  -0.01     0.02   0.00   0.01    -0.01  -0.00  -0.01
  12   6    -0.14  -0.05  -0.06    -0.33  -0.12  -0.15     0.16   0.06   0.08
  13   6     0.08   0.12  -0.06     0.17   0.27  -0.14    -0.08  -0.13   0.07
  14   6     0.05  -0.05   0.10     0.12  -0.13   0.25    -0.06   0.06  -0.13
  15   6    -0.13  -0.06  -0.05    -0.30  -0.13  -0.12     0.15   0.06   0.06
  16   6     0.07   0.09  -0.05     0.15   0.24  -0.13    -0.08  -0.12   0.07
  17   6     0.06  -0.05   0.10     0.15  -0.13   0.26    -0.07   0.07  -0.13
  18  17    -0.00  -0.00  -0.00    -0.00  -0.00  -0.00     0.00  -0.00   0.00
  19   1     0.04   0.01   0.03    -0.02   0.00  -0.02    -0.02  -0.00  -0.02
  20   1    -0.01   0.05   0.06     0.01  -0.03  -0.03     0.01  -0.03  -0.03
  21   1    -0.04  -0.00   0.03     0.03   0.01  -0.02     0.03   0.01  -0.02
  22   1     0.05   0.19   0.06    -0.03  -0.10  -0.05    -0.02  -0.09  -0.04
  23   1     0.08   0.32   0.03    -0.06  -0.25  -0.01    -0.07  -0.26  -0.00
  24   1    -0.09  -0.15   0.07     0.16   0.18  -0.15     0.24   0.23  -0.22
  25   1    -0.18  -0.10   0.14     0.10   0.08  -0.10     0.04   0.06  -0.07
  26   1     0.07  -0.00   0.01     0.00   0.01  -0.01     0.04   0.01  -0.01
  27   1    -0.00   0.00   0.03    -0.01   0.00  -0.01    -0.02   0.00   0.01
  28   1    -0.01   0.00   0.03    -0.03   0.01   0.04    -0.05   0.01   0.07
  29   1     0.06   0.02   0.00    -0.05  -0.00   0.00    -0.04   0.01   0.01
  30   1     0.01   0.01  -0.00     0.01   0.02  -0.01    -0.01  -0.01   0.01
  31   1     0.01  -0.01   0.03     0.03  -0.03   0.05    -0.01   0.01  -0.02
  32   1     0.02   0.00   0.01     0.03   0.01   0.01    -0.01  -0.00  -0.00
  33   1     0.01   0.01  -0.00     0.02   0.03  -0.01    -0.01  -0.01   0.00
  34   1     0.01  -0.00   0.02     0.01  -0.00   0.03    -0.00   0.00  -0.02
                     67                     68                     69
                        a                      a                      a 
 Frequencies --  1397.6005              1407.6161              1412.5418
 Red. masses --     3.0083                 1.5604                 9.7722
 Frc consts  --     0.0000                 0.0000                 0.0000
 IR Inten    --   243.8214               124.6514                 0.0372
 Raman Activ --     0.0000                 0.0000                 0.0000
 Depolar     --     0.0000                 0.0000                 0.0000
 Atom AN      X      Y      Z        X      Y      Z        X      Y      Z
   1   7     0.07   0.32   0.17    -0.18   0.01   0.03    -0.00   0.03   0.03
   2   6    -0.02  -0.09   0.01    -0.06  -0.02   0.01    -0.02  -0.03   0.00
   3   6    -0.03   0.00   0.04     0.02   0.00  -0.00    -0.01   0.00  -0.07
   4   6    -0.01  -0.00  -0.03    -0.01  -0.01  -0.02     0.13   0.05   0.26
   5   6    -0.00   0.00   0.03    -0.03  -0.00   0.02     0.30  -0.00  -0.23
   6   6     0.03   0.00  -0.01     0.02   0.00   0.00    -0.34  -0.02   0.05
   7   6     0.04  -0.00  -0.02     0.02   0.00  -0.01    -0.36  -0.01   0.14
   8   6    -0.02   0.00   0.03    -0.02   0.00   0.02     0.24  -0.02  -0.27
   9   6    -0.03  -0.01  -0.03    -0.00  -0.00  -0.03     0.17   0.04   0.32
  10   7    -0.00   0.00   0.00    -0.00   0.00   0.00    -0.00  -0.00  -0.05
  11   7     0.01  -0.01   0.00     0.00  -0.00   0.00    -0.02   0.01   0.01
  12   6    -0.01   0.00  -0.01    -0.01  -0.00  -0.01     0.05   0.02   0.00
  13   6     0.00  -0.00   0.01     0.00  -0.01   0.01    -0.04  -0.00  -0.03
  14   6     0.00   0.01  -0.01     0.00   0.01  -0.01     0.02  -0.04   0.07
  15   6    -0.01  -0.00  -0.00    -0.01  -0.00  -0.00     0.02   0.02  -0.00
  16   6     0.00  -0.01   0.01     0.00  -0.01   0.01    -0.01   0.04  -0.05
  17   6     0.01   0.01   0.00     0.01   0.01  -0.00    -0.01  -0.05   0.05
  18  17     0.00   0.00  -0.00     0.00   0.00  -0.00     0.00   0.00   0.00
  19   1    -0.18  -0.49  -0.10    -0.12  -0.38  -0.03    -0.05  -0.05  -0.05
  20   1    -0.02  -0.23  -0.49     0.67  -0.12   0.08     0.04  -0.02  -0.02
  21   1    -0.05  -0.45  -0.10     0.28   0.44  -0.22     0.04  -0.01  -0.06
  22   1    -0.00   0.15  -0.02     0.02   0.06   0.04     0.00   0.03   0.00
  23   1     0.05   0.10  -0.03     0.00  -0.01  -0.02     0.01   0.04  -0.01
  24   1     0.03  -0.01  -0.03    -0.01   0.02   0.02    -0.09  -0.04   0.08
  25   1     0.04   0.02  -0.01    -0.04   0.01  -0.00     0.07   0.01  -0.03
  26   1     0.00   0.00   0.01     0.02   0.00   0.00    -0.20  -0.03  -0.07
  27   1    -0.01   0.00   0.03     0.00   0.00   0.01     0.01  -0.03  -0.17
  28   1    -0.00   0.01   0.01    -0.00  -0.00   0.02     0.04  -0.03  -0.21
  29   1     0.01   0.00   0.01     0.02   0.00   0.00    -0.17  -0.03  -0.08
  30   1    -0.00  -0.01   0.00     0.00  -0.00   0.00    -0.01   0.00  -0.01
  31   1     0.00   0.00   0.00     0.00   0.00   0.00    -0.03   0.02  -0.04
  32   1     0.01   0.00   0.00     0.01   0.00   0.00    -0.05  -0.02  -0.03
  33   1     0.01   0.01  -0.00     0.00   0.01  -0.00    -0.02  -0.01  -0.00
  34   1     0.00   0.00   0.00     0.00   0.00   0.00    -0.02   0.01  -0.03
                     70                     71                     72
                        a                      a                      a 
 Frequencies --  1435.1297              1436.5649              1455.8513
 Red. masses --     8.2825                 2.6473                 9.2047
 Frc consts  --     0.0000                 0.0000                 0.0000
 IR Inten    --     9.6764                65.2764                24.3741
 Raman Activ --     0.0000                 0.0000                 0.0000
 Depolar     --     0.0000                 0.0000                 0.0000
[...]
  34   1    -0.01   0.03  -0.04     0.00  -0.01   0.01    -0.00   0.05  -0.05
                     79                     80                     81
                        a                      a                      a 
 Frequencies --  1601.4791              1610.8458              2945.2985
 Red. masses --    11.5378                11.7197                 1.9451
 Frc consts  --     0.0000                 0.0000                 0.0000
 IR Inten    --    19.2140                10.4883                12.6239
 Raman Activ --     0.0000                 0.0000                 0.0000
 Depolar     --     0.0000                 0.0000                 0.0000
 Atom AN      X      Y      Z        X      Y      Z        X      Y      Z
   1   7     0.00   0.00  -0.00     0.00   0.00   0.00    -0.00   0.00  -0.00
   2   6    -0.00  -0.00   0.00    -0.00  -0.01   0.01    -0.03   0.01  -0.01
   3   6    -0.02   0.00   0.01    -0.04   0.01   0.02     0.12   0.12   0.24
   4   6     0.14   0.00  -0.07     0.24   0.00  -0.13     0.00   0.00   0.01
   5   6    -0.23  -0.01   0.04    -0.41  -0.02   0.09     0.00  -0.00  -0.00
   6   6     0.14  -0.01  -0.12     0.27  -0.02  -0.25    -0.00   0.00   0.00
   7   6    -0.15   0.01   0.16    -0.28   0.02   0.30    -0.00   0.00  -0.00
   8   6     0.18   0.01  -0.05     0.36   0.02  -0.10     0.00  -0.00   0.00
   9   6    -0.07   0.00   0.02    -0.13   0.00   0.06    -0.00  -0.00  -0.00
  10   7     0.04  -0.04   0.03    -0.15   0.09  -0.03     0.00   0.00   0.00
  11   7    -0.03   0.05  -0.03     0.14  -0.10   0.05    -0.00  -0.00  -0.00
  12   6    -0.03   0.10  -0.12    -0.01  -0.06   0.05    -0.00   0.00  -0.00
  13   6    -0.07  -0.29   0.24     0.05   0.15  -0.12     0.00  -0.00   0.00
  14   6    -0.11   0.24  -0.35     0.04  -0.12   0.16    -0.00  -0.00  -0.00
  15   6     0.01  -0.13   0.15     0.01   0.07  -0.06    -0.00   0.00  -0.00
  16   6     0.11   0.32  -0.25    -0.06  -0.16   0.12    -0.00  -0.00  -0.00
  17   6     0.08  -0.23   0.32    -0.04   0.11  -0.15    -0.00  -0.00   0.00
  18  17    -0.00  -0.00  -0.00     0.00   0.00   0.00    -0.00   0.00  -0.00
  19   1     0.00   0.00   0.00    -0.00  -0.00  -0.00    -0.00  -0.00   0.00
  20   1    -0.00   0.00   0.00     0.00   0.00  -0.00    -0.00  -0.00   0.00
  21   1    -0.00  -0.00   0.00     0.00  -0.00  -0.00    -0.00  -0.00  -0.00
  22   1    -0.00   0.01  -0.00    -0.00   0.01  -0.00     0.02  -0.00  -0.02
  23   1     0.00  -0.00  -0.00     0.00   0.00  -0.00     0.11  -0.04   0.08
  24   1    -0.00  -0.00   0.00    -0.00  -0.01  -0.00    -0.44   0.14  -0.35
  25   1    -0.00  -0.00   0.00    -0.00  -0.01   0.01    -0.00  -0.55  -0.50
  26   1     0.06   0.01   0.01     0.10   0.01   0.02    -0.00   0.00   0.00
  27   1    -0.00   0.01   0.03    -0.01   0.01   0.07    -0.00  -0.00  -0.00
  28   1     0.02  -0.01  -0.05     0.03  -0.01  -0.09     0.00   0.00   0.00
  29   1    -0.03  -0.01  -0.01    -0.07  -0.01  -0.03    -0.00   0.00  -0.00
  30   1     0.06   0.07  -0.01    -0.03  -0.03   0.01    -0.00   0.00  -0.00
  31   1     0.05  -0.03   0.08    -0.03   0.01  -0.03     0.00   0.00  -0.00
  32   1    -0.00  -0.04   0.04    -0.00   0.02  -0.02    -0.00  -0.00   0.00
  33   1    -0.06  -0.07   0.02     0.03   0.03  -0.01     0.00  -0.00   0.00
  34   1    -0.05   0.01  -0.06     0.03  -0.01   0.03     0.00   0.00  -0.00
                     82                     83                     84
                        a                      a                      a 
 Frequencies --  2949.5789              2970.7905              2981.9629
 Red. masses --     1.9183                 1.5237                 1.5849
 Frc consts  --     0.0000                 0.0000                 0.0000
 IR Inten    --     5.3898                33.5971                18.4627
 Raman Activ --     0.0000                 0.0000                 0.0000
 Depolar     --     0.0000                 0.0000                 0.0000
 Atom AN      X      Y      Z        X      Y      Z        X      Y      Z
   1   7    -0.00  -0.00   0.00    -0.00   0.00   0.00    -0.00   0.00  -0.00
   2   6     0.27  -0.05  -0.07     0.03  -0.00  -0.05     0.10  -0.05   0.19
   3   6    -0.01   0.04   0.02     0.14  -0.15   0.02     0.04  -0.02   0.04
   4   6    -0.00   0.00   0.00     0.01  -0.00  -0.00     0.00  -0.00   0.00
   5   6     0.00  -0.00  -0.00    -0.00   0.00   0.00    -0.00  -0.00  -0.00
   6   6    -0.00  -0.00   0.00     0.00   0.00   0.00     0.00   0.00   0.00
   7   6     0.00   0.00   0.00    -0.00  -0.00   0.00    -0.00  -0.00  -0.00
   8   6     0.00  -0.00   0.00     0.00   0.00  -0.00     0.00   0.00  -0.00
   9   6    -0.00   0.00  -0.00    -0.00   0.00   0.00    -0.00  -0.00  -0.00
  10   7    -0.00   0.00  -0.00    -0.00   0.00  -0.00    -0.00  -0.00   0.00
  11   7     0.00  -0.00  -0.00     0.00  -0.00  -0.00    -0.00   0.00  -0.00
  12   6    -0.00   0.00   0.00     0.00   0.00   0.00    -0.00   0.00  -0.00
  13   6    -0.00   0.00  -0.00     0.00  -0.00   0.00     0.00  -0.00   0.00
  14   6     0.00   0.00  -0.00     0.00   0.00   0.00    -0.00  -0.00  -0.00
  15   6     0.00   0.00  -0.00     0.00   0.00  -0.00    -0.00  -0.00   0.00
  16   6    -0.00  -0.00  -0.00     0.00  -0.00   0.00    -0.00   0.00  -0.00
  17   6     0.00   0.00  -0.00     0.00   0.00   0.00     0.00  -0.00   0.00
  18  17     0.00  -0.00  -0.00     0.00  -0.00  -0.00    -0.00   0.00   0.00
  19   1     0.02  -0.00  -0.02     0.01  -0.00  -0.01    -0.01   0.00   0.01
  20   1    -0.00   0.00  -0.00    -0.00  -0.01   0.00    -0.00  -0.00   0.00
  21   1     0.01  -0.00   0.01    -0.01  -0.00  -0.00     0.02  -0.01   0.02
  22   1    -0.66   0.07   0.52    -0.18   0.02   0.14     0.34  -0.05  -0.23
  23   1    -0.31   0.10  -0.25     0.08  -0.03   0.05    -0.68   0.21  -0.46
  24   1     0.06  -0.01   0.05    -0.54   0.13  -0.48    -0.16   0.04  -0.14
  25   1    -0.01  -0.12  -0.12     0.03   0.42   0.42     0.01   0.01   0.02
  26   1    -0.00   0.00   0.00     0.00  -0.00  -0.00    -0.00   0.00   0.00
  27   1    -0.00  -0.00  -0.00    -0.00  -0.00  -0.00    -0.00  -0.00  -0.00
  28   1    -0.00  -0.00  -0.00     0.00   0.00   0.00     0.00   0.00   0.00
  29   1    -0.00   0.00  -0.00    -0.00  -0.00   0.00     0.00   0.00   0.00
  30   1     0.00  -0.00   0.00    -0.00  -0.00  -0.00    -0.00   0.00  -0.00
  31   1    -0.00  -0.00  -0.00    -0.00  -0.00   0.00     0.00   0.00  -0.00
  32   1     0.00  -0.00   0.00     0.00   0.00   0.00     0.00   0.00  -0.00
  33   1     0.00  -0.00   0.00    -0.00   0.00  -0.00     0.00  -0.00   0.00
  34   1    -0.00  -0.00  -0.00    -0.00  -0.00  -0.00     0.00  -0.00  -0.00
                     85                     86                     87
                        a                      a                      a 
 Frequencies --  3095.7050              3102.2080              3109.2461
 Red. masses --     1.7556                 1.8174                 1.7916
 Frc consts  --     0.0000                 0.0000                 0.0000
 IR Inten    --     4.2788                73.6657                 9.7776
 Raman Activ --     0.0000                 0.0000                 0.0000
 Depolar     --     0.0000                 0.0000                 0.0000
 Atom AN      X      Y      Z        X      Y      Z        X      Y      Z
   1   7    -0.00   0.00   0.00     0.00   0.00  -0.00     0.00  -0.00   0.00
   2   6    -0.00   0.00   0.00    -0.00   0.00  -0.00    -0.00   0.00  -0.00
   3   6    -0.00  -0.00  -0.00    -0.00  -0.00  -0.00    -0.00  -0.00  -0.00
   4   6    -0.00   0.00   0.00     0.00  -0.00  -0.00     0.00  -0.00  -0.01
   5   6    -0.00   0.00   0.00     0.00  -0.00  -0.00     0.00  -0.03  -0.22
   6   6    -0.00  -0.00  -0.00    -0.00  -0.00  -0.00     0.08   0.01   0.04
   7   6     0.00   0.00   0.00     0.00   0.00   0.00    -0.10  -0.02  -0.05
   8   6     0.00  -0.00  -0.00     0.00   0.00   0.00    -0.00   0.01   0.05
   9   6    -0.00  -0.00  -0.00    -0.00  -0.00  -0.00     0.00   0.00   0.00
  10   7     0.00   0.00   0.00     0.00   0.00   0.00     0.00  -0.00  -0.00
  11   7    -0.00   0.00  -0.00    -0.00  -0.00   0.00    -0.00   0.00   0.00
  12   6     0.00   0.00  -0.00     0.00   0.00   0.00    -0.00  -0.00   0.00
  13   6    -0.00   0.00  -0.00     0.01  -0.00   0.01     0.00   0.00   0.00
  14   6     0.06   0.05  -0.00    -0.14  -0.12   0.01    -0.00  -0.00   0.00
  15   6    -0.01  -0.13   0.13     0.00   0.06  -0.06    -0.00  -0.01   0.01
  16   6    -0.13   0.01  -0.12    -0.13   0.01  -0.12     0.00  -0.00   0.00
  17   6     0.02   0.02  -0.00     0.03   0.03  -0.00     0.00   0.00  -0.00
  18  17    -0.00  -0.00  -0.00     0.00   0.00   0.00     0.00  -0.00   0.00
  19   1     0.00  -0.00  -0.00    -0.00   0.00   0.00    -0.00   0.00   0.00
  20   1     0.00   0.00   0.00    -0.00  -0.00   0.00     0.00   0.00  -0.00
  21   1     0.00   0.00   0.00     0.00  -0.00   0.00    -0.00   0.00  -0.00
  22   1     0.00  -0.00  -0.00    -0.00  -0.00  -0.00    -0.00   0.00   0.00
  23   1     0.00  -0.00   0.00     0.00  -0.00   0.00     0.00  -0.00   0.00
  24   1     0.00   0.00   0.00     0.00  -0.00   0.00     0.00  -0.00   0.00
  25   1     0.00   0.00   0.00     0.00   0.00   0.00    -0.00   0.00   0.00
  26   1     0.00  -0.00  -0.00    -0.00   0.00   0.00    -0.01   0.10   0.77
  27   1     0.00   0.00   0.00     0.00   0.00   0.00    -0.29  -0.05  -0.16
  28   1    -0.00  -0.00  -0.00    -0.00  -0.00  -0.00     0.35   0.06   0.20
  29   1    -0.00   0.00   0.00     0.00  -0.00  -0.00     0.00  -0.03  -0.20
  30   1     0.01  -0.00   0.01    -0.04   0.00  -0.04    -0.01   0.00  -0.00
  31   1    -0.22  -0.18   0.01     0.50   0.43  -0.03     0.02   0.01  -0.00
  32   1     0.02   0.46  -0.48    -0.01  -0.21   0.22     0.00   0.02  -0.02
  33   1     0.46  -0.02   0.42     0.44  -0.02   0.41    -0.01   0.00  -0.01
  34   1    -0.07  -0.07   0.01    -0.12  -0.11   0.01    -0.01  -0.01   0.00
                     88                     89                     90
                        a                      a                      a 
 Frequencies --  3111.9639              3112.3791              3123.8351
 Red. masses --     1.7871                 1.8825                 1.8630
 Frc consts  --     0.0000                 0.0000                 0.0000
 IR Inten    --    33.7929               128.8282               234.8750
 Raman Activ --     0.0000                 0.0000                 0.0000
 Depolar     --     0.0000                 0.0000                 0.0000
 Atom AN      X      Y      Z        X      Y      Z        X      Y      Z
   1   7     0.00   0.00  -0.00     0.00  -0.00   0.00    -0.00   0.00  -0.00
   2   6    -0.00  -0.00   0.00    -0.00  -0.00   0.00    -0.00   0.00   0.00
   3   6     0.00  -0.00  -0.00    -0.00  -0.00  -0.00     0.00  -0.00   0.00
   4   6     0.01   0.00  -0.00     0.00  -0.00  -0.00    -0.00  -0.00  -0.00
   5   6    -0.00  -0.02  -0.11    -0.00  -0.00  -0.02    -0.00   0.01   0.07
   6   6     0.04   0.01   0.02     0.01   0.00   0.01     0.15   0.02   0.08
   7   6     0.17   0.03   0.10     0.02   0.00   0.01     0.09   0.01   0.05
   8   6     0.00  -0.02  -0.11     0.00  -0.00  -0.02    -0.01   0.03   0.18
   9   6     0.00  -0.00  -0.00     0.00  -0.00  -0.00     0.00   0.00   0.00
  10   7     0.00   0.00   0.00     0.00   0.00  -0.00     0.00  -0.00   0.00
  11   7    -0.00   0.00  -0.00     0.00  -0.00   0.00    -0.00  -0.00  -0.00
  12   6    -0.00  -0.00   0.00    -0.00   0.00  -0.00     0.00   0.00  -0.00
  13   6     0.00   0.00   0.00    -0.01  -0.00  -0.01     0.01  -0.00   0.01
  14   6    -0.02  -0.02   0.00     0.14   0.12  -0.01    -0.00  -0.00  -0.00
  15   6    -0.00  -0.02   0.02     0.00   0.12  -0.13    -0.00  -0.01   0.01
  16   6     0.01  -0.00   0.01    -0.07   0.00  -0.06     0.01  -0.00   0.01
  17   6    -0.01  -0.01   0.00     0.05   0.04  -0.00     0.04   0.03  -0.00
  18  17    -0.00   0.00   0.00    -0.00  -0.00  -0.00     0.00   0.00  -0.00
  19   1    -0.00  -0.00   0.00    -0.00  -0.00   0.00    -0.00  -0.00   0.00
  20   1    -0.00  -0.00   0.00     0.00   0.00  -0.00    -0.00  -0.00   0.00
  21   1     0.00  -0.00   0.00    -0.00   0.00  -0.00     0.01  -0.00   0.00
  22   1     0.00   0.00  -0.00     0.00  -0.00  -0.00     0.00  -0.00  -0.00
  23   1     0.00  -0.00   0.00     0.00  -0.00   0.00     0.00   0.00  -0.00
  24   1    -0.00   0.00  -0.00    -0.00   0.00  -0.00    -0.00   0.00  -0.00
  25   1    -0.00   0.00   0.00    -0.00   0.00   0.00     0.00  -0.00  -0.00
  26   1    -0.00   0.06   0.40    -0.00   0.01   0.09     0.00  -0.03  -0.24
  27   1    -0.15  -0.02  -0.09    -0.04  -0.01  -0.03    -0.50  -0.08  -0.29
  28   1    -0.63  -0.11  -0.37    -0.09  -0.02  -0.05    -0.28  -0.05  -0.16
  29   1    -0.01   0.06   0.40    -0.00   0.01   0.07     0.01  -0.09  -0.61
  30   1    -0.01   0.00  -0.01     0.05  -0.00   0.04    -0.02   0.00  -0.02
  31   1     0.08   0.07  -0.00    -0.47  -0.40   0.03     0.01   0.01  -0.00
  32   1     0.00   0.07  -0.07    -0.01  -0.41   0.43     0.00   0.02  -0.02
  33   1    -0.04   0.00  -0.04     0.23  -0.01   0.21    -0.03   0.00  -0.03
  34   1     0.02   0.02  -0.00    -0.18  -0.15   0.01    -0.13  -0.11   0.01
                     91                     92                     93
                        a                      a                      a 
 Frequencies --  3126.5385              3128.1083              3155.5086
 Red. masses --     1.8605                 1.8644                 1.8156
 Frc consts  --     0.0000                 0.0000                 0.0000
 IR Inten    --    54.9556                12.8445                 8.3333
 Raman Activ --     0.0000                 0.0000                 0.0000
 Depolar     --     0.0000                 0.0000                 0.0000
 Atom AN      X      Y      Z        X      Y      Z        X      Y      Z
   1   7    -0.00  -0.00   0.00    -0.00  -0.00   0.00    -0.00   0.00   0.00
   2   6     0.00  -0.00  -0.00     0.00  -0.00  -0.00    -0.00   0.00   0.00
   3   6    -0.00   0.00  -0.00    -0.00   0.00  -0.00     0.00  -0.00   0.00
   4   6    -0.00   0.00   0.00    -0.01   0.00   0.00     0.00   0.00   0.00
   5   6     0.00   0.00   0.01    -0.00   0.01   0.09    -0.00  -0.00  -0.00
   6   6    -0.00  -0.00  -0.00     0.16   0.03   0.09     0.00   0.00   0.00
   7   6    -0.03  -0.01  -0.02    -0.07  -0.01  -0.04     0.00   0.00   0.00
   8   6     0.00  -0.01  -0.06     0.00  -0.02  -0.15    -0.00   0.00   0.01
   9   6     0.00   0.00  -0.00     0.01  -0.00  -0.00     0.00   0.00   0.00
  10   7     0.00  -0.00   0.00     0.00  -0.00   0.00     0.00  -0.00   0.00
  11   7    -0.00   0.00  -0.00    -0.00   0.00   0.00    -0.00   0.00  -0.00
  12   6     0.00   0.01  -0.00    -0.00  -0.00   0.00    -0.00   0.00  -0.01
  13   6     0.00  -0.00   0.00    -0.00   0.00  -0.00    -0.20   0.01  -0.18
  14   6    -0.02  -0.01   0.00    -0.00  -0.00   0.00    -0.02  -0.02   0.00
  15   6    -0.00  -0.03   0.03     0.00   0.00  -0.00     0.00  -0.00   0.00
  16   6     0.06  -0.00   0.06    -0.01   0.00  -0.01     0.00   0.00   0.00
  17   6     0.19   0.17  -0.01    -0.03  -0.03   0.00     0.00   0.00   0.00
  18  17     0.00   0.00   0.00    -0.00   0.00   0.00    -0.00  -0.00  -0.00
  19   1     0.00  -0.00  -0.00     0.00  -0.00  -0.00     0.01  -0.00  -0.01
  20   1     0.00   0.00  -0.00     0.00   0.00  -0.00    -0.00   0.00  -0.00
  21   1    -0.00  -0.00  -0.00     0.00  -0.00   0.00     0.01  -0.00   0.01
  22   1    -0.00   0.00   0.00    -0.00   0.00   0.00     0.00  -0.00  -0.00
  23   1    -0.00  -0.00   0.00     0.00   0.00   0.00     0.00   0.00  -0.00
  24   1     0.00  -0.00   0.00     0.00  -0.00   0.00    -0.00   0.00  -0.00
  25   1    -0.00  -0.00  -0.00     0.00  -0.00  -0.00    -0.00   0.00   0.00
  26   1     0.00  -0.00  -0.02     0.00  -0.04  -0.29    -0.00   0.00   0.00
  27   1     0.01   0.00   0.00    -0.57  -0.09  -0.33    -0.01  -0.00  -0.01
  28   1     0.10   0.02   0.06     0.25   0.04   0.14    -0.01  -0.00  -0.01
  29   1    -0.00   0.03   0.21    -0.01   0.08   0.53     0.00  -0.00  -0.02
  30   1    -0.01   0.00  -0.01     0.01  -0.00   0.01     0.71  -0.04   0.64
  31   1     0.06   0.05  -0.00     0.00   0.00  -0.00     0.06   0.05  -0.00
  32   1     0.00   0.09  -0.10    -0.00  -0.01   0.01    -0.00   0.01  -0.01
  33   1    -0.18   0.01  -0.17     0.03  -0.00   0.03     0.00  -0.00   0.00
  34   1    -0.66  -0.58   0.04     0.11   0.10  -0.01    -0.01  -0.01  -0.00
                     94                     95                     96
                        a                      a                      a 
 Frequencies --  3176.1211              3206.8780              3239.5401
 Red. masses --     2.0184                 1.8840                 1.5051
 Frc consts  --     0.0000                 0.0000                 0.0000
 IR Inten    --   400.9959               141.9291               107.5750
 Raman Activ --     0.0000                 0.0000                 0.0000
 Depolar     --     0.0000                 0.0000                 0.0000
 Atom AN      X      Y      Z        X      Y      Z        X      Y      Z
   1   7    -0.26   0.02   0.11     0.10  -0.12   0.21     0.05   0.19  -0.03
   2   6    -0.01   0.00   0.01     0.00  -0.00   0.01     0.00   0.00   0.00
   3   6    -0.00   0.00   0.00     0.00   0.00   0.00    -0.00  -0.00   0.00
   4   6     0.00   0.00  -0.00     0.00   0.00  -0.00     0.00  -0.00  -0.00
   5   6    -0.00  -0.00  -0.00    -0.00   0.00   0.00    -0.00   0.00   0.00
   6   6    -0.00  -0.00  -0.00     0.00   0.00   0.00     0.00   0.00   0.00
   7   6     0.00   0.00   0.00     0.00   0.00   0.00    -0.00  -0.00  -0.00
   8   6    -0.00   0.00   0.00     0.00   0.00   0.00    -0.00  -0.00  -0.00
   9   6    -0.00  -0.00   0.00    -0.00  -0.00  -0.00     0.00  -0.00  -0.00
  10   7    -0.00   0.00  -0.00     0.00  -0.00   0.00     0.00  -0.00   0.00
  11   7     0.00  -0.00   0.00     0.00   0.00   0.00    -0.00   0.00  -0.00
  12   6     0.00  -0.00   0.00    -0.00  -0.00  -0.00     0.00  -0.00  -0.00
  13   6     0.00  -0.00   0.00    -0.00   0.00  -0.00    -0.00   0.00  -0.00
  14   6     0.00   0.00   0.00    -0.00  -0.00   0.00     0.00   0.00   0.00
  15   6     0.00   0.00  -0.00    -0.00  -0.00   0.00     0.00   0.00  -0.00
  16   6    -0.00   0.00  -0.00    -0.00   0.00  -0.00     0.00   0.00   0.00
  17   6    -0.00  -0.00   0.00     0.00  -0.00   0.00     0.00   0.00  -0.00
  18  17     0.00  -0.00  -0.00     0.00  -0.00  -0.00     0.00  -0.00  -0.00
  19   1     0.71  -0.13  -0.53     0.21  -0.05  -0.13     0.21  -0.02  -0.16
  20   1     0.01   0.14  -0.07     0.08   0.28  -0.15    -0.18  -0.77   0.43
  21   1     0.23  -0.08   0.19    -0.69   0.21  -0.50    -0.22   0.08  -0.17
  22   1     0.02  -0.00  -0.02     0.01  -0.00  -0.01     0.01  -0.00  -0.01
  23   1     0.01  -0.00   0.00    -0.02   0.01  -0.02    -0.01   0.00  -0.00
  24   1    -0.00   0.00   0.00    -0.00   0.00  -0.00     0.00  -0.00   0.00
  25   1    -0.00  -0.00  -0.00    -0.00  -0.00  -0.00    -0.00  -0.00  -0.00
  26   1     0.00   0.00   0.01    -0.00  -0.00  -0.00     0.00  -0.00  -0.00
  27   1     0.00   0.00   0.00    -0.00  -0.00  -0.00    -0.00  -0.00  -0.00
  28   1    -0.00  -0.00  -0.00    -0.01  -0.00  -0.01     0.00   0.00   0.00
  29   1    -0.00  -0.00  -0.00    -0.00  -0.00  -0.00    -0.00   0.00   0.00
  30   1    -0.01  -0.00  -0.01     0.00  -0.00   0.00     0.00  -0.00   0.00
  31   1     0.00   0.00  -0.00     0.00   0.00  -0.00    -0.00  -0.00  -0.00
  32   1    -0.00  -0.00   0.00     0.00   0.00  -0.00    -0.00  -0.00   0.00
  33   1     0.00  -0.00   0.00     0.00   0.00   0.00    -0.00  -0.00  -0.00
  34   1     0.00   0.00   0.00     0.00   0.00  -0.00    -0.00  -0.00   0.00
