      -----------------------------------------------------------      
     |                   =====================                   |     
     |                           x T B                           |     
     |                   =====================                   |     
     |                         S. Grimme                         |     
     |          Mulliken Center for Theoretical Chemistry        |     
     |                    University of Bonn                     |     
      -----------------------------------------------------------      

   * xtb version 6.5.1 (fef0646) compiled by 'conda@b96dff2e9fd6' on 2023-01-04

   xtb is free software: you can redistribute it and/or modify it under
   the terms of the GNU Lesser General Public License as published by
   the Free Software Foundation, either version 3 of the License, or
   (at your option) any later version.
   
   xtb is distributed in the hope that it will be useful,
   but WITHOUT ANY WARRANTY; without even the implied warranty of
   MERCHANTABILITY or FITNESS FOR A PARTICULAR PURPOSE.  See the
   GNU Lesser General Public License for more details.
   
   Cite this work as:
   * C. Bannwarth, E. Caldeweyher, S. Ehlert, A. Hansen, P. Pracht,
     J. Seibert, S. Spicher, S. Grimme, WIREs Comput. Mol. Sci., 2020, 11,
     e01493. DOI: 10.1002/wcms.1493
   
   for GFN2-xTB:
   * C. Bannwarth, S. Ehlert and S. Grimme., J. Chem. Theory Comput., 2019,
     15, 1652-1671. DOI: 10.1021/acs.jctc.8b01176
   for GFN1-xTB:
   * S. Grimme, C. Bannwarth, P. Shushkov, J. Chem. Theory Comput., 2017,
     13, 1989-2009. DOI: 10.1021/acs.jctc.7b00118
   for GFN0-xTB:
   * P. Pracht, E. Caldeweyher, S. Ehlert, S. Grimme, ChemRxiv, 2019, preprint.
     DOI: 10.26434/chemrxiv.8326202.v1
   for GFN-FF:
   * S. Spicher and S. Grimme, Angew. Chem. Int. Ed., 2020, 59, 15665-15673.
     DOI: 10.1002/anie.202004239
   
   for ALPB and GBSA implicit solvation:
   * S. Ehlert, M. Stahn, S. Spicher, S. Grimme, J. Chem. Theory Comput.,
     2021, 17, 4250-4261. DOI: 10.1021/acs.jctc.1c00471
   
   for DFT-D4:
   * E. Caldeweyher, C. Bannwarth and S. Grimme, J. Chem. Phys., 2017,
     147, 034112. DOI: 10.1063/1.4993215
   * E. Caldeweyher, S. Ehlert, A. Hansen, H. Neugebauer, S. Spicher,
     C. Bannwarth and S. Grimme, J. Chem. Phys., 2019, 150, 154122.
     DOI: 10.1063/1.5090222
   * E. Caldeweyher, J.-M. Mewes, S. Ehlert and S. Grimme, Phys. Chem. Chem. Phys.
     2020, 22, 8499-8512. DOI: 10.1039/D0CP00502A
   
   for sTDA-xTB:
   * S. Grimme and C. Bannwarth, J. Chem. Phys., 2016, 145, 054103.
     DOI: 10.1063/1.4959605
   
   in the mass-spec context:
   * V. Asgeirsson, C. Bauer and S. Grimme, Chem. Sci., 2017, 8, 4879.
     DOI: 10.1039/c7sc00601b
   * J. Koopman and S. Grimme, ACS Omega 2019, 4, 12, 15120-15133.
     DOI: 10.1021/acsomega.9b02011
   
   for metadynamics refer to:
   * S. Grimme, J. Chem. Theory Comput., 2019, 155, 2847-2862
     DOI: 10.1021/acs.jctc.9b00143
   
   for SPH calculations refer to:
   * S. Spicher and S. Grimme, J. Chem. Theory Comput., 2021, 17, 1701-1714
     DOI: 10.1021/acs.jctc.0c01306
   
   with help from (in alphabetical order)
   P. Atkinson, C. Bannwarth, F. Bohle, G. Brandenburg, E. Caldeweyher
   M. Checinski, S. Dohm, S. Ehlert, S. Ehrlich, I. Gerasimov, C. Hölzer
   A. Katbashev, J. Koopman, C. Lavigne, S. Lehtola, F. März, M. Müller,
   F. Musil, H. Neugebauer, J. Pisarek, C. Plett, P. Pracht, F. Pultar,
   J. Seibert, P. Shushkov, S. Spicher, M. Stahn, M. Steiner, T. Strunk,
   J. Stückrath, T. Rose, and J. Unsleber
   
 * started run on 2023/01/23 at 21:09:44.534     

           -------------------------------------------------
          |                Calculation Setup                |
           -------------------------------------------------

          program call               : xtb init.xyz --opt -c 0 -u 0 -P 16 --input xtb.inp
          hostname                   : gpg-woodward
          coordinate file            : init.xyz
          omp threads                :                    16

   ID    Z sym.   atoms
    1    7 N      1
    2    6 C      2-13
    3   17 Cl     14
    4    1 H      15-28

molecular fragmentation (1/2 indicates fragments):
1111111111111211111111111111
# atoms in fragment 1/2:    27     1
 fragment masses (1/2) :      172.25       35.45
CMA distance (Bohr)    :  11.368
constraining FC (au)   :  0.0500

           -------------------------------------------------
          |                 G F N 2 - x T B                 |
           -------------------------------------------------

        Reference                      10.1021/acs.jctc.8b01176
      * Hamiltonian:
        H0-scaling (s, p, d)           1.850000    2.230000    2.230000
        zeta-weighting                 0.500000
      * Dispersion:
        s8                             2.700000
        a1                             0.520000
        a2                             5.000000
        s9                             5.000000
      * Repulsion:
        kExp                           1.500000    1.000000
        rExp                           1.000000
      * Coulomb:
        alpha                          2.000000
        third order                    shell-resolved
        anisotropic                    true
        a3                             3.000000
        a5                             4.000000
        cn-shift                       1.200000
        cn-exp                         4.000000
        max-rad                        5.000000


          ...................................................
          :                      SETUP                      :
          :.................................................:
          :  # basis functions                  76          :
          :  # atomic orbitals                  75          :
          :  # shells                           43          :
          :  # electrons                        74          :
          :  max. iterations                   250          :
          :  Hamiltonian                  GFN2-xTB          :
          :  restarted?                      false          :
          :  GBSA solvation                  false          :
          :  PC potential                    false          :
          :  electronic temp.          300.0000000     K    :
          :  accuracy                    1.0000000          :
          :  -> integral cutoff          0.2500000E+02      :
          :  -> integral neglect         0.1000000E-07      :
          :  -> SCF convergence          0.1000000E-05 Eh   :
          :  -> wf. convergence          0.1000000E-03 e    :
          :  Broyden damping             0.4000000          :
          ...................................................

 iter      E             dE          RMSdq      gap      omega  full diag
   1    -40.7461769 -0.407462E+02  0.453E+00    2.92       0.0  T
   2    -40.8680432 -0.121866E+00  0.264E+00    2.05       1.0  T
   3    -40.8703307 -0.228756E-02  0.125E+00    1.11       1.0  T
   4    -40.8666508  0.367993E-02  0.589E-01    0.92       1.0  T
   5    -40.8748667 -0.821591E-02  0.241E-01    0.84       1.0  T
   6    -40.8751294 -0.262648E-03  0.168E-01    0.87       1.0  T
   7    -40.8753306 -0.201272E-03  0.915E-02    0.87       1.0  T
   8    -40.8753941 -0.634597E-04  0.507E-02    0.87       1.0  T
   9    -40.8754367 -0.426198E-04  0.240E-02    0.87       1.0  T
  10    -40.8754411 -0.442004E-05  0.102E-02    0.87       1.9  T
  11    -40.8754422 -0.104981E-05  0.221E-03    0.87       8.5  T
  12    -40.8754422 -0.210269E-07  0.118E-03    0.87      16.0  T
  13    -40.8754422 -0.143442E-07  0.413E-04    0.87      45.8  T
  14    -40.8754422 -0.166940E-08  0.166E-04    0.87     114.1  T

   *** convergence criteria satisfied after 14 iterations ***

         #    Occupation            Energy/Eh            Energy/eV
      -------------------------------------------------------------
         1        2.0000           -0.9312517             -25.3406
       ...           ...                  ...                  ...
        31        2.0000           -0.4456498             -12.1267
        32        2.0000           -0.4412649             -12.0074
        33        2.0000           -0.4296486             -11.6913
        34        2.0000           -0.4012713             -10.9191
        35        2.0000           -0.3327531              -9.0547
        36        2.0000           -0.3275996              -8.9144
        37        2.0000           -0.3268585              -8.8943 (HOMO)
        38        0.0000           -0.2949640              -8.0264 (LUMO)
        39                         -0.2585041              -7.0343
        40                         -0.2191493              -5.9634
        41                         -0.1842394              -5.0134
        42                         -0.0908962              -2.4734
       ...                                ...                  ...
        75                          0.6650828              18.0978
      -------------------------------------------------------------
                  HL-Gap            0.0318945 Eh            0.8679 eV
             Fermi-level           -0.3107314 Eh           -8.4554 eV

 SCC (total)                   0 d,  0 h,  0 min,  0.131 sec
 SCC setup                      ...        0 min,  0.001 sec (  0.524%)
 Dispersion                     ...        0 min,  0.001 sec (  0.664%)
 classical contributions        ...        0 min,  0.000 sec (  0.265%)
 integral evaluation            ...        0 min,  0.004 sec (  3.114%)
 iterations                     ...        0 min,  0.116 sec ( 88.689%)
 molecular gradient             ...        0 min,  0.008 sec (  6.003%)
 printout                       ...        0 min,  0.001 sec (  0.623%)

         :::::::::::::::::::::::::::::::::::::::::::::::::::::
         ::                     SUMMARY                     ::
         :::::::::::::::::::::::::::::::::::::::::::::::::::::
         :: total energy             -40.261682266994 Eh    ::
         :: gradient norm              0.083628567541 Eh/a0 ::
         :: HOMO-LUMO gap              0.867894763588 eV    ::
         ::.................................................::
         :: SCC energy               -40.875442218281 Eh    ::
         :: -> isotropic ES            0.108501437639 Eh    ::
         :: -> anisotropic ES         -0.022551719305 Eh    ::
         :: -> anisotropic XC          0.015331052257 Eh    ::
         :: -> dispersion             -0.025564369752 Eh    ::
         :: repulsion energy           0.613676977285 Eh    ::
         :: add. restraining           0.000000000000 Eh    ::
         :: total charge               0.000000000550 e     ::
         :::::::::::::::::::::::::::::::::::::::::::::::::::::

      ----------------------------------------------------------- 
     |                   =====================                   |
     |                        A N C O P T                        |
     |                   =====================                   |
     |               Approximate Normal Coordinate               |
     |                Rational Function Optimizer                |
      ----------------------------------------------------------- 

          ...................................................
          :                      SETUP                      :
          :.................................................:
          :   optimization level            normal          :
          :   max. optcycles                   200          :
          :   ANC micro-cycles                  20          :
          :   degrees of freedom                78          :
          :.................................................:
          :   RF solver                   davidson          :
          :   write xtbopt.log                true          :
          :   linear?                        false          :
          :   energy convergence         0.5000000E-05 Eh   :
          :   grad. convergence          0.1000000E-02 Eh/α :
          :   maximium RF displ.         1.0000000          :
          :   Hlow (freq-cutoff)         0.1000000E-01      :
          :   Hmax (freq-cutoff)         5.0000000          :
          :   S6 in model hess.         20.0000000          :
          ...................................................

generating ANC from model Hessian ...
Using Lindh-Hessian (1995)
 Shifting diagonal of input Hessian by    1.3805106201231921E-002
 Lowest  eigenvalues of input Hessian
    0.010000    0.000000    0.000000    0.000000    0.000000    0.000000
    0.000000    0.014078    0.014200    0.015071    0.015312    0.017549
    0.019755    0.020696    0.023436    0.024434    0.026815    0.027526
 Highest eigenvalues
    1.761123    1.787612    1.801532    1.902787    2.007341    2.096390


........................................................................
.............................. CYCLE    1 ..............................
........................................................................
   1    -40.8754422 -0.408754E+02  0.103E-04    0.87       0.0  T
   2    -40.8754422 -0.383409E-10  0.771E-05    0.87     245.0  T
   3    -40.8754422 -0.672884E-11  0.590E-05    0.87     320.4  T
     SCC iter.                  ...        0 min,  0.010 sec
     gradient                   ...        0 min,  0.005 sec
 * total energy  :   -40.2616823 Eh     change       -0.1738343E-09 Eh
   gradient norm :     0.0836286 Eh/α   predicted     0.0000000E+00 (-100.00%)
   displ. norm   :     0.6548799 α      lambda       -0.1865978E-01
   maximum displ.:     0.5935715 α      in ANC's #1, #2, #4, ...

........................................................................
.............................. CYCLE    2 ..............................
........................................................................
   1    -40.8972552 -0.408973E+02  0.401E-01    1.44       0.0  T
   2    -40.8976523 -0.397027E-03  0.235E-01    1.56       1.0  T
   3    -40.8975654  0.868207E-04  0.926E-02    1.66       1.0  T
   4    -40.8976937 -0.128261E-03  0.321E-02    1.69       1.0  T
   5    -40.8977164 -0.227086E-04  0.104E-02    1.69       1.8  T
   6    -40.8977175 -0.107063E-05  0.641E-03    1.68       2.9  T
   7    -40.8977176 -0.129381E-06  0.455E-03    1.68       4.1  T
   8    -40.8977178 -0.190797E-06  0.306E-03    1.68       6.2  T
   9    -40.8977179 -0.760625E-07  0.164E-03    1.68      11.5  T
  10    -40.8977179 -0.313733E-07  0.602E-04    1.68      31.4  T
  11    -40.8977179 -0.255990E-08  0.228E-04    1.68      82.8  T
     SCC iter.                  ...        0 min,  0.032 sec
     gradient                   ...        0 min,  0.004 sec
 * total energy  :   -40.2682900 Eh     change       -0.6607734E-02 Eh
   gradient norm :     0.0458394 Eh/α   predicted    -0.1334488E-01 ( 101.96%)
   displ. norm   :     0.3730987 α      lambda       -0.1066054E-01
   maximum displ.:     0.3017029 α      in ANC's #1, #16, #5, ...

........................................................................
.............................. CYCLE    3 ..............................
........................................................................
   1    -40.9193351 -0.409193E+02  0.257E-01    1.56       0.0  T
   2    -40.9194288 -0.937397E-04  0.151E-01    1.48       1.0  T
   3    -40.9194041  0.247609E-04  0.459E-02    1.40       1.0  T
   4    -40.9194441 -0.400375E-04  0.198E-02    1.40       1.0  T
   5    -40.9194494 -0.529131E-05  0.111E-02    1.40       1.7  T
   6    -40.9194503 -0.871445E-06  0.757E-03    1.40       2.5  T
   7    -40.9194506 -0.343247E-06  0.491E-03    1.40       3.8  T
   8    -40.9194508 -0.195263E-06  0.306E-03    1.40       6.2  T
   9    -40.9194509 -0.949977E-07  0.105E-03    1.40      18.0  T
  10    -40.9194509 -0.121781E-07  0.316E-04    1.40      59.8  T
  11    -40.9194509 -0.697952E-09  0.122E-04    1.40     155.0  T
     SCC iter.                  ...        0 min,  0.030 sec
     gradient                   ...        0 min,  0.005 sec
 * total energy  :   -40.2717817 Eh     change       -0.3491658E-02 Eh
   gradient norm :     0.0211604 Eh/α   predicted    -0.6072262E-02 (  73.91%)
   displ. norm   :     0.1908492 α      lambda       -0.1702931E-02
   maximum displ.:     0.1080099 α      in ANC's #2, #3, #5, ...

........................................................................
.............................. CYCLE    4 ..............................
........................................................................
   1    -40.9136698 -0.409137E+02  0.743E-02    1.43       0.0  T
   2    -40.9136879 -0.180468E-04  0.434E-02    1.45       1.0  T
   3    -40.9136853  0.260300E-05  0.195E-02    1.46       1.0  T
   4    -40.9136892 -0.392098E-05  0.936E-03    1.47       2.0  T
   5    -40.9136907 -0.150672E-05  0.379E-03    1.47       5.0  T
   6    -40.9136908 -0.113832E-06  0.271E-03    1.47       7.0  T
   7    -40.9136909 -0.463752E-07  0.164E-03    1.47      11.5  T
   8    -40.9136909 -0.203159E-07  0.967E-04    1.47      19.5  T
   9    -40.9136909 -0.953262E-08  0.212E-04    1.47      89.3  T
     SCC iter.                  ...        0 min,  0.024 sec
     gradient                   ...        0 min,  0.005 sec
 * total energy  :   -40.2732247 Eh     change       -0.1443053E-02 Eh
   gradient norm :     0.0112392 Eh/α   predicted    -0.8824875E-03 ( -38.85%)
   displ. norm   :     0.6840582 α      lambda       -0.4301883E-02
   maximum displ.:     0.4200153 α      in ANC's #2, #3, #5, ...

........................................................................
.............................. CYCLE    5 ..............................
........................................................................
   1    -40.9049788 -0.409050E+02  0.273E-01    1.59       0.0  T
   2    -40.9054169 -0.438063E-03  0.156E-01    1.68       1.0  T
   3    -40.9054063  0.105775E-04  0.807E-02    1.74       1.0  T
   4    -40.9054313 -0.249773E-04  0.456E-02    1.78       1.0  T
   5    -40.9054707 -0.394874E-04  0.172E-02    1.79       1.1  T
   6    -40.9054726 -0.184023E-05  0.130E-02    1.79       1.5  T
   7    -40.9054738 -0.119777E-05  0.760E-03    1.79       2.5  T
   8    -40.9054742 -0.409379E-06  0.438E-03    1.79       4.3  T
   9    -40.9054744 -0.220410E-06  0.958E-04    1.79      19.7  T
  10    -40.9054744 -0.115722E-07  0.470E-04    1.79      40.2  T
     SCC iter.                  ...        0 min,  0.026 sec
     gradient                   ...        0 min,  0.005 sec
 * total energy  :   -40.2773728 Eh     change       -0.4148042E-02 Eh
   gradient norm :     0.0291727 Eh/α   predicted    -0.3157472E-02 ( -23.88%)
   displ. norm   :     0.9200268 α      lambda       -0.6118813E-02
   maximum displ.:     0.5681576 α      in ANC's #2, #3, #5, ...

........................................................................
.............................. CYCLE    6 ..............................
........................................................................
   1    -40.8904533 -0.408905E+02  0.482E-01    1.91       0.0  T
   2    -40.8918530 -0.139973E-02  0.281E-01    2.09       1.0  T
   3    -40.8919105 -0.574905E-04  0.151E-01    2.24       1.0  T
   4    -40.8919559 -0.453542E-04  0.107E-01    2.32       1.0  T
   5    -40.8921248 -0.168898E-03  0.646E-02    2.34       1.0  T
   6    -40.8921454 -0.206366E-04  0.481E-02    2.34       1.0  T
   7    -40.8921736 -0.282118E-04  0.184E-02    2.33       1.0  T
   8    -40.8921765 -0.287598E-05  0.962E-03    2.33       2.0  T
   9    -40.8921779 -0.142605E-05  0.307E-03    2.33       6.2  T
  10    -40.8921780 -0.779905E-07  0.221E-03    2.33       8.5  T
  11    -40.8921780 -0.365689E-07  0.151E-03    2.33      12.5  T
  12    -40.8921781 -0.189161E-07  0.856E-04    2.33      22.1  T
  13    -40.8921781 -0.796069E-08  0.384E-04    2.33      49.2  T
     SCC iter.                  ...        0 min,  0.034 sec
     gradient                   ...        0 min,  0.005 sec
 * total energy  :   -40.2814145 Eh     change       -0.4041756E-02 Eh
   gradient norm :     0.0587201 Eh/α   predicted    -0.5649053E-02 (  39.77%)
   displ. norm   :     0.3553094 α      lambda       -0.4127651E-02
   maximum displ.:     0.1925104 α      in ANC's #2, #3, #5, ...

........................................................................
.............................. CYCLE    7 ..............................
........................................................................
   1    -40.8968326 -0.408968E+02  0.180E-01    2.35       0.0  T
   2    -40.8969838 -0.151124E-03  0.105E-01    2.42       1.0  T
   3    -40.8969830  0.770188E-06  0.492E-02    2.49       1.0  T
   4    -40.8969933 -0.102985E-04  0.325E-02    2.51       1.0  T
   5    -40.8970109 -0.176486E-04  0.190E-02    2.52       1.0  T
   6    -40.8970128 -0.185253E-05  0.144E-02    2.52       1.3  T
   7    -40.8970151 -0.225653E-05  0.581E-03    2.52       3.3  T
   8    -40.8970154 -0.328484E-06  0.298E-03    2.52       6.3  T
   9    -40.8970155 -0.941776E-07  0.116E-03    2.52      16.3  T
  10    -40.8970155 -0.116002E-07  0.799E-04    2.52      23.7  T
  11    -40.8970155 -0.431281E-08  0.565E-04    2.52      33.4  T
     SCC iter.                  ...        0 min,  0.028 sec
     gradient                   ...        0 min,  0.005 sec
 * total energy  :   -40.2848463 Eh     change       -0.3431746E-02 Eh
   gradient norm :     0.0537550 Eh/α   predicted    -0.2324400E-02 ( -32.27%)
   displ. norm   :     0.3831778 α      lambda       -0.8574176E-02
   maximum displ.:     0.1626395 α      in ANC's #12, #3, #32, ...

........................................................................
.............................. CYCLE    8 ..............................
........................................................................
   1    -40.9258288 -0.409258E+02  0.245E-01    2.60       0.0  T
   2    -40.9261054 -0.276577E-03  0.143E-01    2.70       1.0  T
   3    -40.9261124 -0.694488E-05  0.524E-02    2.80       1.0  T
   4    -40.9261297 -0.173883E-04  0.265E-02    2.83       1.0  T
   5    -40.9261402 -0.104501E-04  0.151E-02    2.84       1.3  T
   6    -40.9261417 -0.149987E-05  0.112E-02    2.84       1.7  T
   7    -40.9261427 -0.101212E-05  0.725E-03    2.84       2.6  T
   8    -40.9261433 -0.593781E-06  0.460E-03    2.84       4.1  T
   9    -40.9261436 -0.289170E-06  0.173E-03    2.84      10.9  T
  10    -40.9261436 -0.529924E-07  0.663E-04    2.84      28.5  T
  11    -40.9261436 -0.321976E-08  0.382E-04    2.84      49.5  T
     SCC iter.                  ...        0 min,  0.028 sec
     gradient                   ...        0 min,  0.005 sec
 * total energy  :   -40.2903336 Eh     change       -0.5487390E-02 Eh
   gradient norm :     0.0303978 Eh/α   predicted    -0.4916542E-02 ( -10.40%)
   displ. norm   :     0.4363067 α      lambda       -0.4029047E-02
   maximum displ.:     0.2079372 α      in ANC's #3, #12, #5, ...

........................................................................
.............................. CYCLE    9 ..............................
........................................................................
   1    -40.9261493 -0.409261E+02  0.194E-01    2.81       0.0  T
   2    -40.9262232 -0.738500E-04  0.116E-01    2.86       1.0  T
   3    -40.9262135  0.963823E-05  0.405E-02    2.91       1.0  T
   4    -40.9262361 -0.225904E-04  0.224E-02    2.92       1.0  T
   5    -40.9262423 -0.617563E-05  0.138E-02    2.92       1.4  T
   6    -40.9262435 -0.122182E-05  0.934E-03    2.92       2.0  T
   7    -40.9262441 -0.588074E-06  0.585E-03    2.91       3.2  T
   8    -40.9262443 -0.230286E-06  0.311E-03    2.91       6.1  T
   9    -40.9262444 -0.105099E-06  0.707E-04    2.91      26.7  T
  10    -40.9262444 -0.106938E-07  0.273E-04    2.91      69.3  T
     SCC iter.                  ...        0 min,  0.025 sec
     gradient                   ...        0 min,  0.004 sec
 * total energy  :   -40.2928262 Eh     change       -0.2492575E-02 Eh
   gradient norm :     0.0253159 Eh/α   predicted    -0.2398018E-02 (  -3.79%)
   displ. norm   :     0.3583382 α      lambda       -0.3172010E-02
   maximum displ.:     0.2015412 α      in ANC's #12, #6, #16, ...

........................................................................
.............................. CYCLE   10 ..............................
........................................................................
   1    -40.9325495 -0.409325E+02  0.214E-01    2.97       0.0  T
   2    -40.9327522 -0.202630E-03  0.124E-01    3.08       1.0  T
   3    -40.9327766 -0.244015E-04  0.508E-02    3.19       1.0  T
   4    -40.9327853 -0.871271E-05  0.319E-02    3.22       1.0  T
   5    -40.9327930 -0.775806E-05  0.243E-02    3.23       1.0  T
   6    -40.9327982 -0.512349E-05  0.157E-02    3.23       1.2  T
   7    -40.9328021 -0.396492E-05  0.696E-03    3.23       2.7  T
   8    -40.9328026 -0.511176E-06  0.353E-03    3.23       5.3  T
   9    -40.9328029 -0.250745E-06  0.185E-03    3.23      10.2  T
  10    -40.9328029 -0.239762E-07  0.137E-03    3.23      13.8  T
  11    -40.9328029 -0.142532E-07  0.907E-04    3.23      20.8  T
  12    -40.9328029 -0.781835E-08  0.359E-04    3.23      52.7  T
     SCC iter.                  ...        0 min,  0.030 sec
     gradient                   ...        0 min,  0.005 sec
 * total energy  :   -40.2946141 Eh     change       -0.1787922E-02 Eh
   gradient norm :     0.0284012 Eh/α   predicted    -0.1789660E-02 (   0.10%)
   displ. norm   :     0.2392498 α      lambda       -0.1993829E-02
   maximum displ.:     0.1526127 α      in ANC's #5, #10, #6, ...

........................................................................
.............................. CYCLE   11 ..............................
........................................................................
   1    -40.9316632 -0.409317E+02  0.113E-01    3.21       0.0  T
   2    -40.9316933 -0.301413E-04  0.635E-02    3.22       1.0  T
   3    -40.9316956 -0.228545E-05  0.177E-02    3.22       1.1  T
   4    -40.9316961 -0.447247E-06  0.770E-03    3.22       2.5  T
   5    -40.9316965 -0.438307E-06  0.563E-03    3.22       3.4  T
   6    -40.9316967 -0.164217E-06  0.367E-03    3.22       5.1  T
   7    -40.9316968 -0.118851E-06  0.230E-03    3.22       8.2  T
   8    -40.9316968 -0.447420E-07  0.100E-03    3.22      18.9  T
   9    -40.9316968 -0.106722E-07  0.351E-04    3.22      53.8  T
  10    -40.9316968 -0.159243E-08  0.172E-04    3.22     110.1  T
     SCC iter.                  ...        0 min,  0.025 sec
     gradient                   ...        0 min,  0.005 sec
 * total energy  :   -40.2958430 Eh     change       -0.1228873E-02 Eh
   gradient norm :     0.0184555 Eh/α   predicted    -0.1054015E-02 ( -14.23%)
   displ. norm   :     0.2987424 α      lambda       -0.1287886E-02
   maximum displ.:     0.1702656 α      in ANC's #5, #12, #4, ...

........................................................................
.............................. CYCLE   12 ..............................
........................................................................
   1    -40.9262117 -0.409262E+02  0.132E-01    3.19       0.0  T
   2    -40.9262682 -0.564417E-04  0.788E-02    3.19       1.0  T
   3    -40.9262730 -0.478061E-05  0.330E-02    3.19       1.0  T
   4    -40.9262756 -0.261409E-05  0.238E-02    3.19       1.0  T
   5    -40.9262830 -0.746957E-05  0.158E-02    3.19       1.2  T
   6    -40.9262848 -0.178769E-05  0.113E-02    3.19       1.7  T
   7    -40.9262869 -0.210197E-05  0.472E-03    3.19       4.0  T
   8    -40.9262872 -0.266715E-06  0.263E-03    3.19       7.2  T
   9    -40.9262873 -0.108716E-06  0.132E-03    3.19      14.3  T
  10    -40.9262873 -0.120220E-07  0.941E-04    3.19      20.1  T
  11    -40.9262873 -0.716185E-08  0.577E-04    3.19      32.8  T
     SCC iter.                  ...        0 min,  0.027 sec
     gradient                   ...        0 min,  0.004 sec
 * total energy  :   -40.2965414 Eh     change       -0.6983349E-03 Eh
   gradient norm :     0.0132195 Eh/α   predicted    -0.7014164E-03 (   0.44%)
   displ. norm   :     0.1281901 α      lambda       -0.5205111E-03
   maximum displ.:     0.0668969 α      in ANC's #5, #10, #8, ...

........................................................................
.............................. CYCLE   13 ..............................
........................................................................
   1    -40.9272495 -0.409272E+02  0.526E-02    3.19       0.0  T
   2    -40.9272509 -0.139440E-05  0.321E-02    3.19       1.0  T
   3    -40.9272497  0.117644E-05  0.107E-02    3.19       1.8  T
   4    -40.9272521 -0.238220E-05  0.586E-03    3.19       3.2  T
   5    -40.9272523 -0.185292E-06  0.446E-03    3.19       4.2  T
   6    -40.9272525 -0.203652E-06  0.230E-03    3.19       8.2  T
   7    -40.9272525 -0.567374E-07  0.142E-03    3.19      13.3  T
   8    -40.9272526 -0.256022E-07  0.662E-04    3.19      28.5  T
   9    -40.9272526 -0.429702E-08  0.446E-04    3.19      42.4  T
     SCC iter.                  ...        0 min,  0.022 sec
     gradient                   ...        0 min,  0.004 sec
 * total energy  :   -40.2968961 Eh     change       -0.3547063E-03 Eh
   gradient norm :     0.0100476 Eh/α   predicted    -0.2645334E-03 ( -25.42%)
   displ. norm   :     0.1529536 α      lambda       -0.3754213E-03
   maximum displ.:     0.0873599 α      in ANC's #5, #10, #8, ...

........................................................................
.............................. CYCLE   14 ..............................
........................................................................
   1    -40.9301772 -0.409302E+02  0.538E-02    3.21       0.0  T
   2    -40.9301793 -0.208406E-05  0.314E-02    3.21       1.0  T
   3    -40.9301784  0.864066E-06  0.863E-03    3.21       2.2  T
   4    -40.9301798 -0.142795E-05  0.421E-03    3.21       4.5  T
   5    -40.9301800 -0.157402E-06  0.299E-03    3.21       6.3  T
   6    -40.9301800 -0.417463E-07  0.217E-03    3.21       8.7  T
   7    -40.9301801 -0.420374E-07  0.101E-03    3.21      18.7  T
   8    -40.9301801 -0.139370E-07  0.453E-04    3.21      41.8  T
   9    -40.9301801 -0.137654E-08  0.185E-04    3.21     102.1  T
     SCC iter.                  ...        0 min,  0.022 sec
     gradient                   ...        0 min,  0.004 sec
 * total energy  :   -40.2971586 Eh     change       -0.2625292E-03 Eh
   gradient norm :     0.0074049 Eh/α   predicted    -0.1921089E-03 ( -26.82%)
   displ. norm   :     0.1587960 α      lambda       -0.2562595E-03
   maximum displ.:     0.0945397 α      in ANC's #5, #2, #8, ...

........................................................................
.............................. CYCLE   15 ..............................
........................................................................
   1    -40.9315675 -0.409316E+02  0.464E-02    3.23       0.0  T
   2    -40.9315686 -0.106570E-05  0.270E-02    3.23       1.0  T
   3    -40.9315679  0.669740E-06  0.594E-03    3.22       3.2  T
   4    -40.9315688 -0.890883E-06  0.211E-03    3.22       9.0  T
   5    -40.9315689 -0.637363E-07  0.123E-03    3.22      15.3  T
   6    -40.9315689 -0.104828E-07  0.801E-04    3.22      23.6  T
   7    -40.9315689 -0.325519E-08  0.552E-04    3.22      34.3  T
     SCC iter.                  ...        0 min,  0.023 sec
     gradient                   ...        0 min,  0.004 sec
 * total energy  :   -40.2973453 Eh     change       -0.1867504E-03 Eh
   gradient norm :     0.0067392 Eh/α   predicted    -0.1313614E-03 ( -29.66%)
   displ. norm   :     0.2042527 α      lambda       -0.2724259E-03
   maximum displ.:     0.1149854 α      in ANC's #5, #2, #4, ...

........................................................................
.............................. CYCLE   16 ..............................
........................................................................
   1    -40.9329848 -0.409330E+02  0.542E-02    3.23       0.0  T
   2    -40.9329863 -0.149276E-05  0.317E-02    3.23       1.0  T
   3    -40.9329856  0.627507E-06  0.634E-03    3.23       3.0  T
   4    -40.9329865 -0.879505E-06  0.269E-03    3.23       7.0  T
   5    -40.9329866 -0.102738E-06  0.176E-03    3.23      10.8  T
   6    -40.9329867 -0.219740E-07  0.126E-03    3.23      15.0  T
   7    -40.9329867 -0.137973E-07  0.791E-04    3.23      23.9  T
   8    -40.9329867 -0.766781E-08  0.464E-04    3.23      40.8  T
     SCC iter.                  ...        0 min,  0.020 sec
     gradient                   ...        0 min,  0.004 sec
 * total energy  :   -40.2975515 Eh     change       -0.2061169E-03 Eh
   gradient norm :     0.0080383 Eh/α   predicted    -0.1418973E-03 ( -31.16%)
   displ. norm   :     0.3131908 α      lambda       -0.3601287E-03
   maximum displ.:     0.1763014 α      in ANC's #5, #2, #4, ...

........................................................................
.............................. CYCLE   17 ..............................
........................................................................
   1    -40.9321445 -0.409321E+02  0.803E-02    3.23       0.0  T
   2    -40.9321467 -0.225395E-05  0.472E-02    3.23       1.0  T
   3    -40.9321443  0.243050E-05  0.121E-02    3.23       1.6  T
   4    -40.9321477 -0.341183E-05  0.535E-03    3.23       3.5  T
   5    -40.9321479 -0.229058E-06  0.401E-03    3.23       4.7  T
   6    -40.9321480 -0.107500E-06  0.220E-03    3.23       8.6  T
   7    -40.9321481 -0.488252E-07  0.117E-03    3.23      16.2  T
   8    -40.9321481 -0.126618E-07  0.472E-04    3.23      40.1  T
   9    -40.9321481 -0.143840E-08  0.193E-04    3.23      97.8  T
     SCC iter.                  ...        0 min,  0.022 sec
     gradient                   ...        0 min,  0.004 sec
 * total energy  :   -40.2978247 Eh     change       -0.2732235E-03 Eh
   gradient norm :     0.0090895 Eh/α   predicted    -0.1977290E-03 ( -27.63%)
   displ. norm   :     0.3724960 α      lambda       -0.4426019E-03
   maximum displ.:     0.2181622 α      in ANC's #2, #5, #1, ...

........................................................................
.............................. CYCLE   18 ..............................
........................................................................
   1    -40.9317452 -0.409317E+02  0.927E-02    3.22       0.0  T
   2    -40.9317503 -0.506973E-05  0.545E-02    3.22       1.0  T
   3    -40.9317467  0.359873E-05  0.165E-02    3.22       1.1  T
   4    -40.9317522 -0.555419E-05  0.775E-03    3.22       2.4  T
   5    -40.9317527 -0.442631E-06  0.576E-03    3.22       3.3  T
   6    -40.9317529 -0.173230E-06  0.394E-03    3.22       4.8  T
   7    -40.9317530 -0.139297E-06  0.194E-03    3.22       9.7  T
   8    -40.9317530 -0.459729E-07  0.782E-04    3.22      24.2  T
   9    -40.9317530 -0.357501E-08  0.209E-04    3.22      90.5  T
     SCC iter.                  ...        0 min,  0.022 sec
     gradient                   ...        0 min,  0.003 sec
 * total energy  :   -40.2981567 Eh     change       -0.3320019E-03 Eh
   gradient norm :     0.0091778 Eh/α   predicted    -0.2520128E-03 ( -24.09%)
   displ. norm   :     0.3736742 α      lambda       -0.4093952E-03
   maximum displ.:     0.2409672 α      in ANC's #2, #5, #1, ...

........................................................................
.............................. CYCLE   19 ..............................
........................................................................
   1    -40.9302582 -0.409303E+02  0.105E-01    3.21       0.0  T
   2    -40.9302679 -0.973639E-05  0.618E-02    3.21       1.0  T
   3    -40.9302620  0.592043E-05  0.228E-02    3.21       1.0  T
   4    -40.9302719 -0.994230E-05  0.113E-02    3.21       1.7  T
   5    -40.9302728 -0.871915E-06  0.832E-03    3.21       2.3  T
   6    -40.9302731 -0.293074E-06  0.589E-03    3.21       3.2  T
   7    -40.9302735 -0.418879E-06  0.209E-03    3.21       9.0  T
   8    -40.9302735 -0.558907E-07  0.963E-04    3.21      19.6  T
   9    -40.9302736 -0.625423E-08  0.408E-04    3.21      46.3  T
     SCC iter.                  ...        0 min,  0.022 sec
     gradient                   ...        0 min,  0.003 sec
 * total energy  :   -40.2984461 Eh     change       -0.2894474E-03 Eh
   gradient norm :     0.0067724 Eh/α   predicted    -0.2332817E-03 ( -19.40%)
   displ. norm   :     0.2482819 α      lambda       -0.3315028E-03
   maximum displ.:     0.1470192 α      in ANC's #2, #12, #1, ...

........................................................................
.............................. CYCLE   20 ..............................
........................................................................
   1    -40.9316025 -0.409316E+02  0.696E-02    3.20       0.0  T
   2    -40.9316104 -0.790177E-05  0.408E-02    3.20       1.0  T
   3    -40.9316080  0.234698E-05  0.162E-02    3.20       1.2  T
   4    -40.9316125 -0.445388E-05  0.773E-03    3.20       2.4  T
   5    -40.9316131 -0.565970E-06  0.523E-03    3.20       3.6  T
   6    -40.9316132 -0.175486E-06  0.355E-03    3.20       5.3  T
   7    -40.9316133 -0.116354E-06  0.211E-03    3.20       9.0  T
   8    -40.9316134 -0.391641E-07  0.108E-03    3.20      17.5  T
   9    -40.9316134 -0.176785E-07  0.480E-04    3.20      39.4  T
  10    -40.9316134 -0.171961E-08  0.371E-04    3.20      51.0  T
     SCC iter.                  ...        0 min,  0.025 sec
     gradient                   ...        0 min,  0.003 sec
 * total energy  :   -40.2986039 Eh     change       -0.1577434E-03 Eh
   gradient norm :     0.0061780 Eh/α   predicted    -0.1759702E-03 (  11.55%)
   displ. norm   :     0.2783024 α      lambda       -0.2121570E-03
   maximum displ.:     0.1924282 α      in ANC's #2, #5, #1, ...
 * RMSD in coord.:     0.8802309 α      energy gain  -0.3692160E-01 Eh

generating ANC from model Hessian ...
Using Lindh-Hessian (1995)
 Shifting diagonal of input Hessian by    9.7325682787748526E-003
 Lowest  eigenvalues of input Hessian
    0.000000    0.000000    0.000000    0.000000    0.000000    0.000000
    0.010000    0.010301    0.010977    0.012029    0.013898    0.014752
    0.016304    0.017416    0.019647    0.021130    0.023670    0.025623
 Highest eigenvalues
    1.784763    1.821841    1.887765    1.970172    2.029864    2.124791


........................................................................
.............................. CYCLE   21 ..............................
........................................................................
   1    -40.9305729 -0.409306E+02  0.867E-02    3.21       0.0  T
   2    -40.9305767 -0.381539E-05  0.520E-02    3.20       1.0  T
   3    -40.9305734  0.327467E-05  0.181E-02    3.20       1.0  T
   4    -40.9305802 -0.675121E-05  0.102E-02    3.20       1.8  T
   5    -40.9305807 -0.502300E-06  0.770E-03    3.20       2.5  T
   6    -40.9305812 -0.544954E-06  0.431E-03    3.20       4.4  T
   7    -40.9305814 -0.202937E-06  0.211E-03    3.20       9.0  T
   8    -40.9305815 -0.502485E-07  0.101E-03    3.20      18.8  T
   9    -40.9305815 -0.927073E-08  0.642E-04    3.20      29.5  T
  10    -40.9305815 -0.318943E-08  0.512E-04    3.20      36.9  T
     SCC iter.                  ...        0 min,  0.045 sec
     gradient                   ...        0 min,  0.003 sec
 * total energy  :   -40.2986906 Eh     change       -0.8673524E-04 Eh
   gradient norm :     0.0070331 Eh/α   predicted     0.0000000E+00 (-100.00%)
   displ. norm   :     0.0609930 α      lambda       -0.1458334E-03
   maximum displ.:     0.0289616 α      in ANC's #1, #2, #4, ...

........................................................................
.............................. CYCLE   22 ..............................
........................................................................
   1    -40.9319537 -0.409320E+02  0.234E-02    3.21       0.0  T
   2    -40.9319541 -0.384029E-06  0.136E-02    3.21       1.4  T
   3    -40.9319542 -0.200638E-07  0.335E-03    3.21       5.6  T
   4    -40.9319543 -0.990014E-07  0.187E-03    3.21      10.1  T
   5    -40.9319543 -0.210380E-07  0.140E-03    3.21      13.5  T
   6    -40.9319543 -0.168306E-07  0.984E-04    3.21      19.2  T
   7    -40.9319543 -0.100441E-07  0.634E-04    3.21      29.8  T
     SCC iter.                  ...        0 min,  0.018 sec
     gradient                   ...        0 min,  0.003 sec
 * total energy  :   -40.2987991 Eh     change       -0.1084547E-03 Eh
   gradient norm :     0.0032425 Eh/α   predicted    -0.7319790E-04 ( -32.51%)
   displ. norm   :     0.1093498 α      lambda       -0.1093355E-03
   maximum displ.:     0.0623069 α      in ANC's #1, #2, #4, ...

........................................................................
.............................. CYCLE   23 ..............................
........................................................................
   1    -40.9330144 -0.409330E+02  0.330E-02    3.22       0.0  T
   2    -40.9330150 -0.651016E-06  0.192E-02    3.22       1.0  T
   3    -40.9330150  0.798032E-07  0.486E-03    3.22       3.9  T
   4    -40.9330153 -0.302997E-06  0.267E-03    3.22       7.1  T
   5    -40.9330153 -0.520804E-07  0.200E-03    3.22       9.5  T
   6    -40.9330153 -0.282790E-07  0.135E-03    3.22      13.9  T
   7    -40.9330154 -0.198554E-07  0.768E-04    3.22      24.6  T
   8    -40.9330154 -0.790597E-08  0.424E-04    3.22      44.6  T
     SCC iter.                  ...        0 min,  0.021 sec
     gradient                   ...        0 min,  0.003 sec
 * total energy  :   -40.2988702 Eh     change       -0.7109015E-04 Eh
   gradient norm :     0.0020388 Eh/α   predicted    -0.5532260E-04 ( -22.18%)
   displ. norm   :     0.0972329 α      lambda       -0.4551465E-04
   maximum displ.:     0.0658313 α      in ANC's #1, #4, #2, ...

........................................................................
.............................. CYCLE   24 ..............................
........................................................................
   1    -40.9332803 -0.409333E+02  0.260E-02    3.22       0.0  T
   2    -40.9332806 -0.312059E-06  0.155E-02    3.22       1.2  T
   3    -40.9332807 -0.362530E-07  0.377E-03    3.22       5.0  T
   4    -40.9332808 -0.153680E-06  0.265E-03    3.22       7.1  T
   5    -40.9332809 -0.433844E-07  0.196E-03    3.22       9.6  T
   6    -40.9332809 -0.346926E-07  0.767E-04    3.22      24.7  T
   7    -40.9332809 -0.810376E-08  0.253E-04    3.22      74.7  T
     SCC iter.                  ...        0 min,  0.018 sec
     gradient                   ...        0 min,  0.003 sec
 * total energy  :   -40.2989082 Eh     change       -0.3807887E-04 Eh
   gradient norm :     0.0024206 Eh/α   predicted    -0.2305723E-04 ( -39.45%)
   displ. norm   :     0.1432443 α      lambda       -0.6267747E-04
   maximum displ.:     0.0912623 α      in ANC's #1, #4, #2, ...

........................................................................
.............................. CYCLE   25 ..............................
........................................................................
   1    -40.9332630 -0.409333E+02  0.371E-02    3.22       0.0  T
   2    -40.9332635 -0.500530E-06  0.221E-02    3.22       1.0  T
   3    -40.9332629  0.536999E-06  0.674E-03    3.22       2.8  T
   4    -40.9332639 -0.972111E-06  0.358E-03    3.22       5.3  T
   5    -40.9332640 -0.739637E-07  0.245E-03    3.22       7.7  T
   6    -40.9332640 -0.515034E-07  0.868E-04    3.22      21.8  T
   7    -40.9332641 -0.928927E-08  0.382E-04    3.22      49.5  T
     SCC iter.                  ...        0 min,  0.018 sec
     gradient                   ...        0 min,  0.003 sec
 * total energy  :   -40.2989615 Eh     change       -0.5322561E-04 Eh
   gradient norm :     0.0022108 Eh/α   predicted    -0.3198186E-04 ( -39.91%)
   displ. norm   :     0.2338727 α      lambda       -0.9279325E-04
   maximum displ.:     0.1594356 α      in ANC's #1, #4, #2, ...

........................................................................
.............................. CYCLE   26 ..............................
........................................................................
   1    -40.9330033 -0.409330E+02  0.574E-02    3.22       0.0  T
   2    -40.9330043 -0.102999E-05  0.346E-02    3.22       1.0  T
   3    -40.9330043 -0.218863E-07  0.890E-03    3.22       2.1  T
   4    -40.9330054 -0.108905E-05  0.629E-03    3.22       3.0  T
   5    -40.9330057 -0.265653E-06  0.383E-03    3.22       4.9  T
   6    -40.9330058 -0.117023E-06  0.186E-03    3.22      10.1  T
   7    -40.9330058 -0.370020E-07  0.792E-04    3.22      23.9  T
   8    -40.9330058 -0.687379E-08  0.277E-04    3.22      68.3  T
     SCC iter.                  ...        0 min,  0.020 sec
     gradient                   ...        0 min,  0.003 sec
 * total energy  :   -40.2990347 Eh     change       -0.7323151E-04 Eh
   gradient norm :     0.0027605 Eh/α   predicted    -0.4895149E-04 ( -33.16%)
   displ. norm   :     0.2296865 α      lambda       -0.7863413E-04
   maximum displ.:     0.1525034 α      in ANC's #1, #2, #4, ...

........................................................................
.............................. CYCLE   27 ..............................
........................................................................
   1    -40.9327237 -0.409327E+02  0.509E-02    3.22       0.0  T
   2    -40.9327244 -0.670309E-06  0.304E-02    3.22       1.0  T
   3    -40.9327234  0.939432E-06  0.874E-03    3.22       2.2  T
   4    -40.9327251 -0.169458E-05  0.472E-03    3.22       4.0  T
   5    -40.9327253 -0.152396E-06  0.259E-03    3.22       7.3  T
   6    -40.9327253 -0.576237E-07  0.118E-03    3.22      16.0  T
   7    -40.9327254 -0.127638E-07  0.455E-04    3.22      41.5  T
   8    -40.9327254 -0.171000E-08  0.138E-04    3.22     137.0  T
     SCC iter.                  ...        0 min,  0.020 sec
     gradient                   ...        0 min,  0.003 sec
 * total energy  :   -40.2990975 Eh     change       -0.6281287E-04 Eh
   gradient norm :     0.0031982 Eh/α   predicted    -0.4139140E-04 ( -34.10%)
   displ. norm   :     0.2415419 α      lambda       -0.8787199E-04
   maximum displ.:     0.1729075 α      in ANC's #1, #2, #4, ...

........................................................................
.............................. CYCLE   28 ..............................
........................................................................
   1    -40.9325948 -0.409326E+02  0.507E-02    3.22       0.0  T
   2    -40.9325955 -0.644296E-06  0.304E-02    3.22       1.0  T
   3    -40.9325955 -0.555271E-07  0.711E-03    3.22       2.7  T
   4    -40.9325962 -0.686432E-06  0.513E-03    3.22       3.7  T
   5    -40.9325964 -0.179146E-06  0.300E-03    3.22       6.3  T
   6    -40.9325965 -0.884930E-07  0.130E-03    3.22      14.6  T
   7    -40.9325965 -0.166622E-07  0.627E-04    3.22      30.1  T
   8    -40.9325965 -0.315656E-08  0.309E-04    3.22      61.2  T
     SCC iter.                  ...        0 min,  0.020 sec
     gradient                   ...        0 min,  0.003 sec
 * total energy  :   -40.2991661 Eh     change       -0.6857164E-04 Eh
   gradient norm :     0.0031520 Eh/α   predicted    -0.4649983E-04 ( -32.19%)
   displ. norm   :     0.1968486 α      lambda       -0.7500624E-04
   maximum displ.:     0.1480589 α      in ANC's #1, #2, #4, ...

........................................................................
.............................. CYCLE   29 ..............................
........................................................................
   1    -40.9329245 -0.409329E+02  0.411E-02    3.22       0.0  T
   2    -40.9329250 -0.537913E-06  0.246E-02    3.22       1.0  T
   3    -40.9329252 -0.140491E-06  0.574E-03    3.22       3.3  T
   4    -40.9329255 -0.379479E-06  0.425E-03    3.22       4.4  T
   5    -40.9329257 -0.118431E-06  0.283E-03    3.22       6.7  T
   6    -40.9329257 -0.779823E-07  0.131E-03    3.22      14.4  T
   7    -40.9329258 -0.193951E-07  0.583E-04    3.22      32.4  T
   8    -40.9329258 -0.223027E-08  0.307E-04    3.22      61.6  T
     SCC iter.                  ...        0 min,  0.020 sec
     gradient                   ...        0 min,  0.003 sec
 * total energy  :   -40.2992235 Eh     change       -0.5747550E-04 Eh
   gradient norm :     0.0022125 Eh/α   predicted    -0.3895686E-04 ( -32.22%)
   displ. norm   :     0.2055168 α      lambda       -0.5836067E-04
   maximum displ.:     0.1653952 α      in ANC's #1, #2, #4, ...

........................................................................
.............................. CYCLE   30 ..............................
........................................................................
   1    -40.9332612 -0.409333E+02  0.475E-02    3.22       0.0  T
   2    -40.9332620 -0.816236E-06  0.286E-02    3.22       1.0  T
   3    -40.9332623 -0.278975E-06  0.719E-03    3.22       2.6  T
   4    -40.9332628 -0.531344E-06  0.542E-03    3.22       3.5  T
   5    -40.9332630 -0.190153E-06  0.344E-03    3.22       5.5  T
   6    -40.9332631 -0.109247E-06  0.135E-03    3.22      14.0  T
   7    -40.9332632 -0.239828E-07  0.471E-04    3.22      40.1  T
   8    -40.9332632 -0.950031E-09  0.216E-04    3.22      87.6  T
     SCC iter.                  ...        0 min,  0.020 sec
     gradient                   ...        0 min,  0.003 sec
 * total energy  :   -40.2992685 Eh     change       -0.4495990E-04 Eh
   gradient norm :     0.0016203 Eh/α   predicted    -0.3041346E-04 ( -32.35%)
   displ. norm   :     0.1980338 α      lambda       -0.3646791E-04
   maximum displ.:     0.1676658 α      in ANC's #1, #2, #21, ...

........................................................................
.............................. CYCLE   31 ..............................
........................................................................
   1    -40.9337896 -0.409338E+02  0.437E-02    3.22       0.0  T
   2    -40.9337904 -0.851315E-06  0.262E-02    3.22       1.0  T
   3    -40.9337905 -0.920429E-07  0.693E-03    3.22       2.7  T
   4    -40.9337911 -0.608782E-06  0.495E-03    3.22       3.8  T
   5    -40.9337912 -0.143110E-06  0.340E-03    3.22       5.6  T
   6    -40.9337913 -0.936430E-07  0.182E-03    3.22      10.4  T
   7    -40.9337914 -0.325811E-07  0.745E-04    3.22      25.4  T
   8    -40.9337914 -0.558121E-08  0.325E-04    3.22      58.2  T
     SCC iter.                  ...        0 min,  0.020 sec
     gradient                   ...        0 min,  0.004 sec
 * total energy  :   -40.2993084 Eh     change       -0.3988537E-04 Eh
   gradient norm :     0.0020043 Eh/α   predicted    -0.1855437E-04 ( -53.48%)
   displ. norm   :     0.1770108 α      lambda       -0.3539408E-04
   maximum displ.:     0.1500186 α      in ANC's #1, #2, #4, ...

........................................................................
.............................. CYCLE   32 ..............................
........................................................................
   1    -40.9335136 -0.409335E+02  0.420E-02    3.22       0.0  T
   2    -40.9335142 -0.635539E-06  0.254E-02    3.22       1.0  T
   3    -40.9335142  0.628521E-07  0.706E-03    3.22       2.7  T
   4    -40.9335149 -0.741292E-06  0.493E-03    3.22       3.8  T
   5    -40.9335150 -0.141279E-06  0.326E-03    3.22       5.8  T
   6    -40.9335151 -0.100125E-06  0.144E-03    3.22      13.2  T
   7    -40.9335152 -0.251143E-07  0.537E-04    3.22      35.2  T
   8    -40.9335152 -0.392016E-08  0.275E-04    3.22      68.6  T
     SCC iter.                  ...        0 min,  0.025 sec
     gradient                   ...        0 min,  0.004 sec
 * total energy  :   -40.2993356 Eh     change       -0.2717672E-04 Eh
   gradient norm :     0.0021177 Eh/α   predicted    -0.1825325E-04 ( -32.83%)
   displ. norm   :     0.2929650 α      lambda       -0.4770513E-04
   maximum displ.:     0.2538888 α      in ANC's #1, #2, #5, ...

........................................................................
.............................. CYCLE   33 ..............................
........................................................................
   1    -40.9332481 -0.409332E+02  0.637E-02    3.22       0.0  T
   2    -40.9332495 -0.140050E-05  0.383E-02    3.22       1.0  T
   3    -40.9332485  0.985092E-06  0.114E-02    3.22       1.7  T
   4    -40.9332510 -0.248903E-05  0.722E-03    3.22       2.6  T
   5    -40.9332512 -0.218945E-06  0.538E-03    3.22       3.5  T
   6    -40.9332515 -0.299663E-06  0.199E-03    3.22       9.5  T
   7    -40.9332516 -0.443210E-07  0.789E-04    3.22      24.0  T
   8    -40.9332516 -0.936849E-08  0.313E-04    3.22      60.4  T
     SCC iter.                  ...        0 min,  0.020 sec
     gradient                   ...        0 min,  0.004 sec
 * total energy  :   -40.2993624 Eh     change       -0.2685527E-04 Eh
   gradient norm :     0.0022334 Eh/α   predicted    -0.2590374E-04 (  -3.54%)
   displ. norm   :     0.0516598 α      lambda       -0.1783108E-04
   maximum displ.:     0.0379962 α      in ANC's #1, #4, #6, ...

........................................................................
.............................. CYCLE   34 ..............................
........................................................................
   1    -40.9336025 -0.409336E+02  0.131E-02    3.22       0.0  T
   2    -40.9336027 -0.161158E-06  0.786E-03    3.22       2.4  T
   3    -40.9336025  0.147052E-06  0.344E-03    3.22       5.5  T
   4    -40.9336028 -0.255806E-06  0.168E-03    3.22      11.2  T
   5    -40.9336028 -0.156066E-07  0.133E-03    3.22      14.2  T
   6    -40.9336028 -0.153146E-07  0.946E-04    3.22      20.0  T
   7    -40.9336028 -0.101832E-07  0.524E-04    3.22      36.1  T
     SCC iter.                  ...        0 min,  0.018 sec
     gradient                   ...        0 min,  0.004 sec
 * total energy  :   -40.2993733 Eh     change       -0.1088733E-04 Eh
   gradient norm :     0.0010590 Eh/α   predicted    -0.8940279E-05 ( -17.88%)
   displ. norm   :     0.1114346 α      lambda       -0.6314443E-05
   maximum displ.:     0.0968879 α      in ANC's #1, #2, #6, ...

........................................................................
.............................. CYCLE   35 ..............................
........................................................................
   1    -40.9339150 -0.409339E+02  0.262E-02    3.22       0.0  T
   2    -40.9339152 -0.262578E-06  0.158E-02    3.22       1.2  T
   3    -40.9339150  0.232107E-06  0.504E-03    3.22       3.8  T
   4    -40.9339155 -0.506591E-06  0.305E-03    3.22       6.2  T
   5    -40.9339155 -0.367922E-07  0.233E-03    3.22       8.1  T
   6    -40.9339156 -0.560419E-07  0.824E-04    3.22      22.9  T
   7    -40.9339156 -0.832290E-08  0.331E-04    3.22      57.1  T
     SCC iter.                  ...        0 min,  0.017 sec
     gradient                   ...        0 min,  0.004 sec
 * total energy  :   -40.2993791 Eh     change       -0.5809452E-05 Eh
   gradient norm :     0.0012568 Eh/α   predicted    -0.3175324E-05 ( -45.34%)
   displ. norm   :     0.0620473 α      lambda       -0.5590960E-05
   maximum displ.:     0.0463464 α      in ANC's #1, #2, #6, ...

........................................................................
.............................. CYCLE   36 ..............................
........................................................................
   1    -40.9338866 -0.409339E+02  0.158E-02    3.22       0.0  T
   2    -40.9338869 -0.281723E-06  0.948E-03    3.22       2.0  T
   3    -40.9338869 -0.234059E-07  0.275E-03    3.22       6.9  T
   4    -40.9338870 -0.664414E-07  0.197E-03    3.22       9.6  T
   5    -40.9338870 -0.338602E-07  0.148E-03    3.22      12.7  T
   6    -40.9338870 -0.150870E-07  0.100E-03    3.22      18.8  T
   7    -40.9338870 -0.148414E-07  0.378E-04    3.22      50.0  T
   8    -40.9338871 -0.170215E-08  0.235E-04    3.22      80.5  T
     SCC iter.                  ...        0 min,  0.020 sec
     gradient                   ...        0 min,  0.004 sec
 * total energy  :   -40.2993845 Eh     change       -0.5354397E-05 Eh
   gradient norm :     0.0004999 Eh/α   predicted    -0.2801198E-05 ( -47.68%)
   displ. norm   :     0.0616540 α      lambda       -0.6092391E-05
   maximum displ.:     0.0364548 α      in ANC's #1, #2, #4, ...

........................................................................
.............................. CYCLE   37 ..............................
........................................................................
   1    -40.9340682 -0.409341E+02  0.197E-02    3.22       0.0  T
   2    -40.9340685 -0.315022E-06  0.117E-02    3.22       1.6  T
   3    -40.9340685 -0.347098E-07  0.299E-03    3.22       6.3  T
   4    -40.9340686 -0.778674E-07  0.210E-03    3.22       9.0  T
   5    -40.9340686 -0.325003E-07  0.157E-03    3.22      12.0  T
   6    -40.9340687 -0.170979E-07  0.874E-04    3.22      21.6  T
   7    -40.9340687 -0.978159E-08  0.347E-04    3.22      54.4  T
     SCC iter.                  ...        0 min,  0.017 sec
     gradient                   ...        0 min,  0.004 sec
 * total energy  :   -40.2993888 Eh     change       -0.4328195E-05 Eh
   gradient norm :     0.0009022 Eh/α   predicted    -0.3052952E-05 ( -29.46%)
   displ. norm   :     0.0382149 α      lambda       -0.2586695E-05
   maximum displ.:     0.0290993 α      in ANC's #2, #1, #9, ...

   *** GEOMETRY OPTIMIZATION CONVERGED AFTER 37 ITERATIONS ***

------------------------------------------------------------------------
 total energy gain   :        -0.0377065 Eh      -23.6612 kcal/mol
 total RMSD          :         1.0400708 a0        0.5504 Å
 total power (kW/mol):        -2.6756351 (step)  -86.3290 (real)
------------------------------------------------------------------------

 ANCopt (total)                0 d,  0 h,  0 min,  1.147 sec
 optimizer setup                ...        0 min,  0.000 sec (  0.012%)
 model hessian                  ...        0 min,  0.028 sec (  2.478%)
 ANC generation                 ...        0 min,  0.013 sec (  1.116%)
 coordinate transformation      ...        0 min,  0.001 sec (  0.064%)
 single point calculation       ...        0 min,  1.088 sec ( 94.840%)
 optimization log               ...        0 min,  0.006 sec (  0.502%)
 hessian update                 ...        0 min,  0.001 sec (  0.082%)
 rational function              ...        0 min,  0.007 sec (  0.577%)

================
 final structure:
================
28
 xtb: 6.5.1 (fef0646)
N            1.29458200898148        0.47974528896469        0.23335922866183
C            2.70533096009183        0.08072169281971        0.15556958727523
C            3.60885729870454        0.93305985036937        1.05321577761171
C            3.14199112532308        0.13505999655797       -1.29087423995197
C            3.46000861901591       -1.05756901963496       -1.96652295523258
C            3.83825842832934       -1.04110839282999       -3.27835004123109
C            3.21212696869537        1.32527892902997       -1.96750385161291
C            3.60000338768195        1.37928264765799       -3.32061812474257
C            3.91988012367589        0.17134216200829       -3.99289132471866
C            4.30348165270987        0.22499530902913       -5.34875744062374
C            4.36880259937488        1.41980210068743       -6.00902263250485
C            4.05440671387365        2.61517994657431       -5.34352025393739
C            3.67835553177414        2.59599595781353       -4.02992559640950
Cl          -0.22611442235869       -1.33529608276845       -1.49029884223354
H            0.47334068634436       -0.48333628743323       -0.67603490201234
H            1.16961431897342        1.42533144641922       -0.11203225663330
H            0.95127004423435        0.42928415104347        1.18607540927921
H            2.75051016583934       -0.95871995613690        0.49841536515448
H            3.54941058391363        1.98382549146405        0.77844420727290
H            4.64188474250892        0.61142076958598        0.95269361601456
H            3.31350560675974        0.82956945222627        2.09604878089642
H            3.39202512857203       -1.99430635429824       -1.43383804483070
H            4.07500888640066       -1.96245651762155       -3.79062945889440
H            2.96903566735027        2.25797981341930       -1.47630736825493
H            4.54337599188563       -0.69846194127038       -5.85630345013750
H            4.66194761102163        1.45373366037099       -7.04811938726378
H            4.11135123470779        3.55102587170406       -5.88021000617200
H            3.43481833561527        3.51560001424854       -3.51613179476731

 Bond Distances (Angstroems)
 ---------------------------
N1-C2=1.4682         N1-H16=1.0144        N1-H17=1.0139        C2-N1=1.4682         C2-C3=1.5325         C2-C4=1.5119         
C2-H18=1.0955        C3-C2=1.5325         C3-H19=1.0877        C3-H20=1.0866        C3-H21=1.0888        C4-C2=1.5119         
C4-C5=1.4071         C4-C7=1.3709         C5-C4=1.4071         C5-C6=1.3654         C5-H22=1.0797        C6-C5=1.3654         
C6-C9=1.4097         C6-H23=1.0804        C7-C4=1.3709         C7-C8=1.4086         C7-H24=1.0818        C8-C7=1.4086         
C8-C9=1.4189         C8-C13=1.4105        C9-C6=1.4097         C9-C8=1.4189         C9-C10=1.4101        C10-C9=1.4101        
C10-C11=1.3667       C10-H25=1.0807       C11-C10=1.3667       C11-C12=1.4038       C11-H26=1.0802       C12-C11=1.4038       
C12-C13=1.3665       C12-H27=1.0803       C13-C8=1.4105        C13-C12=1.3665       C13-H28=1.0812       Cl14-H15=1.3704      
H15-Cl14=1.3704      H16-N1=1.0144        H17-N1=1.0139        H18-C2=1.0955        H19-C3=1.0877        H20-C3=1.0866        
H21-C3=1.0888        H22-C5=1.0797        H23-C6=1.0804        H24-C7=1.0818        H25-C10=1.0807       H26-C11=1.0802       
H27-C12=1.0803       H28-C13=1.0812       
 C  H  Rav=1.0839 sigma=0.0048  Rmin=1.0797  Rmax=1.0955    11
 C  C  Rav=1.4141 sigma=0.0501  Rmin=1.3654  Rmax=1.5325    13
 N  H  Rav=1.0142 sigma=0.0002  Rmin=1.0139  Rmax=1.0144     2
 N  C  Rav=1.4682 sigma=0.0000  Rmin=1.4682  Rmax=1.4682     1
 Cl H  Rav=1.3704 sigma=0.0000  Rmin=1.3704  Rmax=1.3704     1

 selected bond angles (degree)
 --------------------
H16-N1-C2=110.71               H17-N1-C2=111.20               H17-N1-H16=108.94              C3-C2-N1=112.60                
C4-C2-N1=108.57                C4-C2-C3=111.72                H18-C2-N1=106.32               H18-C2-C3=108.67               
H18-C2-C4=108.76               H19-C3-C2=110.92               H20-C3-C2=109.98               H20-C3-H19=108.33              
H21-C3-C2=110.38               H21-C3-H19=108.60              H21-C3-H20=108.56              C5-C4-C2=119.62                
C7-C4-C2=121.21                C7-C4-C5=119.16                C6-C5-C4=120.91                H22-C5-C4=118.96               
H22-C5-C6=120.13               C9-C6-C5=120.89                H23-C6-C5=120.40               H23-C6-C9=118.71               
C8-C7-C4=121.43                H24-C7-C4=120.86               H24-C7-C8=117.71               C9-C8-C7=118.98                
C13-C8-C7=122.10               C13-C8-C9=118.92               C8-C9-C6=118.62                C10-C9-C6=122.40               
C10-C9-C8=118.98               C11-C10-C9=120.72              H25-C10-C9=118.65              H25-C10-C11=120.63             

 selected dihedral angles (degree)
 ---------------------------------
C3-C2-N1-H16= 63.72           C3-C2-N1-H17=302.47           C4-C2-N1-H16=299.48           C4-C2-N1-H17=178.22           
H18-C2-N1-H16=182.61          H18-C2-N1-H17= 61.36          H19-C3-C2-N1=300.60           H19-C3-C2-C4= 63.09           
H19-C3-C2-H18=183.09          H20-C3-C2-N1=180.78           H20-C3-C2-C4=303.27           H20-C3-C2-H18= 63.27          
H21-C3-C2-N1= 61.01           H21-C3-C2-C4=183.50           H21-C3-C2-H18=303.50          C5-C4-C2-N1=247.48            
C5-C4-C2-C3=122.71            C5-C4-C2-H18=  2.77           C7-C4-C2-N1= 66.32            C7-C4-C2-C3=301.55            
C7-C4-C2-H18=181.60           C6-C5-C4-C2=179.03            C6-C5-C4-C7=  0.17            H22-C5-C4-C2=359.60           
H22-C5-C4-C7=180.74           C9-C6-C5-C4=359.96            C9-C6-C5-H22=179.38           H23-C6-C5-C4=180.36           
H23-C6-C5-H22=359.79          C8-C7-C4-C2=180.92            C8-C7-C4-C5=359.76            H24-C7-C4-C2=  0.86           
H24-C7-C4-C5=179.70           C9-C8-C7-C4=  0.19            C9-C8-C7-H24=180.24           C13-C8-C7-C4=180.07           
C13-C8-C7-H24=  0.12          C8-C9-C6-C5=  0.00            C8-C9-C6-H23=179.59           C10-C9-C6-C5=180.16           
C10-C9-C6-H23=359.77          C6-C9-C8-C7=359.94            C6-C9-C8-C13=180.06           C10-C9-C8-C7=179.77           
C10-C9-C8-C13=359.89          C11-C10-C9-C6=179.88          C11-C10-C9-C8=  0.06          H25-C10-C9-C6=  0.00          
H25-C10-C9-C8=180.16          

 CMA Distance (Angstroems)
 ---------------------------
R(CMA):  4.3249
           -------------------------------------------------
          |                Final Singlepoint                |
           -------------------------------------------------

          ...................................................
          :                      SETUP                      :
          :.................................................:
          :  # basis functions                  76          :
          :  # atomic orbitals                  75          :
          :  # shells                           43          :
          :  # electrons                        74          :
          :  max. iterations                   250          :
          :  Hamiltonian                  GFN2-xTB          :
          :  restarted?                      false          :
          :  GBSA solvation                  false          :
          :  PC potential                    false          :
          :  electronic temp.          300.0000000     K    :
          :  accuracy                    1.0000000          :
          :  -> integral cutoff          0.2500000E+02      :
          :  -> integral neglect         0.1000000E-07      :
          :  -> SCF convergence          0.1000000E-05 Eh   :
          :  -> wf. convergence          0.1000000E-03 e    :
          :  Broyden damping             0.4000000          :
          ...................................................

 iter      E             dE          RMSdq      gap      omega  full diag
   1    -40.9340687 -0.409341E+02  0.202E-04    3.22       0.0  T
   2    -40.9340687 -0.158991E-09  0.157E-04    3.22     120.2  T
   3    -40.9340687 -0.278092E-09  0.111E-04    3.22     169.8  T

   *** convergence criteria satisfied after 3 iterations ***

         #    Occupation            Energy/Eh            Energy/eV
      -------------------------------------------------------------
         1        2.0000           -1.0136786             -27.5836
       ...           ...                  ...                  ...
        31        2.0000           -0.4205034             -11.4425
        32        2.0000           -0.4165546             -11.3350
        33        2.0000           -0.4020363             -10.9400
        34        2.0000           -0.3961813             -10.7806
        35        2.0000           -0.3907528             -10.6329
        36        2.0000           -0.3904447             -10.6245
        37        2.0000           -0.3804782             -10.3533 (HOMO)
        38                         -0.2620852              -7.1317 (LUMO)
        39                         -0.2308804              -6.2826
        40                         -0.1908858              -5.1943
        41                         -0.1493285              -4.0634
        42                         -0.0606775              -1.6511
       ...                                ...                  ...
        75                          0.6951332              18.9155
      -------------------------------------------------------------
                  HL-Gap            0.1183930 Eh            3.2216 eV
             Fermi-level           -0.3212817 Eh           -8.7425 eV

 SCC (total)                   0 d,  0 h,  0 min,  0.013 sec
 SCC setup                      ...        0 min,  0.000 sec (  0.888%)
 Dispersion                     ...        0 min,  0.000 sec (  1.510%)
 classical contributions        ...        0 min,  0.000 sec (  0.190%)
 integral evaluation            ...        0 min,  0.001 sec (  8.656%)
 iterations                     ...        0 min,  0.008 sec ( 58.501%)
 molecular gradient             ...        0 min,  0.004 sec ( 27.355%)
 printout                       ...        0 min,  0.000 sec (  2.007%)

         :::::::::::::::::::::::::::::::::::::::::::::::::::::
         ::                     SUMMARY                     ::
         :::::::::::::::::::::::::::::::::::::::::::::::::::::
         :: total energy             -40.299388804534 Eh    ::
         :: gradient norm              0.000902668841 Eh/a0 ::
         :: HOMO-LUMO gap              3.221637817355 eV    ::
         ::.................................................::
         :: SCC energy               -40.934068674224 Eh    ::
         :: -> isotropic ES            0.028584891331 Eh    ::
         :: -> anisotropic ES         -0.001204376147 Eh    ::
         :: -> anisotropic XC          0.020510382365 Eh    ::
         :: -> dispersion             -0.027857160756 Eh    ::
         :: repulsion energy           0.634465971037 Eh    ::
         :: add. restraining           0.000000000000 Eh    ::
         :: total charge               0.000000000000 e     ::
         :::::::::::::::::::::::::::::::::::::::::::::::::::::

           -------------------------------------------------
          |                Property Printout                |
           -------------------------------------------------

    * Orbital Energies and Occupations

         #    Occupation            Energy/Eh            Energy/eV
      -------------------------------------------------------------
         1        2.0000           -1.0136786             -27.5836
       ...           ...                  ...                  ...
        25        2.0000           -0.4753257             -12.9343
        26        2.0000           -0.4626763             -12.5901
        27        2.0000           -0.4533522             -12.3363
        28        2.0000           -0.4520618             -12.3012
        29        2.0000           -0.4423498             -12.0370
        30        2.0000           -0.4276567             -11.6371
        31        2.0000           -0.4205034             -11.4425
        32        2.0000           -0.4165546             -11.3350
        33        2.0000           -0.4020363             -10.9400
        34        2.0000           -0.3961813             -10.7806
        35        2.0000           -0.3907528             -10.6329
        36        2.0000           -0.3904447             -10.6245
        37        2.0000           -0.3804782             -10.3533 (HOMO)
        38                         -0.2620852              -7.1317 (LUMO)
        39                         -0.2308804              -6.2826
        40                         -0.1908858              -5.1943
        41                         -0.1493285              -4.0634
        42                         -0.0606775              -1.6511
        43                         -0.0499349              -1.3588
        44                          0.0281482               0.7660
        45                          0.0682838               1.8581
        46                          0.0706363               1.9221
        47                          0.0708379               1.9276
        48                          0.0766006               2.0844
       ...                                ...                  ...
        75                          0.6951332              18.9155
      -------------------------------------------------------------
                  HL-Gap            0.1183930 Eh            3.2216 eV
             Fermi-level           -0.3212817 Eh           -8.7425 eV

     #   Z          covCN         q      C6AA      α(0)
     1   7 N        2.699    -0.311    27.991     7.858
     2   6 C        3.787     0.042    19.883     6.351
     3   6 C        3.753    -0.114    22.736     6.799
     4   6 C        2.970     0.003    27.947     8.671
     5   6 C        2.920    -0.032    28.802     8.801
     6   6 C        2.917    -0.031    28.776     8.797
     7   6 C        2.923    -0.040    28.988     8.829
     8   6 C        2.986     0.014    27.704     8.634
     9   6 C        2.988     0.014    27.688     8.632
    10   6 C        2.918    -0.033    28.828     8.805
    11   6 C        2.916    -0.029    28.730     8.790
    12   6 C        2.916    -0.029    28.731     8.790
    13   6 C        2.918    -0.035    28.870     8.811
    14  17 Cl       0.838    -0.484   115.090    16.412
    15   1 H        0.903     0.328     0.631     1.243
    16   1 H        0.860     0.169     1.281     1.773
    17   1 H        0.860     0.166     1.296     1.783
    18   1 H        0.924     0.050     2.326     2.385
    19   1 H        0.925     0.041     2.438     2.442
    20   1 H        0.925     0.046     2.377     2.411
    21   1 H        0.925     0.038     2.477     2.461
    22   1 H        0.926     0.039     2.463     2.454
    23   1 H        0.926     0.038     2.478     2.462
    24   1 H        0.925     0.027     2.630     2.536
    25   1 H        0.926     0.033     2.540     2.492
    26   1 H        0.926     0.031     2.569     2.506
    27   1 H        0.926     0.031     2.578     2.511
    28   1 H        0.926     0.029     2.599     2.521

 Mol. C6AA /au·bohr⁶  :       9800.188522
 Mol. C8AA /au·bohr⁸  :     251566.317604
 Mol. α(0) /au        :        156.959112


Wiberg/Mayer (AO) data.
largest (>0.10) Wiberg bond orders for each atom

 ---------------------------------------------------------------------------
     #   Z sym  total        # sym  WBO       # sym  WBO       # sym  WBO
 ---------------------------------------------------------------------------
     1   7 N    3.242 --     2 C    0.987    17 H    0.957    16 H    0.954
                            15 H    0.207
     2   6 C    3.972 --     3 C    0.995     4 C    0.990     1 N    0.987
                            18 H    0.964
     3   6 C    3.994 --     2 C    0.995    21 H    0.985    20 H    0.985
                            19 H    0.984
     4   6 C    3.988 --     7 C    1.529     5 C    1.300     2 C    0.990
     5   6 C    3.991 --     6 C    1.560     4 C    1.300    22 H    0.967
     6   6 C    3.992 --     5 C    1.560     9 C    1.279    23 H    0.968
                             7 C    0.116
     7   6 C    3.992 --     4 C    1.529     8 C    1.283    24 H    0.964
                             6 C    0.116
     8   6 C    3.991 --     7 C    1.283    13 C    1.279     9 C    1.250
     9   6 C    3.990 --    10 C    1.281     6 C    1.279     8 C    1.250
    10   6 C    3.992 --    11 C    1.557     9 C    1.281    25 H    0.968
                            13 C    0.118
    11   6 C    3.991 --    10 C    1.557    12 C    1.320    26 H    0.971
    12   6 C    3.992 --    13 C    1.558    11 C    1.320    27 H    0.971
    13   6 C    3.990 --    12 C    1.558     8 C    1.279    28 H    0.969
                            10 C    0.118
    14  17 Cl   0.768 --    15 H    0.681
    15   1 H    0.892 --    14 Cl   0.681     1 N    0.207
    16   1 H    0.972 --     1 N    0.954
    17   1 H    0.972 --     1 N    0.957
    18   1 H    0.997 --     2 C    0.964
    19   1 H    0.998 --     3 C    0.984
    20   1 H    0.998 --     3 C    0.985
    21   1 H    0.998 --     3 C    0.985
    22   1 H    0.998 --     5 C    0.967
    23   1 H    0.998 --     6 C    0.968
    24   1 H    0.999 --     7 C    0.964
    25   1 H    0.998 --    10 C    0.968
    26   1 H    0.999 --    11 C    0.971
    27   1 H    0.999 --    12 C    0.971
    28   1 H    0.999 --    13 C    0.969
 ---------------------------------------------------------------------------

Topologies differ in total number of bonds
Writing topology from bond orders to xtbtopo.mol

molecular dipole:
                 x           y           z       tot (Debye)
 q only:        1.259       1.135       0.988
   full:        1.129       1.155       0.960       4.777
molecular quadrupole (traceless):
                xx          xy          yy          xz          yz          zz
 q only:        4.149      -1.270      -2.729      -3.813      -4.117      -1.421
  q+dip:       -3.510      -0.545       1.868      -4.326      -2.611       1.642
   full:        0.475       0.115      -0.527      -2.511      -2.083       0.052

           -------------------------------------------------
          |                Geometry Summary                 |
           -------------------------------------------------

      molecular mass/u    :      207.6996421
   center of mass at/Å    :        2.8005465       0.3606065      -2.4000400
  moments of inertia/u·Å² :        0.5657943E+03   0.1423566E+04   0.1640759E+04
rotational constants/cm⁻¹ :        0.2979463E-01   0.1184183E-01   0.1027429E-01

 * 26 selected distances

     #   Z          #   Z                                           value/Å
     1   7 N        2   6 C                                       1.4681567
     2   6 C        3   6 C                                       1.5325173 (max)
     4   6 C        5   6 C                                       1.4071250
     5   6 C        6   6 C                                       1.3653697
     4   6 C        7   6 C                                       1.3709005
     7   6 C        8   6 C                                       1.4086458
     6   6 C        9   6 C                                       1.4097050
     8   6 C        9   6 C                                       1.4189408
     9   6 C       10   6 C                                       1.4101071
    10   6 C       11   6 C                                       1.3666677
    11   6 C       12   6 C                                       1.4038044
     8   6 C       13   6 C                                       1.4105488
    12   6 C       13   6 C                                       1.3664969
     1   7 N       16   1 H                                       1.0144188
     1   7 N       17   1 H                                       1.0139417 (min)
     2   6 C       18   1 H                                       1.0954559
     3   6 C       19   1 H                                       1.0877233
     3   6 C       20   1 H                                       1.0866013
     3   6 C       21   1 H                                       1.0887809
     5   6 C       22   1 H                                       1.0797463
     6   6 C       23   1 H                                       1.0804460
     7   6 C       24   1 H                                       1.0818034
    10   6 C       25   1 H                                       1.0807061
    11   6 C       26   1 H                                       1.0801887
    12   6 C       27   1 H                                       1.0803177
    13   6 C       28   1 H                                       1.0811874

 * 4 distinct bonds (by element types)

   Z      Z             #   av. dist./Å        max./Å        min./Å
   1 H    6 C          11     1.0839052     1.0954559     1.0797463
   6 C    6 C          12     1.4059024     1.5325173     1.3653697
   1 H    7 N           2     1.0141803     1.0144188     1.0139417
   6 C    7 N           1     1.4681567     1.4681567     1.4681567


optimized geometry written to: xtbopt.xyz


           -------------------------------------------------
          | TOTAL ENERGY              -40.299388804534 Eh   |
          | GRADIENT NORM               0.000902668841 Eh/α |
          | HOMO-LUMO GAP               3.221637817355 eV   |
           -------------------------------------------------

------------------------------------------------------------------------
 * finished run on 2023/01/23 at 21:09:45.854     
------------------------------------------------------------------------
 total:
 * wall-time:     0 d,  0 h,  0 min,  1.320 sec
 *  cpu-time:     0 d,  0 h,  2 min,  2.195 sec
 * ratio c/w:    92.597 speedup
 SCF:
 * wall-time:     0 d,  0 h,  0 min,  0.131 sec
 *  cpu-time:     0 d,  0 h,  0 min, 15.533 sec
 * ratio c/w:   118.146 speedup
 ANC optimizer:
 * wall-time:     0 d,  0 h,  0 min,  1.162 sec
 *  cpu-time:     0 d,  0 h,  1 min, 43.455 sec
 * ratio c/w:    89.065 speedup

