      -----------------------------------------------------------      
     |                   =====================                   |     
     |                           x T B                           |     
     |                   =====================                   |     
     |                         S. Grimme                         |     
     |          Mulliken Center for Theoretical Chemistry        |     
     |                    University of Bonn                     |     
      -----------------------------------------------------------      

   * xtb version 6.5.1 (fef0646) compiled by 'conda@b96dff2e9fd6' on 2023-01-04

   xtb is free software: you can redistribute it and/or modify it under
   the terms of the GNU Lesser General Public License as published by
   the Free Software Foundation, either version 3 of the License, or
   (at your option) any later version.
   
   xtb is distributed in the hope that it will be useful,
   but WITHOUT ANY WARRANTY; without even the implied warranty of
   MERCHANTABILITY or FITNESS FOR A PARTICULAR PURPOSE.  See the
   GNU Lesser General Public License for more details.
   
   Cite this work as:
   * C. Bannwarth, E. Caldeweyher, S. Ehlert, A. Hansen, P. Pracht,
     J. Seibert, S. Spicher, S. Grimme, WIREs Comput. Mol. Sci., 2020, 11,
     e01493. DOI: 10.1002/wcms.1493
   
   for GFN2-xTB:
   * C. Bannwarth, S. Ehlert and S. Grimme., J. Chem. Theory Comput., 2019,
     15, 1652-1671. DOI: 10.1021/acs.jctc.8b01176
   for GFN1-xTB:
   * S. Grimme, C. Bannwarth, P. Shushkov, J. Chem. Theory Comput., 2017,
     13, 1989-2009. DOI: 10.1021/acs.jctc.7b00118
   for GFN0-xTB:
   * P. Pracht, E. Caldeweyher, S. Ehlert, S. Grimme, ChemRxiv, 2019, preprint.
     DOI: 10.26434/chemrxiv.8326202.v1
   for GFN-FF:
   * S. Spicher and S. Grimme, Angew. Chem. Int. Ed., 2020, 59, 15665-15673.
     DOI: 10.1002/anie.202004239
   
   for ALPB and GBSA implicit solvation:
   * S. Ehlert, M. Stahn, S. Spicher, S. Grimme, J. Chem. Theory Comput.,
     2021, 17, 4250-4261. DOI: 10.1021/acs.jctc.1c00471
   
   for DFT-D4:
   * E. Caldeweyher, C. Bannwarth and S. Grimme, J. Chem. Phys., 2017,
     147, 034112. DOI: 10.1063/1.4993215
   * E. Caldeweyher, S. Ehlert, A. Hansen, H. Neugebauer, S. Spicher,
     C. Bannwarth and S. Grimme, J. Chem. Phys., 2019, 150, 154122.
     DOI: 10.1063/1.5090222
   * E. Caldeweyher, J.-M. Mewes, S. Ehlert and S. Grimme, Phys. Chem. Chem. Phys.
     2020, 22, 8499-8512. DOI: 10.1039/D0CP00502A
   
   for sTDA-xTB:
   * S. Grimme and C. Bannwarth, J. Chem. Phys., 2016, 145, 054103.
     DOI: 10.1063/1.4959605
   
   in the mass-spec context:
   * V. Asgeirsson, C. Bauer and S. Grimme, Chem. Sci., 2017, 8, 4879.
     DOI: 10.1039/c7sc00601b
   * J. Koopman and S. Grimme, ACS Omega 2019, 4, 12, 15120-15133.
     DOI: 10.1021/acsomega.9b02011
   
   for metadynamics refer to:
   * S. Grimme, J. Chem. Theory Comput., 2019, 155, 2847-2862
     DOI: 10.1021/acs.jctc.9b00143
   
   for SPH calculations refer to:
   * S. Spicher and S. Grimme, J. Chem. Theory Comput., 2021, 17, 1701-1714
     DOI: 10.1021/acs.jctc.0c01306
   
   with help from (in alphabetical order)
   P. Atkinson, C. Bannwarth, F. Bohle, G. Brandenburg, E. Caldeweyher
   M. Checinski, S. Dohm, S. Ehlert, S. Ehrlich, I. Gerasimov, C. Hölzer
   A. Katbashev, J. Koopman, C. Lavigne, S. Lehtola, F. März, M. Müller,
   F. Musil, H. Neugebauer, J. Pisarek, C. Plett, P. Pracht, F. Pultar,
   J. Seibert, P. Shushkov, S. Spicher, M. Stahn, M. Steiner, T. Strunk,
   J. Stückrath, T. Rose, and J. Unsleber
   
 * started run on 2023/01/24 at 14:57:03.504     

           -------------------------------------------------
          |                Calculation Setup                |
           -------------------------------------------------

          program call               : xtb init.xyz --opt -c 0 -u 0 -P 16 --alpb water
          hostname                   : gpg-woodward
          coordinate file            : init.xyz
          omp threads                :                    16

   ID    Z sym.   atoms
    1    7 N      1
    2    6 C      2-21
    3   16 S      22-25
    4   17 Cl     26
    5    1 H      27-46

molecular fragmentation (1/2 indicates fragments):
1111111111111111111111111211111111111111111111
# atoms in fragment 1/2:    45     1
 fragment masses (1/2) :      402.64       35.45
CMA distance (Bohr)    :  20.933
constraining FC (au)   :  0.0500

           -------------------------------------------------
          |                 G F N 2 - x T B                 |
           -------------------------------------------------

        Reference                      10.1021/acs.jctc.8b01176
      * Hamiltonian:
        H0-scaling (s, p, d)           1.850000    2.230000    2.230000
        zeta-weighting                 0.500000
      * Dispersion:
        s8                             2.700000
        a1                             0.520000
        a2                             5.000000
        s9                             5.000000
      * Repulsion:
        kExp                           1.500000    1.000000
        rExp                           1.000000
      * Coulomb:
        alpha                          2.000000
        third order                    shell-resolved
        anisotropic                    true
        a3                             3.000000
        a5                             4.000000
        cn-shift                       1.200000
        cn-exp                         4.000000
        max-rad                        5.000000

      * Solvation model:               ALPB
        Solvent                        water
        Parameter file                 internal GFN2-xTB/ALPB
        Dielectric constant                8.0200E+01
        Reference state                gsolv [1 M gas/solution]
        Free energy shift                  1.0808E-03 Eh       6.7819E-01 kcal/mol
        Temperature                        2.9815E+02 K
        Density                            1.0000E+00 kg/L
        Solvent mass                       1.8000E+01 g/mol
        Interaction kernel             P16
        Born radius scaling (c1)           1.4744E+00
        Born radii integrator          GBOBC
        Born offset                        0.0000E+00 a0       0.0000E+00 AA
        H-bond correction              true
        Ion screening                  false
        Surface tension                    1.0000E-05 Eh       1.5569E+01 dyn/cm
        Grid points                               230 per atom

          ...................................................
          :                      SETUP                      :
          :.................................................:
          :  # basis functions                 154          :
          :  # atomic orbitals                 149          :
          :  # shells                           77          :
          :  # electrons                       136          :
          :  max. iterations                   250          :
          :  Hamiltonian                  GFN2-xTB          :
          :  restarted?                      false          :
          :  GBSA solvation                   true          :
          :  PC potential                    false          :
          :  electronic temp.          300.0000000     K    :
          :  accuracy                    1.0000000          :
          :  -> integral cutoff          0.2500000E+02      :
          :  -> integral neglect         0.1000000E-07      :
          :  -> SCF convergence          0.1000000E-05 Eh   :
          :  -> wf. convergence          0.1000000E-03 e    :
          :  Broyden damping             0.4000000          :
          ...................................................

 iter      E             dE          RMSdq      gap      omega  full diag
   1    -74.3675064 -0.743675E+02  0.390E+00    2.05       0.0  T
   2    -74.4604548 -0.929485E-01  0.216E+00    2.10       1.0  T
   3    -74.4559799  0.447488E-02  0.106E+00    2.13       1.0  T
   4    -74.4662200 -0.102401E-01  0.594E-01    2.10       1.0  T
   5    -74.4726662 -0.644618E-02  0.230E-01    2.11       1.0  T
   6    -74.4729901 -0.323866E-03  0.170E-01    2.10       1.0  T
   7    -74.4734331 -0.443058E-03  0.103E-01    2.10       1.0  T
   8    -74.4735875 -0.154353E-03  0.434E-02    2.11       1.0  T
   9    -74.4736179 -0.303933E-04  0.202E-02    2.10       1.0  T
  10    -74.4736236 -0.572776E-05  0.104E-02    2.10       1.4  T
  11    -74.4736245 -0.860718E-06  0.520E-03    2.10       2.8  T
  12    -74.4736249 -0.393748E-06  0.231E-03    2.10       6.4  T
  13    -74.4736249 -0.387406E-07  0.137E-03    2.10      10.7  T
  14    -74.4736249 -0.186198E-07  0.578E-04    2.10      25.5  T
  15    -74.4736249 -0.265578E-08  0.324E-04    2.10      45.5  T

   *** convergence criteria satisfied after 15 iterations ***

         #    Occupation            Energy/Eh            Energy/eV
      -------------------------------------------------------------
         1        2.0000           -1.0090398             -27.4574
       ...           ...                  ...                  ...
        62        2.0000           -0.4002332             -10.8909
        63        2.0000           -0.3960736             -10.7777
        64        2.0000           -0.3943822             -10.7317
        65        2.0000           -0.3905419             -10.6272
        66        2.0000           -0.3894560             -10.5976
        67        2.0000           -0.3745630             -10.1924
        68        2.0000           -0.3545471              -9.6477 (HOMO)
        69                         -0.2772150              -7.5434 (LUMO)
        70                         -0.2561535              -6.9703
        71                         -0.2312182              -6.2918
        72                         -0.2145052              -5.8370
        73                         -0.2092935              -5.6952
       ...                                ...                  ...
       149                          0.7026779              19.1208
      -------------------------------------------------------------
                  HL-Gap            0.0773322 Eh            2.1043 eV
             Fermi-level           -0.3158810 Eh           -8.5956 eV

 SCC (total)                   0 d,  0 h,  0 min,  0.371 sec
 SCC setup                      ...        0 min,  0.001 sec (  0.252%)
 Dispersion                     ...        0 min,  0.001 sec (  0.247%)
 classical contributions        ...        0 min,  0.000 sec (  0.030%)
 integral evaluation            ...        0 min,  0.006 sec (  1.519%)
 iterations                     ...        0 min,  0.348 sec ( 93.926%)
 molecular gradient             ...        0 min,  0.012 sec (  3.118%)
 printout                       ...        0 min,  0.003 sec (  0.801%)

         :::::::::::::::::::::::::::::::::::::::::::::::::::::
         ::                     SUMMARY                     ::
         :::::::::::::::::::::::::::::::::::::::::::::::::::::
         :: total energy             -73.493030369470 Eh    ::
         :: total w/o Gsasa/hb       -73.487753301463 Eh    ::
         :: gradient norm              0.086278870304 Eh/a0 ::
         :: HOMO-LUMO gap              2.104315158349 eV    ::
         ::.................................................::
         :: SCC energy               -74.473624919817 Eh    ::
         :: -> isotropic ES            0.116502589389 Eh    ::
         :: -> anisotropic ES         -0.026910180713 Eh    ::
         :: -> anisotropic XC          0.023480035038 Eh    ::
         :: -> dispersion             -0.056804587535 Eh    ::
         :: -> Gsolv                  -0.065445990093 Eh    ::
         ::    -> Gelec               -0.060168922086 Eh    ::
         ::    -> Gsasa                0.002135709411 Eh    ::
         ::    -> Ghb                 -0.008493537117 Eh    ::
         ::    -> Gshift               0.001080759698 Eh    ::
         :: repulsion energy           0.981245877814 Eh    ::
         :: add. restraining           0.000000000000 Eh    ::
         :: total charge              -0.000000000000 e     ::
         :::::::::::::::::::::::::::::::::::::::::::::::::::::

      ----------------------------------------------------------- 
     |                   =====================                   |
     |                        A N C O P T                        |
     |                   =====================                   |
     |               Approximate Normal Coordinate               |
     |                Rational Function Optimizer                |
      ----------------------------------------------------------- 

          ...................................................
          :                      SETUP                      :
          :.................................................:
          :   optimization level            normal          :
          :   max. optcycles                   200          :
          :   ANC micro-cycles                  20          :
          :   degrees of freedom               132          :
          :.................................................:
          :   RF solver                   davidson          :
          :   write xtbopt.log                true          :
          :   linear?                        false          :
          :   energy convergence         0.5000000E-05 Eh   :
          :   grad. convergence          0.1000000E-02 Eh/α :
          :   maximium RF displ.         1.0000000          :
          :   Hlow (freq-cutoff)         0.1000000E-01      :
          :   Hmax (freq-cutoff)         5.0000000          :
          :   S6 in model hess.         20.0000000          :
          ...................................................

generating ANC from model Hessian ...
Using Lindh-Hessian (1995)
 Shifting diagonal of input Hessian by    9.8872748916193319E-003
 Lowest  eigenvalues of input Hessian
    0.000000    0.000000    0.000000    0.000000    0.000000    0.000000
    0.010000    0.010135    0.010175    0.010317    0.010447    0.010646
    0.010941    0.012249    0.012477    0.012841    0.013614    0.013935
 Highest eigenvalues
    1.800278    1.826907    1.843295    1.874113    1.904416    1.922729


........................................................................
.............................. CYCLE    1 ..............................
........................................................................
   1    -74.4736249 -0.744736E+02  0.174E-04    2.10       0.0  T
   2    -74.4736249 -0.182567E-09  0.136E-04    2.10     108.2  T
   3    -74.4736249 -0.241315E-09  0.973E-05    2.10     151.5  T
     SCC iter.                  ...        0 min,  0.064 sec
     gradient                   ...        0 min,  0.013 sec
 * total energy  :   -73.4930304 Eh     change       -0.1353513E-08 Eh
   gradient norm :     0.0862791 Eh/α   predicted     0.0000000E+00 (-100.00%)
   displ. norm   :     0.3706863 α      lambda       -0.1370277E-01
   maximum displ.:     0.1423622 α      in ANC's #32, #23, #29, ...

........................................................................
.............................. CYCLE    2 ..............................
........................................................................
   1    -74.5130317 -0.745130E+02  0.185E-01    2.04       0.0  T
   2    -74.5131722 -0.140452E-03  0.114E-01    2.05       1.0  T
   3    -74.5131458  0.264131E-04  0.522E-02    2.05       1.0  T
   4    -74.5131970 -0.512202E-04  0.227E-02    2.05       1.0  T
   5    -74.5132064 -0.939324E-05  0.775E-03    2.05       1.9  T
   6    -74.5132068 -0.465479E-06  0.505E-03    2.05       2.9  T
   7    -74.5132072 -0.317580E-06  0.250E-03    2.05       5.9  T
   8    -74.5132072 -0.447712E-07  0.126E-03    2.05      11.7  T
   9    -74.5132072 -0.122968E-07  0.693E-04    2.05      21.3  T
  10    -74.5132072 -0.659266E-08  0.375E-04    2.05      39.4  T
     SCC iter.                  ...        0 min,  0.227 sec
     gradient                   ...        0 min,  0.013 sec
 * total energy  :   -73.5026148 Eh     change       -0.9584438E-02 Eh
   gradient norm :     0.0445762 Eh/α   predicted    -0.7799244E-02 ( -18.63%)
   displ. norm   :     0.3304249 α      lambda       -0.5239007E-02
   maximum displ.:     0.1132462 α      in ANC's #11, #13, #15, ...

........................................................................
.............................. CYCLE    3 ..............................
........................................................................
   1    -74.5353622 -0.745354E+02  0.132E-01    1.98       0.0  T
   2    -74.5354476 -0.853926E-04  0.802E-02    1.98       1.0  T
   3    -74.5354422  0.536294E-05  0.380E-02    1.98       1.0  T
   4    -74.5354605 -0.182796E-04  0.191E-02    1.98       1.0  T
   5    -74.5354670 -0.652403E-05  0.695E-03    1.98       2.1  T
   6    -74.5354673 -0.259077E-06  0.459E-03    1.98       3.2  T
   7    -74.5354676 -0.318760E-06  0.243E-03    1.98       6.1  T
   8    -74.5354676 -0.526506E-07  0.128E-03    1.98      11.6  T
   9    -74.5354676 -0.173156E-07  0.653E-04    1.98      22.6  T
  10    -74.5354676 -0.570930E-08  0.374E-04    1.98      39.4  T
     SCC iter.                  ...        0 min,  0.214 sec
     gradient                   ...        0 min,  0.013 sec
 * total energy  :   -73.5058267 Eh     change       -0.3211859E-02 Eh
   gradient norm :     0.0139642 Eh/α   predicted    -0.2905504E-02 (  -9.54%)
   displ. norm   :     0.2787146 α      lambda       -0.1189103E-02
   maximum displ.:     0.1331298 α      in ANC's #11, #7, #13, ...

........................................................................
.............................. CYCLE    4 ..............................
........................................................................
   1    -74.5366752 -0.745367E+02  0.759E-02    1.95       0.0  T
   2    -74.5366851 -0.993986E-05  0.431E-02    1.95       1.0  T
   3    -74.5366832  0.191777E-05  0.161E-02    1.95       1.0  T
   4    -74.5366867 -0.357225E-05  0.912E-03    1.95       1.6  T
   5    -74.5366881 -0.134666E-05  0.528E-03    1.95       2.8  T
   6    -74.5366883 -0.224917E-06  0.329E-03    1.95       4.5  T
   7    -74.5366884 -0.120159E-06  0.212E-03    1.95       7.0  T
   8    -74.5366885 -0.689339E-07  0.652E-04    1.95      22.6  T
   9    -74.5366885 -0.568036E-08  0.313E-04    1.95      47.2  T
     SCC iter.                  ...        0 min,  0.189 sec
     gradient                   ...        0 min,  0.013 sec
 * total energy  :   -73.5067101 Eh     change       -0.8834515E-03 Eh
   gradient norm :     0.0090535 Eh/α   predicted    -0.6407796E-03 ( -27.47%)
   displ. norm   :     0.3794324 α      lambda       -0.9851716E-03
   maximum displ.:     0.1857540 α      in ANC's #11, #7, #13, ...

........................................................................
.............................. CYCLE    5 ..............................
........................................................................
   1    -74.5347407 -0.745347E+02  0.887E-02    1.93       0.0  T
   2    -74.5347462 -0.548089E-05  0.512E-02    1.93       1.0  T
   3    -74.5347449  0.135946E-05  0.165E-02    1.93       1.0  T
   4    -74.5347496 -0.472177E-05  0.991E-03    1.93       1.5  T
   5    -74.5347506 -0.102069E-05  0.619E-03    1.93       2.4  T
   6    -74.5347510 -0.373627E-06  0.389E-03    1.93       3.8  T
   7    -74.5347511 -0.156842E-06  0.218E-03    1.93       6.7  T
   8    -74.5347512 -0.928036E-07  0.579E-04    1.93      25.5  T
   9    -74.5347512 -0.631159E-08  0.276E-04    1.93      53.4  T
     SCC iter.                  ...        0 min,  0.198 sec
     gradient                   ...        0 min,  0.013 sec
 * total energy  :   -73.5074301 Eh     change       -0.7199867E-03 Eh
   gradient norm :     0.0104805 Eh/α   predicted    -0.5635053E-03 ( -21.73%)
   displ. norm   :     0.3866511 α      lambda       -0.7085485E-03
   maximum displ.:     0.1886196 α      in ANC's #7, #11, #13, ...

........................................................................
.............................. CYCLE    6 ..............................
........................................................................
   1    -74.5330324 -0.745330E+02  0.820E-02    1.92       0.0  T
   2    -74.5330361 -0.372540E-05  0.481E-02    1.92       1.0  T
   3    -74.5330350  0.115212E-05  0.153E-02    1.92       1.0  T
   4    -74.5330395 -0.455417E-05  0.936E-03    1.92       1.6  T
   5    -74.5330403 -0.829468E-06  0.565E-03    1.92       2.6  T
   6    -74.5330406 -0.307842E-06  0.379E-03    1.92       3.9  T
   7    -74.5330408 -0.194470E-06  0.152E-03    1.92       9.7  T
   8    -74.5330409 -0.469781E-07  0.428E-04    1.92      34.5  T
   9    -74.5330409 -0.251622E-08  0.241E-04    1.92      61.1  T
     SCC iter.                  ...        0 min,  0.195 sec
     gradient                   ...        0 min,  0.013 sec
 * total energy  :   -73.5079766 Eh     change       -0.5465071E-03 Eh
   gradient norm :     0.0113930 Eh/α   predicted    -0.4072437E-03 ( -25.48%)
   displ. norm   :     0.4189832 α      lambda       -0.7009230E-03
   maximum displ.:     0.2107594 α      in ANC's #7, #11, #5, ...

........................................................................
.............................. CYCLE    7 ..............................
........................................................................
   1    -74.5331386 -0.745331E+02  0.848E-02    1.92       0.0  T
   2    -74.5331449 -0.624841E-05  0.498E-02    1.92       1.0  T
   3    -74.5331435  0.134149E-05  0.162E-02    1.92       1.0  T
   4    -74.5331482 -0.464211E-05  0.100E-02    1.92       1.5  T
   5    -74.5331493 -0.115889E-05  0.650E-03    1.92       2.3  T
   6    -74.5331497 -0.385921E-06  0.402E-03    1.92       3.7  T
   7    -74.5331499 -0.221503E-06  0.207E-03    1.92       7.1  T
   8    -74.5331500 -0.677160E-07  0.515E-04    1.92      28.7  T
   9    -74.5331500 -0.380255E-08  0.258E-04    1.92      57.2  T
     SCC iter.                  ...        0 min,  0.198 sec
     gradient                   ...        0 min,  0.013 sec
 * total energy  :   -73.5085204 Eh     change       -0.5437538E-03 Eh
   gradient norm :     0.0087723 Eh/α   predicted    -0.4119841E-03 ( -24.23%)
   displ. norm   :     0.4203373 α      lambda       -0.5779078E-03
   maximum displ.:     0.2147482 α      in ANC's #7, #5, #11, ...

........................................................................
.............................. CYCLE    8 ..............................
........................................................................
   1    -74.5353879 -0.745354E+02  0.829E-02    1.93       0.0  T
   2    -74.5353946 -0.671234E-05  0.483E-02    1.93       1.0  T
   3    -74.5353942  0.354704E-06  0.151E-02    1.93       1.0  T
   4    -74.5353973 -0.305411E-05  0.982E-03    1.93       1.5  T
   5    -74.5353986 -0.127646E-05  0.630E-03    1.93       2.3  T
   6    -74.5353990 -0.381860E-06  0.376E-03    1.93       3.9  T
   7    -74.5353991 -0.175480E-06  0.200E-03    1.93       7.4  T
   8    -74.5353992 -0.692052E-07  0.487E-04    1.93      30.3  T
   9    -74.5353992 -0.325400E-08  0.233E-04    1.93      63.3  T
     SCC iter.                  ...        0 min,  0.193 sec
     gradient                   ...        0 min,  0.013 sec
 * total energy  :   -73.5089392 Eh     change       -0.4187895E-03 Eh
   gradient norm :     0.0054371 Eh/α   predicted    -0.3400078E-03 ( -18.81%)
   displ. norm   :     0.3671072 α      lambda       -0.3275271E-03
   maximum displ.:     0.1835323 α      in ANC's #7, #5, #4, ...

........................................................................
.............................. CYCLE    9 ..............................
........................................................................
   1    -74.5374406 -0.745374E+02  0.705E-02    1.93       0.0  T
   2    -74.5374435 -0.289417E-05  0.409E-02    1.93       1.0  T
   3    -74.5374439 -0.391938E-06  0.110E-02    1.93       1.3  T
   4    -74.5374453 -0.138577E-05  0.760E-03    1.93       1.9  T
   5    -74.5374460 -0.704758E-06  0.474E-03    1.93       3.1  T
   6    -74.5374462 -0.236054E-06  0.286E-03    1.93       5.2  T
   7    -74.5374463 -0.837500E-07  0.144E-03    1.93      10.2  T
   8    -74.5374463 -0.441243E-07  0.339E-04    1.93      43.4  T
   9    -74.5374463 -0.205607E-08  0.164E-04    1.93      90.2  T
     SCC iter.                  ...        0 min,  0.185 sec
     gradient                   ...        0 min,  0.013 sec
 * total energy  :   -73.5091890 Eh     change       -0.2498795E-03 Eh
   gradient norm :     0.0054121 Eh/α   predicted    -0.1858345E-03 ( -25.63%)
   displ. norm   :     0.3713526 α      lambda       -0.2815379E-03
   maximum displ.:     0.1736159 α      in ANC's #7, #4, #5, ...

........................................................................
.............................. CYCLE   10 ..............................
........................................................................
   1    -74.5395390 -0.745395E+02  0.704E-02    1.92       0.0  T
   2    -74.5395409 -0.188357E-05  0.407E-02    1.92       1.0  T
   3    -74.5395412 -0.367978E-06  0.936E-03    1.92       1.6  T
   4    -74.5395422 -0.954486E-06  0.643E-03    1.92       2.3  T
   5    -74.5395427 -0.490425E-06  0.378E-03    1.92       3.9  T
   6    -74.5395428 -0.134277E-06  0.253E-03    1.92       5.8  T
   7    -74.5395429 -0.650712E-07  0.112E-03    1.92      13.1  T
   8    -74.5395429 -0.356170E-07  0.262E-04    1.92      56.2  T
   9    -74.5395429 -0.835314E-09  0.144E-04    1.92     102.6  T
     SCC iter.                  ...        0 min,  0.185 sec
     gradient                   ...        0 min,  0.013 sec
 * total energy  :   -73.5094144 Eh     change       -0.2253745E-03 Eh
   gradient norm :     0.0061434 Eh/α   predicted    -0.1601821E-03 ( -28.93%)
   displ. norm   :     0.4247839 α      lambda       -0.3141766E-03
   maximum displ.:     0.1885920 α      in ANC's #4, #7, #2, ...

........................................................................
.............................. CYCLE   11 ..............................
........................................................................
   1    -74.5401785 -0.745402E+02  0.800E-02    1.92       0.0  T
   2    -74.5401805 -0.201049E-05  0.458E-02    1.92       1.0  T
   3    -74.5401809 -0.370147E-06  0.850E-03    1.92       1.7  T
   4    -74.5401814 -0.515685E-06  0.576E-03    1.92       2.6  T
   5    -74.5401819 -0.455623E-06  0.331E-03    1.92       4.5  T
   6    -74.5401820 -0.103495E-06  0.228E-03    1.92       6.5  T
   7    -74.5401820 -0.508744E-07  0.101E-03    1.92      14.7  T
   8    -74.5401821 -0.281785E-07  0.295E-04    1.92      50.0  T
   9    -74.5401821 -0.130974E-08  0.143E-04    1.92     103.1  T
     SCC iter.                  ...        0 min,  0.181 sec
     gradient                   ...        0 min,  0.013 sec
 * total energy  :   -73.5096693 Eh     change       -0.2548425E-03 Eh
   gradient norm :     0.0056168 Eh/α   predicted    -0.1854363E-03 ( -27.23%)
   displ. norm   :     0.4297515 α      lambda       -0.3477917E-03
   maximum displ.:     0.2186393 α      in ANC's #4, #2, #5, ...

........................................................................
.............................. CYCLE   12 ..............................
........................................................................
   1    -74.5409735 -0.745410E+02  0.788E-02    1.91       0.0  T
   2    -74.5409754 -0.190303E-05  0.446E-02    1.91       1.0  T
   3    -74.5409754 -0.455728E-07  0.642E-03    1.91       2.3  T
   4    -74.5409756 -0.141979E-06  0.373E-03    1.91       3.9  T
   5    -74.5409758 -0.256081E-06  0.171E-03    1.91       8.6  T
   6    -74.5409759 -0.397376E-07  0.994E-04    1.91      14.8  T
   7    -74.5409759 -0.609057E-08  0.728E-04    1.91      20.3  T
     SCC iter.                  ...        0 min,  0.141 sec
     gradient                   ...        0 min,  0.012 sec
 * total energy  :   -73.5099413 Eh     change       -0.2719986E-03 Eh
   gradient norm :     0.0048925 Eh/α   predicted    -0.2060287E-03 ( -24.25%)
   displ. norm   :     0.4450993 α      lambda       -0.3087447E-03
   maximum displ.:     0.2320988 α      in ANC's #4, #2, #5, ...

........................................................................
.............................. CYCLE   13 ..............................
........................................................................
   1    -74.5367164 -0.745367E+02  0.807E-02    1.90       0.0  T
   2    -74.5367188 -0.243043E-05  0.460E-02    1.91       1.0  T
   3    -74.5367187  0.131593E-06  0.699E-03    1.91       2.1  T
   4    -74.5367190 -0.355779E-06  0.421E-03    1.91       3.5  T
   5    -74.5367194 -0.361371E-06  0.187E-03    1.91       7.9  T
   6    -74.5367194 -0.284472E-07  0.123E-03    1.91      12.0  T
   7    -74.5367194 -0.140932E-07  0.889E-04    1.91      16.6  T
   8    -74.5367194 -0.110792E-07  0.337E-04    1.91      43.8  T
     SCC iter.                  ...        0 min,  0.160 sec
     gradient                   ...        0 min,  0.012 sec
 * total energy  :   -73.5101558 Eh     change       -0.2145860E-03 Eh
   gradient norm :     0.0057484 Eh/α   predicted    -0.1849558E-03 ( -13.81%)
   displ. norm   :     0.3462024 α      lambda       -0.2709833E-03
   maximum displ.:     0.1876721 α      in ANC's #2, #4, #11, ...

........................................................................
.............................. CYCLE   14 ..............................
........................................................................
   1    -74.5386466 -0.745386E+02  0.584E-02    1.90       0.0  T
   2    -74.5386486 -0.195239E-05  0.333E-02    1.90       1.0  T
   3    -74.5386480  0.600202E-06  0.938E-03    1.90       1.6  T
   4    -74.5386495 -0.148573E-05  0.543E-03    1.90       2.7  T
   5    -74.5386498 -0.344278E-06  0.323E-03    1.90       4.6  T
   6    -74.5386499 -0.956400E-07  0.212E-03    1.90       7.0  T
   7    -74.5386499 -0.428441E-07  0.126E-03    1.90      11.7  T
   8    -74.5386500 -0.295285E-07  0.338E-04    1.90      43.6  T
   9    -74.5386500 -0.188460E-08  0.170E-04    1.90      86.5  T
     SCC iter.                  ...        0 min,  0.183 sec
     gradient                   ...        0 min,  0.013 sec
 * total energy  :   -73.5102967 Eh     change       -0.1408419E-03 Eh
   gradient norm :     0.0069510 Eh/α   predicted    -0.1517342E-03 (   7.73%)
   displ. norm   :     0.2565748 α      lambda       -0.1651216E-03
   maximum displ.:     0.1316684 α      in ANC's #2, #4, #5, ...

........................................................................
.............................. CYCLE   15 ..............................
........................................................................
   1    -74.5365239 -0.745365E+02  0.474E-02    1.90       0.0  T
   2    -74.5365249 -0.930398E-06  0.269E-02    1.90       1.0  T
   3    -74.5365249 -0.303910E-07  0.450E-03    1.90       3.3  T
   4    -74.5365251 -0.156783E-06  0.265E-03    1.90       5.6  T
   5    -74.5365251 -0.872830E-07  0.139E-03    1.90      10.6  T
   6    -74.5365252 -0.196376E-07  0.911E-04    1.90      16.2  T
   7    -74.5365252 -0.596231E-08  0.637E-04    1.90      23.1  T
     SCC iter.                  ...        0 min,  0.139 sec
     gradient                   ...        0 min,  0.012 sec
 * total energy  :   -73.5104163 Eh     change       -0.1196380E-03 Eh
   gradient norm :     0.0051469 Eh/α   predicted    -0.8799666E-04 ( -26.45%)
   displ. norm   :     0.2397674 α      lambda       -0.1795229E-03
   maximum displ.:     0.1360987 α      in ANC's #2, #4, #13, ...

........................................................................
.............................. CYCLE   16 ..............................
........................................................................
   1    -74.5373851 -0.745374E+02  0.480E-02    1.89       0.0  T
   2    -74.5373865 -0.136456E-05  0.269E-02    1.89       1.0  T
   3    -74.5373864  0.434089E-07  0.581E-03    1.89       2.5  T
   4    -74.5373867 -0.301414E-06  0.351E-03    1.89       4.2  T
   5    -74.5373869 -0.172314E-06  0.186E-03    1.89       7.9  T
   6    -74.5373869 -0.309602E-07  0.122E-03    1.89      12.1  T
   7    -74.5373869 -0.121474E-07  0.835E-04    1.89      17.7  T
   8    -74.5373869 -0.122111E-07  0.229E-04    1.89      64.4  T
     SCC iter.                  ...        0 min,  0.158 sec
     gradient                   ...        0 min,  0.012 sec
 * total energy  :   -73.5105482 Eh     change       -0.1318771E-03 Eh
   gradient norm :     0.0044161 Eh/α   predicted    -0.9492538E-04 ( -28.02%)
   displ. norm   :     0.3357375 α      lambda       -0.1740718E-03
   maximum displ.:     0.1987705 α      in ANC's #2, #4, #13, ...

........................................................................
.............................. CYCLE   17 ..............................
........................................................................
   1    -74.5381718 -0.745382E+02  0.631E-02    1.89       0.0  T
   2    -74.5381736 -0.175137E-05  0.355E-02    1.89       1.0  T
   3    -74.5381733  0.245566E-06  0.756E-03    1.89       1.9  T
   4    -74.5381740 -0.705022E-06  0.476E-03    1.89       3.1  T
   5    -74.5381744 -0.336892E-06  0.246E-03    1.89       6.0  T
   6    -74.5381744 -0.532432E-07  0.169E-03    1.89       8.7  T
   7    -74.5381744 -0.250601E-07  0.109E-03    1.89      13.5  T
   8    -74.5381745 -0.211661E-07  0.267E-04    1.89      55.3  T
   9    -74.5381745 -0.119022E-08  0.138E-04    1.89     107.2  T
     SCC iter.                  ...        0 min,  0.180 sec
     gradient                   ...        0 min,  0.012 sec
 * total energy  :   -73.5106870 Eh     change       -0.1387672E-03 Eh
   gradient norm :     0.0051366 Eh/α   predicted    -0.9685220E-04 ( -30.21%)
   displ. norm   :     0.3910530 α      lambda       -0.2141295E-03
   maximum displ.:     0.2361086 α      in ANC's #2, #4, #5, ...

........................................................................
.............................. CYCLE   18 ..............................
........................................................................
   1    -74.5395741 -0.745396E+02  0.728E-02    1.88       0.0  T
   2    -74.5395763 -0.218765E-05  0.409E-02    1.88       1.0  T
   3    -74.5395756  0.704923E-06  0.977E-03    1.88       1.5  T
   4    -74.5395772 -0.162232E-05  0.579E-03    1.88       2.5  T
   5    -74.5395776 -0.399325E-06  0.307E-03    1.88       4.8  T
   6    -74.5395777 -0.820457E-07  0.221E-03    1.88       6.7  T
   7    -74.5395777 -0.506420E-07  0.129E-03    1.88      11.4  T
   8    -74.5395778 -0.287454E-07  0.330E-04    1.88      44.6  T
   9    -74.5395778 -0.228630E-08  0.154E-04    1.88      95.9  T
     SCC iter.                  ...        0 min,  0.178 sec
     gradient                   ...        0 min,  0.013 sec
 * total energy  :   -73.5108566 Eh     change       -0.1696316E-03 Eh
   gradient norm :     0.0051239 Eh/α   predicted    -0.1234427E-03 ( -27.23%)
   displ. norm   :     0.5041786 α      lambda       -0.2367266E-03
   maximum displ.:     0.3051426 α      in ANC's #2, #4, #5, ...

........................................................................
.............................. CYCLE   19 ..............................
........................................................................
   1    -74.5391014 -0.745391E+02  0.922E-02    1.87       0.0  T
   2    -74.5391042 -0.275483E-05  0.521E-02    1.87       1.0  T
   3    -74.5391027  0.151324E-05  0.123E-02    1.87       1.2  T
   4    -74.5391056 -0.293271E-05  0.685E-03    1.87       2.2  T
   5    -74.5391061 -0.507393E-06  0.334E-03    1.87       4.4  T
   6    -74.5391062 -0.834537E-07  0.252E-03    1.87       5.8  T
   7    -74.5391063 -0.705739E-07  0.118E-03    1.87      12.5  T
   8    -74.5391063 -0.319772E-07  0.344E-04    1.87      42.8  T
   9    -74.5391063 -0.139950E-08  0.189E-04    1.87      78.2  T
     SCC iter.                  ...        0 min,  0.176 sec
     gradient                   ...        0 min,  0.012 sec
 * total energy  :   -73.5110402 Eh     change       -0.1835910E-03 Eh
   gradient norm :     0.0062947 Eh/α   predicted    -0.1484548E-03 ( -19.14%)
   displ. norm   :     0.5292284 α      lambda       -0.2771114E-03
   maximum displ.:     0.3201771 α      in ANC's #2, #4, #5, ...

........................................................................
.............................. CYCLE   20 ..............................
........................................................................
   1    -74.5394129 -0.745394E+02  0.955E-02    1.86       0.0  T
   2    -74.5394163 -0.334231E-05  0.540E-02    1.86       1.0  T
   3    -74.5394152  0.105962E-05  0.124E-02    1.86       1.2  T
   4    -74.5394178 -0.260429E-05  0.727E-03    1.86       2.0  T
   5    -74.5394185 -0.617136E-06  0.382E-03    1.86       3.9  T
   6    -74.5394186 -0.120246E-06  0.281E-03    1.86       5.2  T
   7    -74.5394187 -0.847030E-07  0.153E-03    1.86       9.7  T
   8    -74.5394187 -0.446398E-07  0.390E-04    1.86      37.8  T
   9    -74.5394187 -0.230297E-08  0.203E-04    1.86      72.7  T
     SCC iter.                  ...        0 min,  0.184 sec
     gradient                   ...        0 min,  0.012 sec
 * total energy  :   -73.5112330 Eh     change       -0.1928483E-03 Eh
   gradient norm :     0.0062317 Eh/α   predicted    -0.1773643E-03 (  -8.03%)
   displ. norm   :     0.4913985 α      lambda       -0.2086221E-03
   maximum displ.:     0.2949584 α      in ANC's #2, #4, #5, ...
 * RMSD in coord.:     0.8886501 α      energy gain  -0.1820266E-01 Eh

generating ANC from model Hessian ...
Using Lindh-Hessian (1995)
 Shifting diagonal of input Hessian by    1.0027771833304168E-002
 Lowest  eigenvalues of input Hessian
    0.010000    0.000000    0.000000    0.000000    0.000000    0.000000
    0.000000    0.010180    0.010333    0.010430    0.010624    0.010745
    0.011148    0.012235    0.012738    0.013061    0.013604    0.013950
 Highest eigenvalues
    1.869716    1.898467    1.905484    1.954503    1.992822    2.016725


........................................................................
.............................. CYCLE   21 ..............................
........................................................................
   1    -74.5378504 -0.745379E+02  0.869E-02    1.85       0.0  T
   2    -74.5378531 -0.264667E-05  0.491E-02    1.85       1.0  T
   3    -74.5378526  0.467420E-06  0.978E-03    1.85       1.5  T
   4    -74.5378539 -0.125672E-05  0.590E-03    1.85       2.5  T
   5    -74.5378544 -0.488725E-06  0.292E-03    1.85       5.0  T
   6    -74.5378544 -0.700568E-07  0.209E-03    1.85       7.1  T
   7    -74.5378545 -0.424764E-07  0.132E-03    1.85      11.2  T
   8    -74.5378545 -0.289206E-07  0.380E-04    1.85      38.8  T
   9    -74.5378545 -0.245441E-08  0.193E-04    1.85      76.3  T
     SCC iter.                  ...        0 min,  0.182 sec
     gradient                   ...        0 min,  0.012 sec
 * total energy  :   -73.5113832 Eh     change       -0.1501779E-03 Eh
   gradient norm :     0.0063550 Eh/α   predicted     0.0000000E+00 (-100.00%)
   displ. norm   :     0.0672146 α      lambda       -0.1295409E-03
   maximum displ.:     0.0346090 α      in ANC's #3, #9, #10, ...

........................................................................
.............................. CYCLE   22 ..............................
........................................................................
   1    -74.5401141 -0.745401E+02  0.210E-02    1.86       0.0  T
   2    -74.5401146 -0.440746E-06  0.123E-02    1.86       1.2  T
   3    -74.5401142  0.365854E-06  0.492E-03    1.86       3.0  T
   4    -74.5401148 -0.627233E-06  0.220E-03    1.86       6.7  T
   5    -74.5401149 -0.377848E-07  0.150E-03    1.86       9.8  T
   6    -74.5401149 -0.212306E-07  0.956E-04    1.86      15.4  T
   7    -74.5401149 -0.122735E-07  0.512E-04    1.86      28.8  T
     SCC iter.                  ...        0 min,  0.143 sec
     gradient                   ...        0 min,  0.013 sec
 * total energy  :   -73.5114807 Eh     change       -0.9750035E-04 Eh
   gradient norm :     0.0026948 Eh/α   predicted    -0.6507157E-04 ( -33.26%)
   displ. norm   :     0.1319374 α      lambda       -0.1196591E-03
   maximum displ.:     0.0733223 α      in ANC's #3, #10, #9, ...

........................................................................
.............................. CYCLE   23 ..............................
........................................................................
   1    -74.5418470 -0.745418E+02  0.318E-02    1.86       0.0  T
   2    -74.5418477 -0.696966E-06  0.186E-02    1.86       1.0  T
   3    -74.5418472  0.499361E-06  0.661E-03    1.86       2.2  T
   4    -74.5418482 -0.105792E-05  0.349E-03    1.86       4.2  T
   5    -74.5418483 -0.102759E-06  0.222E-03    1.86       6.6  T
   6    -74.5418484 -0.505109E-07  0.142E-03    1.86      10.4  T
   7    -74.5418484 -0.266083E-07  0.643E-04    1.86      22.9  T
   8    -74.5418484 -0.654957E-08  0.189E-04    1.86      77.8  T
     SCC iter.                  ...        0 min,  0.163 sec
     gradient                   ...        0 min,  0.013 sec
 * total energy  :   -73.5115644 Eh     change       -0.8368704E-04 Eh
   gradient norm :     0.0021954 Eh/α   predicted    -0.6087317E-04 ( -27.26%)
   displ. norm   :     0.1473934 α      lambda       -0.7812119E-04
   maximum displ.:     0.0848290 α      in ANC's #3, #10, #9, ...

........................................................................
.............................. CYCLE   24 ..............................
........................................................................
   1    -74.5419277 -0.745419E+02  0.330E-02    1.87       0.0  T
   2    -74.5419282 -0.498331E-06  0.191E-02    1.87       1.0  T
   3    -74.5419282  0.473445E-07  0.504E-03    1.87       2.9  T
   4    -74.5419286 -0.445499E-06  0.324E-03    1.87       4.6  T
   5    -74.5419287 -0.114765E-06  0.188E-03    1.87       7.8  T
   6    -74.5419288 -0.336431E-07  0.122E-03    1.87      12.0  T
   7    -74.5419288 -0.206164E-07  0.406E-04    1.87      36.3  T
   8    -74.5419288 -0.339153E-08  0.146E-04    1.87     101.2  T
     SCC iter.                  ...        0 min,  0.165 sec
     gradient                   ...        0 min,  0.013 sec
 * total energy  :   -73.5116265 Eh     change       -0.6210657E-04 Eh
   gradient norm :     0.0032115 Eh/α   predicted    -0.3990938E-04 ( -35.74%)
   displ. norm   :     0.2063556 α      lambda       -0.9262434E-04
   maximum displ.:     0.1203115 α      in ANC's #3, #10, #9, ...

........................................................................
.............................. CYCLE   25 ..............................
........................................................................
   1    -74.5409557 -0.745410E+02  0.452E-02    1.86       0.0  T
   2    -74.5409565 -0.851509E-06  0.260E-02    1.86       1.0  T
   3    -74.5409566 -0.121009E-06  0.607E-03    1.86       2.4  T
   4    -74.5409571 -0.476193E-06  0.409E-03    1.86       3.6  T
   5    -74.5409573 -0.188127E-06  0.237E-03    1.86       6.2  T
   6    -74.5409573 -0.502776E-07  0.165E-03    1.86       8.9  T
   7    -74.5409574 -0.380708E-07  0.608E-04    1.86      24.3  T
   8    -74.5409574 -0.707671E-08  0.193E-04    1.86      76.6  T
     SCC iter.                  ...        0 min,  0.164 sec
     gradient                   ...        0 min,  0.013 sec
 * total energy  :   -73.5116950 Eh     change       -0.6854091E-04 Eh
   gradient norm :     0.0029914 Eh/α   predicted    -0.4828446E-04 ( -29.55%)
   displ. norm   :     0.1683841 α      lambda       -0.6000372E-04
   maximum displ.:     0.1031381 α      in ANC's #3, #5, #10, ...

........................................................................
.............................. CYCLE   26 ..............................
........................................................................
   1    -74.5401199 -0.745401E+02  0.363E-02    1.86       0.0  T
   2    -74.5401205 -0.526067E-06  0.208E-02    1.86       1.0  T
   3    -74.5401205 -0.373780E-07  0.484E-03    1.86       3.0  T
   4    -74.5401208 -0.316412E-06  0.312E-03    1.86       4.7  T
   5    -74.5401209 -0.991470E-07  0.180E-03    1.86       8.2  T
   6    -74.5401209 -0.278117E-07  0.128E-03    1.86      11.6  T
   7    -74.5401210 -0.210442E-07  0.526E-04    1.86      28.1  T
   8    -74.5401210 -0.557542E-08  0.151E-04    1.86      97.6  T
     SCC iter.                  ...        0 min,  0.166 sec
     gradient                   ...        0 min,  0.013 sec
 * total energy  :   -73.5117397 Eh     change       -0.4469385E-04 Eh
   gradient norm :     0.0022915 Eh/α   predicted    -0.3085339E-04 ( -30.97%)
   displ. norm   :     0.1288206 α      lambda       -0.4672875E-04
   maximum displ.:     0.0818093 α      in ANC's #3, #5, #4, ...

........................................................................
.............................. CYCLE   27 ..............................
........................................................................
   1    -74.5399776 -0.745400E+02  0.276E-02    1.86       0.0  T
   2    -74.5399779 -0.315977E-06  0.158E-02    1.86       1.0  T
   3    -74.5399779  0.405506E-07  0.394E-03    1.86       3.7  T
   4    -74.5399781 -0.246248E-06  0.242E-03    1.86       6.1  T
   5    -74.5399782 -0.601448E-07  0.135E-03    1.86      10.9  T
   6    -74.5399782 -0.153495E-07  0.956E-04    1.86      15.4  T
   7    -74.5399782 -0.116957E-07  0.384E-04    1.86      38.4  T
     SCC iter.                  ...        0 min,  0.143 sec
     gradient                   ...        0 min,  0.013 sec
 * total energy  :   -73.5117774 Eh     change       -0.3765976E-04 Eh
   gradient norm :     0.0017738 Eh/α   predicted    -0.2375221E-04 ( -36.93%)
   displ. norm   :     0.2348910 α      lambda       -0.5570834E-04
   maximum displ.:     0.1476453 α      in ANC's #3, #5, #4, ...

........................................................................
.............................. CYCLE   28 ..............................
........................................................................
   1    -74.5402039 -0.745402E+02  0.502E-02    1.85       0.0  T
   2    -74.5402049 -0.989225E-06  0.288E-02    1.85       1.0  T
   3    -74.5402049 -0.380191E-07  0.693E-03    1.85       2.1  T
   4    -74.5402056 -0.645055E-06  0.456E-03    1.85       3.2  T
   5    -74.5402058 -0.248556E-06  0.249E-03    1.85       5.9  T
   6    -74.5402059 -0.509501E-07  0.167E-03    1.85       8.8  T
   7    -74.5402059 -0.416411E-07  0.506E-04    1.85      29.2  T
   8    -74.5402059 -0.577691E-08  0.187E-04    1.85      79.0  T
     SCC iter.                  ...        0 min,  0.165 sec
     gradient                   ...        0 min,  0.013 sec
 * total energy  :   -73.5118371 Eh     change       -0.5969537E-04 Eh
   gradient norm :     0.0029882 Eh/α   predicted    -0.2853781E-04 ( -52.19%)
   displ. norm   :     0.1411637 α      lambda       -0.4410663E-04
   maximum displ.:     0.0900404 α      in ANC's #3, #5, #4, ...

........................................................................
.............................. CYCLE   29 ..............................
........................................................................
   1    -74.5403897 -0.745404E+02  0.283E-02    1.85       0.0  T
   2    -74.5403900 -0.324242E-06  0.163E-02    1.85       1.0  T
   3    -74.5403903 -0.220352E-06  0.356E-03    1.85       4.1  T
   4    -74.5403903 -0.152376E-07  0.264E-03    1.85       5.6  T
   5    -74.5403904 -0.120632E-06  0.154E-03    1.85       9.6  T
   6    -74.5403904 -0.249222E-07  0.773E-04    1.85      19.1  T
   7    -74.5403904 -0.103441E-07  0.194E-04    1.85      75.8  T
     SCC iter.                  ...        0 min,  0.146 sec
     gradient                   ...        0 min,  0.013 sec
 * total energy  :   -73.5118774 Eh     change       -0.4027775E-04 Eh
   gradient norm :     0.0030170 Eh/α   predicted    -0.2249569E-04 ( -44.15%)
   displ. norm   :     0.2692863 α      lambda       -0.9213164E-04
   maximum displ.:     0.1687036 α      in ANC's #3, #5, #4, ...

........................................................................
.............................. CYCLE   30 ..............................
........................................................................
   1    -74.5407779 -0.745408E+02  0.530E-02    1.84       0.0  T
   2    -74.5407790 -0.112309E-05  0.304E-02    1.84       1.0  T
   3    -74.5407798 -0.741519E-06  0.651E-03    1.84       2.3  T
   4    -74.5407799 -0.664107E-07  0.475E-03    1.84       3.1  T
   5    -74.5407802 -0.353405E-06  0.280E-03    1.84       5.3  T
   6    -74.5407803 -0.824419E-07  0.154E-03    1.84       9.6  T
   7    -74.5407803 -0.341928E-07  0.431E-04    1.84      34.2  T
   8    -74.5407803 -0.452272E-08  0.170E-04    1.84      86.6  T
     SCC iter.                  ...        0 min,  0.165 sec
     gradient                   ...        0 min,  0.013 sec
 * total energy  :   -73.5119560 Eh     change       -0.7867707E-04 Eh
   gradient norm :     0.0024993 Eh/α   predicted    -0.4940917E-04 ( -37.20%)
   displ. norm   :     0.4200815 α      lambda       -0.1187864E-03
   maximum displ.:     0.2678809 α      in ANC's #3, #5, #4, ...

........................................................................
.............................. CYCLE   31 ..............................
........................................................................
   1    -74.5397740 -0.745398E+02  0.800E-02    1.84       0.0  T
   2    -74.5397764 -0.244494E-05  0.458E-02    1.84       1.0  T
   3    -74.5397779 -0.143910E-05  0.951E-03    1.84       1.6  T
   4    -74.5397780 -0.108846E-06  0.698E-03    1.84       2.1  T
   5    -74.5397788 -0.792407E-06  0.404E-03    1.84       3.7  T
   6    -74.5397789 -0.159165E-06  0.241E-03    1.84       6.1  T
   7    -74.5397790 -0.798638E-07  0.751E-04    1.84      19.6  T
   8    -74.5397790 -0.149536E-07  0.273E-04    1.84      54.0  T
     SCC iter.                  ...        0 min,  0.163 sec
     gradient                   ...        0 min,  0.013 sec
 * total energy  :   -73.5120564 Eh     change       -0.1003558E-03 Eh
   gradient norm :     0.0028165 Eh/α   predicted    -0.6987478E-04 ( -30.37%)
   displ. norm   :     0.4527441 α      lambda       -0.1158183E-03
   maximum displ.:     0.2920198 α      in ANC's #3, #5, #4, ...

........................................................................
.............................. CYCLE   32 ..............................
........................................................................
   1    -74.5385600 -0.745386E+02  0.838E-02    1.83       0.0  T
   2    -74.5385625 -0.244156E-05  0.479E-02    1.83       1.0  T
   3    -74.5385635 -0.988626E-06  0.987E-03    1.83       1.5  T
   4    -74.5385639 -0.396536E-06  0.719E-03    1.83       2.0  T
   5    -74.5385647 -0.819877E-06  0.392E-03    1.83       3.8  T
   6    -74.5385648 -0.121785E-06  0.264E-03    1.83       5.6  T
   7    -74.5385649 -0.105583E-06  0.834E-04    1.83      17.7  T
   8    -74.5385649 -0.159310E-07  0.282E-04    1.83      52.3  T
     SCC iter.                  ...        0 min,  0.163 sec
     gradient                   ...        0 min,  0.013 sec
 * total energy  :   -73.5121504 Eh     change       -0.9400714E-04 Eh
   gradient norm :     0.0035107 Eh/α   predicted    -0.6978124E-04 ( -25.77%)
   displ. norm   :     0.4200115 α      lambda       -0.1135494E-03
   maximum displ.:     0.2765888 α      in ANC's #3, #5, #4, ...

........................................................................
.............................. CYCLE   33 ..............................
........................................................................
   1    -74.5385549 -0.745386E+02  0.766E-02    1.83       0.0  T
   2    -74.5385568 -0.182189E-05  0.436E-02    1.83       1.0  T
   3    -74.5385571 -0.307351E-06  0.878E-03    1.83       1.7  T
   4    -74.5385577 -0.586072E-06  0.610E-03    1.83       2.4  T
   5    -74.5385582 -0.575847E-06  0.316E-03    1.83       4.7  T
   6    -74.5385583 -0.755095E-07  0.224E-03    1.83       6.6  T
   7    -74.5385584 -0.713085E-07  0.815E-04    1.83      18.1  T
   8    -74.5385584 -0.143524E-07  0.239E-04    1.83      61.7  T
     SCC iter.                  ...        0 min,  0.161 sec
     gradient                   ...        0 min,  0.013 sec
 * total energy  :   -73.5122405 Eh     change       -0.9006935E-04 Eh
   gradient norm :     0.0033747 Eh/α   predicted    -0.6679397E-04 ( -25.84%)
   displ. norm   :     0.4143649 α      lambda       -0.1140205E-03
   maximum displ.:     0.2831517 α      in ANC's #3, #5, #4, ...

........................................................................
.............................. CYCLE   34 ..............................
........................................................................
   1    -74.5390630 -0.745391E+02  0.757E-02    1.82       0.0  T
   2    -74.5390646 -0.156456E-05  0.430E-02    1.82       1.0  T
   3    -74.5390646 -0.457294E-08  0.823E-03    1.82       1.8  T
   4    -74.5390652 -0.616836E-06  0.552E-03    1.82       2.7  T
   5    -74.5390657 -0.505494E-06  0.264E-03    1.82       5.6  T
   6    -74.5390658 -0.564226E-07  0.181E-03    1.82       8.2  T
   7    -74.5390658 -0.419678E-07  0.648E-04    1.82      22.8  T
   8    -74.5390658 -0.940315E-08  0.246E-04    1.82      59.9  T
     SCC iter.                  ...        0 min,  0.163 sec
     gradient                   ...        0 min,  0.013 sec
 * total energy  :   -73.5123321 Eh     change       -0.9162704E-04 Eh
   gradient norm :     0.0030463 Eh/α   predicted    -0.6680139E-04 ( -27.09%)
   displ. norm   :     0.4305118 α      lambda       -0.1145357E-03
   maximum displ.:     0.3031479 α      in ANC's #3, #5, #4, ...

........................................................................
.............................. CYCLE   35 ..............................
........................................................................
   1    -74.5397533 -0.745398E+02  0.796E-02    1.82       0.0  T
   2    -74.5397548 -0.151539E-05  0.452E-02    1.82       1.0  T
   3    -74.5397547  0.598299E-07  0.794E-03    1.82       1.9  T
   4    -74.5397553 -0.543605E-06  0.517E-03    1.82       2.8  T
   5    -74.5397557 -0.464494E-06  0.228E-03    1.82       6.5  T
   6    -74.5397558 -0.357873E-07  0.167E-03    1.82       8.8  T
   7    -74.5397558 -0.347763E-07  0.704E-04    1.82      21.0  T
   8    -74.5397558 -0.109449E-07  0.257E-04    1.82      57.3  T
     SCC iter.                  ...        0 min,  0.160 sec
     gradient                   ...        0 min,  0.013 sec
 * total energy  :   -73.5124241 Eh     change       -0.9197808E-04 Eh
   gradient norm :     0.0027589 Eh/α   predicted    -0.6788331E-04 ( -26.20%)
   displ. norm   :     0.4551982 α      lambda       -0.1118158E-03
   maximum displ.:     0.3263988 α      in ANC's #3, #5, #4, ...

........................................................................
.............................. CYCLE   36 ..............................
........................................................................
   1    -74.5397835 -0.745398E+02  0.861E-02    1.81       0.0  T
   2    -74.5397851 -0.159278E-05  0.489E-02    1.81       1.0  T
   3    -74.5397853 -0.184906E-06  0.758E-03    1.81       1.9  T
   4    -74.5397855 -0.206778E-06  0.505E-03    1.81       2.9  T
   5    -74.5397860 -0.487007E-06  0.207E-03    1.81       7.1  T
   6    -74.5397860 -0.266868E-07  0.154E-03    1.81       9.6  T
   7    -74.5397860 -0.335338E-07  0.560E-04    1.81      26.3  T
   8    -74.5397860 -0.643699E-08  0.255E-04    1.81      57.8  T
     SCC iter.                  ...        0 min,  0.161 sec
     gradient                   ...        0 min,  0.012 sec
 * total energy  :   -73.5125165 Eh     change       -0.9242084E-04 Eh
   gradient norm :     0.0029084 Eh/α   predicted    -0.6749522E-04 ( -26.97%)
   displ. norm   :     0.4575815 α      lambda       -0.1365801E-03
   maximum displ.:     0.3325721 α      in ANC's #3, #5, #4, ...

........................................................................
.............................. CYCLE   37 ..............................
........................................................................
   1    -74.5433234 -0.745433E+02  0.891E-02    1.81       0.0  T
   2    -74.5433251 -0.168848E-05  0.506E-02    1.81       1.0  T
   3    -74.5433251 -0.346199E-07  0.713E-03    1.81       2.1  T
   4    -74.5433253 -0.231505E-06  0.451E-03    1.81       3.3  T
   5    -74.5433257 -0.375288E-06  0.149E-03    1.81       9.9  T
   6    -74.5433257 -0.183395E-07  0.112E-03    1.81      13.2  T
   7    -74.5433257 -0.993774E-08  0.686E-04    1.81      21.5  T
   8    -74.5433258 -0.831130E-08  0.268E-04    1.81      55.0  T
     SCC iter.                  ...        0 min,  0.158 sec
     gradient                   ...        0 min,  0.013 sec
 * total energy  :   -73.5125986 Eh     change       -0.8212506E-04 Eh
   gradient norm :     0.0041391 Eh/α   predicted    -0.8259189E-04 (   0.57%)
   displ. norm   :     0.7352681 α      lambda       -0.1822242E-03
   maximum displ.:     0.5308804 α      in ANC's #3, #5, #4, ...

........................................................................
.............................. CYCLE   38 ..............................
........................................................................
   1    -74.5345659 -0.745346E+02  0.147E-01    1.80       0.0  T
   2    -74.5345723 -0.631500E-05  0.830E-02    1.80       1.0  T
   3    -74.5345737 -0.140315E-05  0.126E-02    1.80       1.2  T
   4    -74.5345739 -0.191927E-06  0.780E-03    1.80       1.9  T
   5    -74.5345749 -0.101493E-05  0.400E-03    1.80       3.7  T
   6    -74.5345750 -0.141345E-06  0.291E-03    1.80       5.1  T
   7    -74.5345751 -0.809384E-07  0.161E-03    1.80       9.1  T
   8    -74.5345751 -0.483474E-07  0.526E-04    1.80      28.0  T
   9    -74.5345751 -0.306893E-08  0.281E-04    1.80      52.4  T
     SCC iter.                  ...        0 min,  0.179 sec
     gradient                   ...        0 min,  0.012 sec
 * total energy  :   -73.5126145 Eh     change       -0.1588551E-04 Eh
   gradient norm :     0.0084724 Eh/α   predicted    -0.1403686E-03 ( 783.63%)
   displ. norm   :     0.2198331 α      lambda       -0.1849448E-03
   maximum displ.:     0.1461571 α      in ANC's #3, #5, #4, ...

........................................................................
.............................. CYCLE   39 ..............................
........................................................................
   1    -74.5406762 -0.745407E+02  0.463E-02    1.80       0.0  T
   2    -74.5406772 -0.107598E-05  0.266E-02    1.80       1.0  T
   3    -74.5406768  0.495238E-06  0.590E-03    1.80       2.5  T
   4    -74.5406775 -0.779565E-06  0.288E-03    1.80       5.1  T
   5    -74.5406776 -0.859112E-07  0.149E-03    1.80       9.9  T
   6    -74.5406776 -0.211096E-07  0.968E-04    1.80      15.2  T
   7    -74.5406776 -0.812038E-08  0.675E-04    1.80      21.8  T
     SCC iter.                  ...        0 min,  0.139 sec
     gradient                   ...        0 min,  0.013 sec
 * total energy  :   -73.5127063 Eh     change       -0.9182457E-04 Eh
   gradient norm :     0.0031427 Eh/α   predicted    -0.9694258E-04 (   5.57%)
   displ. norm   :     0.2200253 α      lambda       -0.5769566E-04
   maximum displ.:     0.1598008 α      in ANC's #3, #5, #4, ...

........................................................................
.............................. CYCLE   40 ..............................
........................................................................
   1    -74.5417988 -0.745418E+02  0.439E-02    1.80       0.0  T
   2    -74.5417993 -0.576377E-06  0.250E-02    1.80       1.0  T
   3    -74.5417991  0.230450E-06  0.447E-03    1.80       3.3  T
   4    -74.5417995 -0.355870E-06  0.223E-03    1.80       6.6  T
   5    -74.5417995 -0.627153E-07  0.825E-04    1.80      17.9  T
   6    -74.5417995 -0.662783E-08  0.565E-04    1.80      26.1  T
     SCC iter.                  ...        0 min,  0.119 sec
     gradient                   ...        0 min,  0.013 sec
 * total energy  :   -73.5127459 Eh     change       -0.3953890E-04 Eh
   gradient norm :     0.0021820 Eh/α   predicted    -0.3024891E-04 ( -23.50%)
   displ. norm   :     0.4582364 α      lambda       -0.8477644E-04
   maximum displ.:     0.3420773 α      in ANC's #3, #5, #4, ...

........................................................................
.............................. CYCLE   41 ..............................
........................................................................
   1    -74.5407316 -0.745407E+02  0.919E-02    1.80       0.0  T
   2    -74.5407335 -0.186596E-05  0.520E-02    1.80       1.0  T
   3    -74.5407335 -0.789439E-07  0.825E-03    1.80       1.8  T
   4    -74.5407338 -0.292260E-06  0.537E-03    1.80       2.7  T
   5    -74.5407344 -0.577307E-06  0.212E-03    1.80       6.9  T
   6    -74.5407344 -0.300367E-07  0.160E-03    1.80       9.2  T
   7    -74.5407345 -0.279184E-07  0.748E-04    1.80      19.7  T
   8    -74.5407345 -0.118980E-07  0.293E-04    1.80      50.4  T
     SCC iter.                  ...        0 min,  0.161 sec
     gradient                   ...        0 min,  0.012 sec
 * total energy  :   -73.5128097 Eh     change       -0.6384304E-04 Eh
   gradient norm :     0.0021573 Eh/α   predicted    -0.5128837E-04 ( -19.66%)
   displ. norm   :     0.4292266 α      lambda       -0.5689275E-04
   maximum displ.:     0.3262025 α      in ANC's #3, #5, #4, ...

........................................................................
.............................. CYCLE   42 ..............................
........................................................................
   1    -74.5391293 -0.745391E+02  0.869E-02    1.80       0.0  T
   2    -74.5391311 -0.177217E-05  0.490E-02    1.80       1.0  T
   3    -74.5391315 -0.397723E-06  0.771E-03    1.80       1.9  T
   4    -74.5391315  0.101723E-07  0.502E-03    1.80       2.9  T
   5    -74.5391320 -0.523533E-06  0.220E-03    1.80       6.7  T
   6    -74.5391321 -0.344994E-07  0.162E-03    1.80       9.1  T
   7    -74.5391321 -0.306311E-07  0.641E-04    1.80      23.0  T
   8    -74.5391321 -0.961639E-08  0.262E-04    1.80      56.2  T
     SCC iter.                  ...        0 min,  0.165 sec
     gradient                   ...        0 min,  0.013 sec
 * total energy  :   -73.5128433 Eh     change       -0.3362174E-04 Eh
   gradient norm :     0.0038992 Eh/α   predicted    -0.3368976E-04 (   0.20%)
   displ. norm   :     0.1901523 α      lambda       -0.5187349E-04
   maximum displ.:     0.1455974 α      in ANC's #3, #5, #4, ...
 * RMSD in coord.:     0.8720662 α      energy gain  -0.1610314E-02 Eh

generating ANC from model Hessian ...
Using Lindh-Hessian (1995)
 Shifting diagonal of input Hessian by    1.0247715146537197E-002
 Lowest  eigenvalues of input Hessian
    0.010000    0.000000    0.000000    0.000000    0.000000    0.000000
    0.000000    0.010432    0.010531    0.010678    0.010868    0.011003
    0.011521    0.012113    0.012895    0.013464    0.013985    0.014110
 Highest eigenvalues
    1.871343    1.901207    1.910724    1.958117    1.994924    2.017793


........................................................................
.............................. CYCLE   43 ..............................
........................................................................
   1    -74.5406763 -0.745407E+02  0.406E-02    1.80       0.0  T
   2    -74.5406767 -0.446895E-06  0.232E-02    1.80       1.0  T
   3    -74.5406765  0.249881E-06  0.476E-03    1.80       3.1  T
   4    -74.5406769 -0.455987E-06  0.256E-03    1.80       5.8  T
   5    -74.5406770 -0.669272E-07  0.129E-03    1.80      11.4  T
   6    -74.5406770 -0.166963E-07  0.965E-04    1.80      15.3  T
   7    -74.5406770 -0.976314E-08  0.503E-04    1.80      29.3  T
     SCC iter.                  ...        0 min,  0.141 sec
     gradient                   ...        0 min,  0.012 sec
 * total energy  :   -73.5128717 Eh     change       -0.2839216E-04 Eh
   gradient norm :     0.0030680 Eh/α   predicted     0.0000000E+00 (-100.00%)
   displ. norm   :     0.0284118 α      lambda       -0.2909877E-04
   maximum displ.:     0.0113694 α      in ANC's #13, #7, #3, ...

........................................................................
.............................. CYCLE   44 ..............................
........................................................................
   1    -74.5415640 -0.745416E+02  0.851E-03    1.80       0.0  T
   2    -74.5415641 -0.106348E-06  0.484E-03    1.80       3.0  T
   3    -74.5415641  0.500659E-07  0.180E-03    1.80       8.2  T
   4    -74.5415642 -0.749144E-07  0.732E-04    1.80      20.1  T
   5    -74.5415642 -0.627330E-08  0.385E-04    1.80      38.3  T
     SCC iter.                  ...        0 min,  0.101 sec
     gradient                   ...        0 min,  0.013 sec
 * total energy  :   -73.5128926 Eh     change       -0.2086227E-04 Eh
   gradient norm :     0.0013497 Eh/α   predicted    -0.1460806E-04 ( -29.98%)
   displ. norm   :     0.0709949 α      lambda       -0.1860039E-04
   maximum displ.:     0.0321445 α      in ANC's #7, #3, #13, ...

........................................................................
.............................. CYCLE   45 ..............................
........................................................................
   1    -74.5424938 -0.745425E+02  0.153E-02    1.80       0.0  T
   2    -74.5424940 -0.202001E-06  0.903E-03    1.80       1.6  T
   3    -74.5424936  0.372910E-06  0.437E-03    1.80       3.4  T
   4    -74.5424942 -0.538855E-06  0.155E-03    1.80       9.5  T
   5    -74.5424942 -0.163083E-07  0.982E-04    1.80      15.0  T
   6    -74.5424942 -0.882190E-08  0.648E-04    1.80      22.7  T
     SCC iter.                  ...        0 min,  0.121 sec
     gradient                   ...        0 min,  0.013 sec
 * total energy  :   -73.5129071 Eh     change       -0.1446169E-04 Eh
   gradient norm :     0.0015298 Eh/α   predicted    -0.9321420E-05 ( -35.54%)
   displ. norm   :     0.0455839 α      lambda       -0.7247460E-05
   maximum displ.:     0.0207979 α      in ANC's #3, #7, #4, ...

........................................................................
.............................. CYCLE   46 ..............................
........................................................................
   1    -74.5421634 -0.745422E+02  0.893E-03    1.80       0.0  T
   2    -74.5421634 -0.584628E-07  0.516E-03    1.80       2.9  T
   3    -74.5421634  0.701435E-07  0.223E-03    1.80       6.6  T
   4    -74.5421635 -0.126077E-06  0.111E-03    1.80      13.2  T
   5    -74.5421635 -0.108198E-07  0.659E-04    1.80      22.4  T
   6    -74.5421635 -0.437954E-08  0.443E-04    1.80      33.3  T
     SCC iter.                  ...        0 min,  0.120 sec
     gradient                   ...        0 min,  0.013 sec
 * total energy  :   -73.5129164 Eh     change       -0.9380158E-05 Eh
   gradient norm :     0.0010308 Eh/α   predicted    -0.3709962E-05 ( -60.45%)
   displ. norm   :     0.1209100 α      lambda       -0.1483556E-04
   maximum displ.:     0.0570264 α      in ANC's #3, #4, #6, ...

........................................................................
.............................. CYCLE   47 ..............................
........................................................................
   1    -74.5414309 -0.745414E+02  0.237E-02    1.80       0.0  T
   2    -74.5414312 -0.286133E-06  0.137E-02    1.80       1.1  T
   3    -74.5414311  0.744591E-07  0.412E-03    1.80       3.6  T
   4    -74.5414314 -0.321378E-06  0.261E-03    1.80       5.7  T
   5    -74.5414315 -0.720998E-07  0.152E-03    1.80       9.7  T
   6    -74.5414315 -0.230908E-07  0.101E-03    1.80      14.5  T
   7    -74.5414315 -0.132262E-07  0.356E-04    1.80      41.4  T
   8    -74.5414315 -0.283995E-08  0.101E-04    1.80     146.1  T
     SCC iter.                  ...        0 min,  0.162 sec
     gradient                   ...        0 min,  0.013 sec
 * total energy  :   -73.5129312 Eh     change       -0.1472415E-04 Eh
   gradient norm :     0.0010685 Eh/α   predicted    -0.7467846E-05 ( -49.28%)
   displ. norm   :     0.0903104 α      lambda       -0.6798227E-05
   maximum displ.:     0.0459839 α      in ANC's #3, #4, #6, ...

........................................................................
.............................. CYCLE   48 ..............................
........................................................................
   1    -74.5412413 -0.745412E+02  0.165E-02    1.80       0.0  T
   2    -74.5412415 -0.137126E-06  0.945E-03    1.80       1.6  T
   3    -74.5412415 -0.175605E-07  0.266E-03    1.80       5.5  T
   4    -74.5412416 -0.904484E-07  0.183E-03    1.80       8.0  T
   5    -74.5412416 -0.397599E-07  0.101E-03    1.80      14.6  T
   6    -74.5412416 -0.926431E-08  0.679E-04    1.80      21.7  T
   7    -74.5412416 -0.600693E-08  0.215E-04    1.80      68.7  T
     SCC iter.                  ...        0 min,  0.141 sec
     gradient                   ...        0 min,  0.013 sec
 * total energy  :   -73.5129391 Eh     change       -0.7900500E-05 Eh
   gradient norm :     0.0011265 Eh/α   predicted    -0.3412259E-05 ( -56.81%)
   displ. norm   :     0.1147373 α      lambda       -0.8772965E-05
   maximum displ.:     0.0611974 α      in ANC's #3, #4, #6, ...

........................................................................
.............................. CYCLE   49 ..............................
........................................................................
   1    -74.5412307 -0.745412E+02  0.210E-02    1.80       0.0  T
   2    -74.5412309 -0.173846E-06  0.122E-02    1.80       1.2  T
   3    -74.5412309  0.202671E-07  0.320E-03    1.80       4.6  T
   4    -74.5412311 -0.175229E-06  0.200E-03    1.80       7.4  T
   5    -74.5412311 -0.412310E-07  0.114E-03    1.80      13.0  T
   6    -74.5412311 -0.118775E-07  0.736E-04    1.80      20.0  T
   7    -74.5412311 -0.688587E-08  0.260E-04    1.80      56.7  T
     SCC iter.                  ...        0 min,  0.140 sec
     gradient                   ...        0 min,  0.013 sec
 * total energy  :   -73.5129499 Eh     change       -0.1088307E-04 Eh
   gradient norm :     0.0008621 Eh/α   predicted    -0.4415050E-05 ( -59.43%)
   displ. norm   :     0.1637288 α      lambda       -0.1236405E-04
   maximum displ.:     0.0901516 α      in ANC's #3, #4, #2, ...

........................................................................
.............................. CYCLE   50 ..............................
........................................................................
   1    -74.5413824 -0.745414E+02  0.285E-02    1.79       0.0  T
   2    -74.5413827 -0.292031E-06  0.165E-02    1.79       1.0  T
   3    -74.5413827  0.494727E-07  0.413E-03    1.79       3.6  T
   4    -74.5413829 -0.296385E-06  0.253E-03    1.79       5.8  T
   5    -74.5413830 -0.656560E-07  0.140E-03    1.79      10.5  T
   6    -74.5413830 -0.173277E-07  0.885E-04    1.79      16.7  T
   7    -74.5413830 -0.107049E-07  0.309E-04    1.79      47.7  T
     SCC iter.                  ...        0 min,  0.140 sec
     gradient                   ...        0 min,  0.013 sec
 * total energy  :   -73.5129650 Eh     change       -0.1500324E-04 Eh
   gradient norm :     0.0008049 Eh/α   predicted    -0.6257632E-05 ( -58.29%)
   displ. norm   :     0.2095076 α      lambda       -0.1399106E-04
   maximum displ.:     0.1174687 α      in ANC's #3, #4, #2, ...

........................................................................
.............................. CYCLE   51 ..............................
........................................................................
   1    -74.5414518 -0.745415E+02  0.362E-02    1.79       0.0  T
   2    -74.5414522 -0.384851E-06  0.209E-02    1.79       1.0  T
   3    -74.5414523 -0.125400E-06  0.406E-03    1.79       3.6  T
   4    -74.5414525 -0.166876E-06  0.289E-03    1.79       5.1  T
   5    -74.5414526 -0.104724E-06  0.159E-03    1.79       9.3  T
   6    -74.5414526 -0.241955E-07  0.942E-04    1.79      15.7  T
   7    -74.5414526 -0.127070E-07  0.306E-04    1.79      48.1  T
     SCC iter.                  ...        0 min,  0.141 sec
     gradient                   ...        0 min,  0.013 sec
 * total energy  :   -73.5129815 Eh     change       -0.1659403E-04 Eh
   gradient norm :     0.0011062 Eh/α   predicted    -0.7133340E-05 ( -57.01%)
   displ. norm   :     0.2070903 α      lambda       -0.1402574E-04
   maximum displ.:     0.1179607 α      in ANC's #3, #4, #2, ...

........................................................................
.............................. CYCLE   52 ..............................
........................................................................
   1    -74.5416294 -0.745416E+02  0.357E-02    1.79       0.0  T
   2    -74.5416297 -0.309975E-06  0.205E-02    1.79       1.0  T
   3    -74.5416298 -0.139211E-06  0.330E-03    1.79       4.5  T
   4    -74.5416299 -0.439451E-07  0.248E-03    1.79       5.9  T
   5    -74.5416300 -0.993042E-07  0.133E-03    1.79      11.1  T
   6    -74.5416300 -0.183891E-07  0.716E-04    1.79      20.6  T
   7    -74.5416300 -0.793069E-08  0.232E-04    1.79      63.6  T
     SCC iter.                  ...        0 min,  0.143 sec
     gradient                   ...        0 min,  0.013 sec
 * total energy  :   -73.5129993 Eh     change       -0.1778623E-04 Eh
   gradient norm :     0.0011189 Eh/α   predicted    -0.7147233E-05 ( -59.82%)
   displ. norm   :     0.2455699 α      lambda       -0.1802537E-04
   maximum displ.:     0.1406555 α      in ANC's #3, #2, #4, ...

........................................................................
.............................. CYCLE   53 ..............................
........................................................................
   1    -74.5416526 -0.745417E+02  0.426E-02    1.79       0.0  T
   2    -74.5416530 -0.390023E-06  0.245E-02    1.79       1.0  T
   3    -74.5416531 -0.516585E-07  0.403E-03    1.79       3.7  T
   4    -74.5416532 -0.165655E-06  0.273E-03    1.79       5.4  T
   5    -74.5416533 -0.108032E-06  0.139E-03    1.79      10.6  T
   6    -74.5416534 -0.166883E-07  0.847E-04    1.79      17.4  T
   7    -74.5416534 -0.109348E-07  0.322E-04    1.79      45.8  T
     SCC iter.                  ...        0 min,  0.143 sec
     gradient                   ...        0 min,  0.013 sec
 * total energy  :   -73.5130225 Eh     change       -0.2315572E-04 Eh
   gradient norm :     0.0009282 Eh/α   predicted    -0.9255475E-05 ( -60.03%)
   displ. norm   :     0.3110573 α      lambda       -0.2265616E-04
   maximum displ.:     0.1791312 α      in ANC's #3, #2, #4, ...

........................................................................
.............................. CYCLE   54 ..............................
........................................................................
   1    -74.5414519 -0.745415E+02  0.549E-02    1.79       0.0  T
   2    -74.5414525 -0.588119E-06  0.316E-02    1.79       1.0  T
   3    -74.5414525 -0.209864E-07  0.509E-03    1.79       2.9  T
   4    -74.5414528 -0.296676E-06  0.335E-03    1.79       4.4  T
   5    -74.5414529 -0.161027E-06  0.167E-03    1.79       8.8  T
   6    -74.5414530 -0.228362E-07  0.106E-03    1.79      13.9  T
   7    -74.5414530 -0.169686E-07  0.407E-04    1.79      36.3  T
   8    -74.5414530 -0.349269E-08  0.189E-04    1.79      78.0  T
     SCC iter.                  ...        0 min,  0.163 sec
     gradient                   ...        0 min,  0.012 sec
 * total energy  :   -73.5130491 Eh     change       -0.2656882E-04 Eh
   gradient norm :     0.0008933 Eh/α   predicted    -0.1181784E-04 ( -55.52%)
   displ. norm   :     0.2704068 α      lambda       -0.1785900E-04
   maximum displ.:     0.1567760 α      in ANC's #3, #2, #4, ...

........................................................................
.............................. CYCLE   55 ..............................
........................................................................
   1    -74.5415112 -0.745415E+02  0.482E-02    1.79       0.0  T
   2    -74.5415117 -0.426979E-06  0.276E-02    1.79       1.0  T
   3    -74.5415117 -0.581392E-07  0.420E-03    1.79       3.5  T
   4    -74.5415118 -0.101755E-06  0.285E-03    1.79       5.2  T
   5    -74.5415120 -0.148498E-06  0.133E-03    1.79      11.1  T
   6    -74.5415120 -0.130550E-07  0.889E-04    1.79      16.6  T
   7    -74.5415120 -0.125314E-07  0.319E-04    1.79      46.2  T
     SCC iter.                  ...        0 min,  0.145 sec
     gradient                   ...        0 min,  0.013 sec
 * total energy  :   -73.5130684 Eh     change       -0.1931928E-04 Eh
   gradient norm :     0.0010539 Eh/α   predicted    -0.9224163E-05 ( -52.25%)
   displ. norm   :     0.2235830 α      lambda       -0.1235461E-04
   maximum displ.:     0.1316206 α      in ANC's #3, #2, #7, ...

........................................................................
.............................. CYCLE   56 ..............................
........................................................................
   1    -74.5412838 -0.745413E+02  0.414E-02    1.79       0.0  T
   2    -74.5412840 -0.270652E-06  0.238E-02    1.79       1.0  T
   3    -74.5412841 -0.123152E-06  0.297E-03    1.79       5.0  T
   4    -74.5412841  0.297701E-07  0.186E-03    1.79       7.9  T
   5    -74.5412842 -0.864588E-07  0.102E-03    1.79      14.5  T
   6    -74.5412842 -0.930373E-08  0.606E-04    1.79      24.3  T
   7    -74.5412842 -0.602778E-08  0.220E-04    1.79      67.1  T
     SCC iter.                  ...        0 min,  0.141 sec
     gradient                   ...        0 min,  0.013 sec
 * total energy  :   -73.5130831 Eh     change       -0.1467482E-04 Eh
   gradient norm :     0.0009704 Eh/α   predicted    -0.6318771E-05 ( -56.94%)
   displ. norm   :     0.2766764 α      lambda       -0.1712434E-04
   maximum displ.:     0.1609143 α      in ANC's #3, #2, #7, ...

........................................................................
.............................. CYCLE   57 ..............................
........................................................................
   1    -74.5418180 -0.745418E+02  0.518E-02    1.79       0.0  T
   2    -74.5418184 -0.403673E-06  0.296E-02    1.79       1.0  T
   3    -74.5418185 -0.121691E-06  0.374E-03    1.79       3.9  T
   4    -74.5418185  0.671829E-07  0.242E-03    1.79       6.1  T
[...]
 ---------------------------
R(CMA): 10.9684
           -------------------------------------------------
          |                Final Singlepoint                |
           -------------------------------------------------

          ...................................................
          :                      SETUP                      :
          :.................................................:
          :  # basis functions                 154          :
          :  # atomic orbitals                 149          :
          :  # shells                           77          :
          :  # electrons                       136          :
          :  max. iterations                   250          :
          :  Hamiltonian                  GFN2-xTB          :
          :  restarted?                      false          :
          :  GBSA solvation                   true          :
          :  PC potential                    false          :
          :  electronic temp.          300.0000000     K    :
          :  accuracy                    1.0000000          :
          :  -> integral cutoff          0.2500000E+02      :
          :  -> integral neglect         0.1000000E-07      :
          :  -> SCF convergence          0.1000000E-05 Eh   :
          :  -> wf. convergence          0.1000000E-03 e    :
          :  Broyden damping             0.4000000          :
          ...................................................

 iter      E             dE          RMSdq      gap      omega  full diag
   1    -74.5417864 -0.745418E+02  0.129E-04    1.79       0.0  T
   2    -74.5417864 -0.115335E-09  0.946E-05    1.79     155.8  T
   3    -74.5417864 -0.106638E-09  0.668E-05    1.79     220.6  T

   *** convergence criteria satisfied after 3 iterations ***

         #    Occupation            Energy/Eh            Energy/eV
      -------------------------------------------------------------
         1        2.0000           -1.0063730             -27.3848
       ...           ...                  ...                  ...
        62        2.0000           -0.3999362             -10.8828
        63        2.0000           -0.3970181             -10.8034
        64        2.0000           -0.3945282             -10.7357
        65        2.0000           -0.3915590             -10.6549
        66        2.0000           -0.3908111             -10.6345
        67        2.0000           -0.3760719             -10.2334
        68        2.0000           -0.3498650              -9.5203 (HOMO)
        69                         -0.2841201              -7.7313 (LUMO)
        70                         -0.2567800              -6.9873
        71                         -0.2282511              -6.2110
        72                         -0.2223324              -6.0500
        73                         -0.2161353              -5.8813
       ...                                ...                  ...
       149                          0.7024410              19.1144
      -------------------------------------------------------------
                  HL-Gap            0.0657449 Eh            1.7890 eV
             Fermi-level           -0.3169926 Eh           -8.6258 eV

 SCC (total)                   0 d,  0 h,  0 min,  0.081 sec
 SCC setup                      ...        0 min,  0.001 sec (  0.695%)
 Dispersion                     ...        0 min,  0.001 sec (  0.952%)
 classical contributions        ...        0 min,  0.000 sec (  0.071%)
 integral evaluation            ...        0 min,  0.005 sec (  5.621%)
 iterations                     ...        0 min,  0.060 sec ( 74.541%)
 molecular gradient             ...        0 min,  0.012 sec ( 15.169%)
 printout                       ...        0 min,  0.002 sec (  2.551%)

         :::::::::::::::::::::::::::::::::::::::::::::::::::::
         ::                     SUMMARY                     ::
         :::::::::::::::::::::::::::::::::::::::::::::::::::::
         :: total energy             -73.513155245431 Eh    ::
         :: total w/o Gsasa/hb       -73.506778646431 Eh    ::
         :: gradient norm              0.000788088842 Eh/a0 ::
         :: HOMO-LUMO gap              1.789010998929 eV    ::
         ::.................................................::
         :: SCC energy               -74.541786421780 Eh    ::
         :: -> isotropic ES            0.126414459748 Eh    ::
         :: -> anisotropic ES         -0.029952727765 Eh    ::
         :: -> anisotropic XC          0.023333613313 Eh    ::
         :: -> dispersion             -0.057423146141 Eh    ::
         :: -> Gsolv                  -0.073955392845 Eh    ::
         ::    -> Gelec               -0.067578793845 Eh    ::
         ::    -> Gsasa                0.001464890484 Eh    ::
         ::    -> Ghb                 -0.008922249182 Eh    ::
         ::    -> Gshift               0.001080759698 Eh    ::
         :: repulsion energy           1.029394092825 Eh    ::
         :: add. restraining           0.000000000000 Eh    ::
         :: total charge               0.000000000000 e     ::
         :::::::::::::::::::::::::::::::::::::::::::::::::::::

           -------------------------------------------------
          |                Property Printout                |
           -------------------------------------------------

    * Orbital Energies and Occupations

         #    Occupation            Energy/Eh            Energy/eV
      -------------------------------------------------------------
         1        2.0000           -1.0063730             -27.3848
       ...           ...                  ...                  ...
        56        2.0000           -0.4372054             -11.8970
        57        2.0000           -0.4353838             -11.8474
        58        2.0000           -0.4303387             -11.7101
        59        2.0000           -0.4043050             -11.0017
        60        2.0000           -0.4027479             -10.9593
        61        2.0000           -0.4001465             -10.8885
        62        2.0000           -0.3999362             -10.8828
        63        2.0000           -0.3970181             -10.8034
        64        2.0000           -0.3945282             -10.7357
        65        2.0000           -0.3915590             -10.6549
        66        2.0000           -0.3908111             -10.6345
        67        2.0000           -0.3760719             -10.2334
        68        2.0000           -0.3498650              -9.5203 (HOMO)
        69                         -0.2841201              -7.7313 (LUMO)
        70                         -0.2567800              -6.9873
        71                         -0.2282511              -6.2110
        72                         -0.2223324              -6.0500
        73                         -0.2161353              -5.8813
        74                         -0.2011198              -5.4727
        75                         -0.1895534              -5.1580
        76                         -0.1839668              -5.0060
        77                         -0.1801295              -4.9016
        78                         -0.1619308              -4.4064
        79                         -0.1481357              -4.0310
       ...                                ...                  ...
       149                          0.7024410              19.1144
      -------------------------------------------------------------
                  HL-Gap            0.0657449 Eh            1.7890 eV
             Fermi-level           -0.3169926 Eh           -8.6258 eV

     #   Z          covCN         q      C6AA      α(0)
     1   7 N        3.484    -0.169    24.654     7.375
     2   6 C        3.734    -0.025    21.107     6.557
     3   6 C        3.828    -0.084    22.073     6.685
     4   6 C        2.987     0.028    27.377     8.583
     5   6 C        3.111    -0.059    29.299     8.868
     6   6 C        3.109    -0.057    29.267     8.863
     7   6 C        3.020     0.011    27.741     8.640
     8   6 C        3.014     0.018    27.588     8.616
     9   6 C        3.110    -0.065    29.458     8.892
    10   6 C        3.126    -0.001    27.852     8.641
    11   6 C        3.756    -0.118    22.805     6.809
    12   6 C        3.017     0.006    27.863     8.659
    13   6 C        3.028     0.020    27.543     8.609
    14   6 C        3.107    -0.058    29.285     8.867
    15   6 C        3.097    -0.057    29.294     8.870
    16   6 C        3.027     0.017    27.597     8.617
    17   6 C        3.031     0.006    27.852     8.656
    18   6 C        3.134    -0.005    27.921     8.650
    19   6 C        3.755    -0.116    22.783     6.806
    20   6 C        3.120    -0.057    29.230     8.855
    21   6 C        2.930    -0.025    28.631     8.775
    22  16 S        2.371    -0.066   143.781    20.181
    23  16 S        2.399    -0.061   143.581    20.167
    24  16 S        2.380    -0.065   143.760    20.180
    25  16 S        2.388    -0.035   142.515    20.092
    26  17 Cl       0.048    -0.947   124.871    17.007
    27   1 H        0.859     0.308     0.690     1.301
    28   1 H        0.859     0.302     0.708     1.319
    29   1 H        0.904     0.297     0.720     1.327
    30   1 H        0.924     0.114     1.660     2.015
    31   1 H        0.925     0.102     1.771     2.081
    32   1 H        0.924     0.079     1.986     2.204
    33   1 H        0.924     0.088     1.901     2.156
    34   1 H        0.926     0.041     2.431     2.438
    35   1 H        0.926     0.035     2.518     2.481
    36   1 H        0.926     0.040     2.450     2.448
    37   1 H        0.925     0.059     2.208     2.324
    38   1 H        0.925     0.061     2.189     2.314
    39   1 H        0.925     0.062     2.179     2.309
    40   1 H        0.926     0.048     2.344     2.394
    41   1 H        0.926     0.052     2.299     2.371
    42   1 H        0.925     0.054     2.266     2.354
    43   1 H        0.925     0.058     2.221     2.331
    44   1 H        0.925     0.059     2.212     2.326
    45   1 H        0.926     0.049     2.337     2.390
    46   1 H        0.927     0.056     2.240     2.340

 Mol. C6AA /au·bohr⁶  :      38210.930146
 Mol. C8AA /au·bohr⁸  :    1177215.866952
 Mol. α(0) /au        :        314.741739


Wiberg/Mayer (AO) data.
largest (>0.10) Wiberg bond orders for each atom

 ---------------------------------------------------------------------------
     #   Z sym  total        # sym  WBO       # sym  WBO       # sym  WBO
 ---------------------------------------------------------------------------
     1   7 N    3.643 --     2 C    0.974    28 H    0.894    27 H    0.891
                            29 H    0.831
     2   6 C    3.930 --     3 C    0.992     1 N    0.974    31 H    0.969
                            30 H    0.964
     3   6 C    3.988 --     4 C    1.027     2 C    0.992    32 H    0.962
                            33 H    0.956
     4   6 C    3.925 --     5 C    1.572    25 S    1.157     3 C    1.027
     5   6 C    3.985 --     4 C    1.572     6 C    1.302    34 H    0.963
     6   6 C    3.968 --     7 C    1.498     5 C    1.302    35 H    0.964
     7   6 C    3.952 --     6 C    1.498     8 C    1.162    25 S    1.125
     8   6 C    3.931 --     9 C    1.476     7 C    1.162    24 S    1.127
     9   6 C    3.980 --     8 C    1.476    10 C    1.312    36 H    0.962
    10   6 C    3.973 --    12 C    1.439     9 C    1.312    11 C    1.029
    11   6 C    3.993 --    10 C    1.029    37 H    0.981    38 H    0.963
                            39 H    0.963
    12   6 C    3.930 --    10 C    1.439    13 C    1.182    24 S    1.106
    13   6 C    3.938 --    14 C    1.464    12 C    1.182    23 S    1.119
    14   6 C    3.970 --    13 C    1.464    15 C    1.344    40 H    0.959
    15   6 C    3.984 --    16 C    1.474    14 C    1.344    41 H    0.960
    16   6 C    3.928 --    15 C    1.474    17 C    1.157    23 S    1.124
    17   6 C    3.943 --    18 C    1.478    16 C    1.157    22 S    1.117
    18   6 C    3.968 --    17 C    1.478    20 C    1.267    19 C    1.026
    19   6 C    3.994 --    18 C    1.026    44 H    0.981    42 H    0.973
                            43 H    0.964
    20   6 C    3.985 --    21 C    1.612    18 C    1.267    45 H    0.963
    21   6 C    3.923 --    20 C    1.612    22 S    1.186    46 H    0.968
    22  16 S    2.591 --    21 C    1.186    17 C    1.117
    23  16 S    2.583 --    16 C    1.124    13 C    1.119
    24  16 S    2.556 --     8 C    1.127    12 C    1.106
    25  16 S    2.578 --     4 C    1.157     7 C    1.125
    26  17 Cl   0.103
    27   1 H    0.904 --     1 N    0.891
    28   1 H    0.909 --     1 N    0.894
    29   1 H    0.912 --     1 N    0.831
    30   1 H    0.987 --     2 C    0.964
    31   1 H    0.990 --     2 C    0.969
    32   1 H    0.993 --     3 C    0.962
    33   1 H    0.990 --     3 C    0.956
    34   1 H    0.998 --     5 C    0.963
    35   1 H    0.999 --     6 C    0.964
    36   1 H    0.998 --     9 C    0.962
    37   1 H    0.996 --    11 C    0.981
    38   1 H    0.995 --    11 C    0.963
    39   1 H    0.995 --    11 C    0.963
    40   1 H    0.997 --    14 C    0.959
    41   1 H    0.997 --    15 C    0.960
    42   1 H    0.996 --    19 C    0.973
    43   1 H    0.995 --    19 C    0.964
    44   1 H    0.996 --    19 C    0.981
    45   1 H    0.997 --    20 C    0.963
    46   1 H    0.996 --    21 C    0.968
 ---------------------------------------------------------------------------

Topologies differ in total number of bonds
Writing topology from bond orders to xtbtopo.mol

molecular dipole:
                 x           y           z       tot (Debye)
 q only:        2.247       4.242       2.619
   full:        2.075       3.567       2.187      11.871
molecular quadrupole (traceless):
                xx          xy          yy          xz          yz          zz
 q only:       -1.792      15.079     -17.262      32.006      34.530      19.055
  q+dip:        5.098      21.508     -15.446      33.143      37.849      10.348
   full:        5.444      20.227     -14.753      33.458      35.389       9.309

           -------------------------------------------------
          |                Geometry Summary                 |
           -------------------------------------------------

      molecular mass/u    :      438.0923234
   center of mass at/Å    :        9.3361325       2.4472526       1.4647662
  moments of inertia/u·Å² :        0.9177775E+03   0.1361972E+05   0.1439665E+05
rotational constants/cm⁻¹ :        0.1836789E-01   0.1237737E-02   0.1170942E-02

 * 48 selected distances

     #   Z          #   Z                                           value/Å
     1   7 N        2   6 C                                       1.4743520
     2   6 C        3   6 C                                       1.5298916
     3   6 C        4   6 C                                       1.4880581
     4   6 C        5   6 C                                       1.3620356
     5   6 C        6   6 C                                       1.4064350
     6   6 C        7   6 C                                       1.3730640
     7   6 C        8   6 C                                       1.4259416
     8   6 C        9   6 C                                       1.3738701
     9   6 C       10   6 C                                       1.4046986
    10   6 C       11   6 C                                       1.4907249
    10   6 C       12   6 C                                       1.3829438
    12   6 C       13   6 C                                       1.4222676
    13   6 C       14   6 C                                       1.3772731
    14   6 C       15   6 C                                       1.3975797
    15   6 C       16   6 C                                       1.3754882
    16   6 C       17   6 C                                       1.4293763
    17   6 C       18   6 C                                       1.3783090
    18   6 C       19   6 C                                       1.4925713
    18   6 C       20   6 C                                       1.4150938
    20   6 C       21   6 C                                       1.3565740
    17   6 C       22  16 S                                       1.7473200 (max)
    21   6 C       22  16 S                                       1.7176618
    13   6 C       23  16 S                                       1.7420042
    16   6 C       23  16 S                                       1.7433475
     8   6 C       24  16 S                                       1.7389195
    12   6 C       24  16 S                                       1.7456733
     4   6 C       25  16 S                                       1.7371577
     7   6 C       25  16 S                                       1.7371594
     1   7 N       27   1 H                                       1.0227007 (min)
     1   7 N       28   1 H                                       1.0233632
     1   7 N       29   1 H                                       1.0529540
     2   6 C       30   1 H                                       1.0911255
     2   6 C       31   1 H                                       1.0897175
     3   6 C       32   1 H                                       1.0913568
     3   6 C       33   1 H                                       1.0913913
     5   6 C       34   1 H                                       1.0754612
     6   6 C       35   1 H                                       1.0743806
     9   6 C       36   1 H                                       1.0750109
    11   6 C       37   1 H                                       1.0862191
    11   6 C       38   1 H                                       1.0897717
    11   6 C       39   1 H                                       1.0896988
    14   6 C       40   1 H                                       1.0758396
    15   6 C       41   1 H                                       1.0725496
    19   6 C       42   1 H                                       1.0880793
    19   6 C       43   1 H                                       1.0898285
    19   6 C       44   1 H                                       1.0866263
    20   6 C       45   1 H                                       1.0752307
    21   6 C       46   1 H                                       1.0710037

 * 5 distinct bonds (by element types)

   Z      Z             #   av. dist./Å        max./Å        min./Å
   1 H    6 C          17     1.0831348     1.0913913     1.0710037
   6 C    6 C          19     1.4148524     1.5298916     1.3565740
   1 H    7 N           3     1.0330060     1.0529540     1.0227007
   6 C    7 N           1     1.4743520     1.4743520     1.4743520
   6 C   16 S           8     1.7386554     1.7473200     1.7176618


optimized geometry written to: xtbopt.xyz


           -------------------------------------------------
          | TOTAL ENERGY              -73.513155245431 Eh   |
          | GRADIENT NORM               0.000788088842 Eh/α |
          | HOMO-LUMO GAP               1.789010998929 eV   |
           -------------------------------------------------

------------------------------------------------------------------------
 * finished run on 2023/01/24 at 14:57:15.358     
------------------------------------------------------------------------
 total:
 * wall-time:     0 d,  0 h,  0 min, 11.854 sec
 *  cpu-time:     0 d,  0 h, 28 min,  5.438 sec
 * ratio c/w:   142.185 speedup
 SCF:
 * wall-time:     0 d,  0 h,  0 min,  0.372 sec
 *  cpu-time:     0 d,  0 h,  0 min, 52.209 sec
 * ratio c/w:   140.387 speedup
 ANC optimizer:
 * wall-time:     0 d,  0 h,  0 min, 11.457 sec
 *  cpu-time:     0 d,  0 h, 27 min,  9.872 sec
 * ratio c/w:   142.259 speedup

