18
 energy: -22.662952353001 gnorm: 0.000409401824 xtb: 6.5.1 (fef0646)
N            3.72644385880229       -0.08310237900115       -0.85852537622862
C            2.49557580814717        0.08160453660178       -0.03575093363461
C            2.81626518454491        0.79717781917865        1.25066977119186
C            2.80555637153694        2.18607823892441        1.29964980209614
C            3.11743785963539        2.84568947705646        2.47549956902262
C            3.44471919251909        2.12191490534472        3.61062322113582
C            3.45863081949284        0.73734174262930        3.56790670231623
C            3.14786595976319        0.07716971981326        2.39177785241943
H            3.50975108894999       -0.56575638380961       -1.73846351312600
H            4.42388915208890       -0.63089876567216       -0.34128128766421
H            4.13313915421925        0.83494066349345       -1.07328360952672
H            2.08215273594356       -0.90270512005649        0.18200739034667
H            1.76481219806185        0.65605949429024       -0.60441317119179
H            2.53773590505036        2.76020752393728        0.42561438988821
H            3.10203707738762        3.92462481205542        2.51164129786819
H            3.68355527522278        2.63662082160128        4.52945889990491
H            3.70894995803152        0.17453885353090        4.45464047057114
H            3.15057240060235       -1.00212595991772        2.37336852461073
