18
 energy: -22.554732637146 gnorm: 0.000396703127 xtb: 6.5.1 (fef0646)
N            1.37679567746128        0.68705224768771       -0.70746763881681
C            2.55115531822285        0.03220142173939       -0.02072866747547
C            3.02004372268567       -1.12935742829212       -0.84961585948223
C            3.96608769347904       -0.93516633323549       -1.85052850280692
C            4.37833145318222       -2.00033787841689       -2.63137125867349
C            3.84469800254672       -3.26161453335864       -2.42057458740331
C            2.89953661982152       -3.45950538249907       -1.42690470254742
C            2.48486875423538       -2.39643449322327       -0.64432785596466
H            1.02812724634898        1.49695989972927       -0.17944199098636
H            0.61841749504719       -0.00001398618974       -0.81272270024616
H            1.66232899940056        0.99279763683352       -1.64733658253863
H            2.22607813445484       -0.29528329563567        0.96739087968020
H            3.33783166733343        0.77951605926435        0.08924879991418
H            4.39685949847808        0.04350308140601       -2.00640003156566
H            5.11898577992466       -1.84677784991762       -3.39987991497139
H            4.17002253305179       -4.09180800840792       -3.02700425545807
H            2.48877179628422       -4.44205067671601       -1.25775413255255
H            1.75980960804154       -2.55763048076784        0.14039900189474
