 Entering Gaussian System
 *********************************************
 Gaussian 98:
 frequency output generated by the xtb code
 *********************************************
                         Standard orientation:
 --------------------------------------------------------------------
  Center     Atomic     Atomic              Coordinates (Angstroms)
  Number     Number      Type              X           Y           Z
 --------------------------------------------------------------------
    1          7             0       -2.921943   -0.906704    0.582822
    2          6             0       -1.502881   -0.893360    1.042367
    3          6             0       -0.529155   -0.822178   -0.125247
    4          6             0        0.954657   -0.874575    0.288028
    5          6             0        1.385786    0.364925    1.109445
    6          6             0        2.868087    0.287308    1.514910
    7          6             0        3.772602    0.120351    0.281957
    8          6             0        3.357563   -1.110619   -0.541070
    9          6             0        1.877141   -1.027702   -0.946805
   10         17             0       -3.390125    1.975616   -1.307882
   11          1             0       -3.109859   -1.725334   -0.021226
   12          1             0       -3.130071   -0.059984    0.024221
   13          1             0       -3.590750   -0.937159    1.371754
   14          1             0       -1.299834   -1.786530    1.642048
   15          1             0       -1.347004   -0.044020    1.718575
   16          1             0       -0.708702    0.092702   -0.701778
   17          1             0       -0.742262   -1.643648   -0.819665
   18          1             0        1.100424   -1.762234    0.924699
   19          1             0        0.747640    0.482700    1.994307
   20          1             0        1.214968    1.263425    0.504934
   21          1             0        3.014705   -0.565272    2.190351
   22          1             0        3.160044    1.173327    2.096167
   23          1             0        4.828873    0.054856    0.577873
   24          1             0        3.700374    1.017940   -0.345505
   25          1             0        3.520060   -2.017699    0.055081
   26          1             0        3.999269   -1.224064   -1.426222
   27          1             0        1.579135   -1.903871   -1.537642
   28          1             0        1.724214   -0.165922   -1.607146
 --------------------------------------------------------------------
     1 basis functions        1 primitive gaussians
     1 alpha electrons        1 beta electrons

 Harmonic frequencies (cm**-1), IR intensities (km*mol⁻¹),
 Raman scattering activities (A**4/amu), Raman depolarization ratios,
 reduced masses (AMU), force constants (mDyne/A) and normal coordinates:
                      1                      2                      3
                        a                      a                      a 
 Frequencies --  -136.9602                60.5342                74.8539
 Red. masses --    21.8047                24.9189                13.0177
 Frc consts  --     0.0000                 0.0000                 0.0000
 IR Inten    --   143.7650                17.4004                 6.2260
 Raman Activ --     0.0000                 0.0000                 0.0000
 Depolar     --     0.0000                 0.0000                 0.0000
 Atom AN      X      Y      Z        X      Y      Z        X      Y      Z
   1   7     0.06  -0.51   0.30     0.08   0.13  -0.10    -0.01  -0.02   0.15
   2   6     0.10  -0.15   0.14     0.07   0.24  -0.08    -0.01   0.25   0.13
   3   6     0.00  -0.05   0.06     0.12   0.08  -0.05    -0.06   0.18   0.08
   4   6     0.02  -0.02   0.01     0.11  -0.02   0.01    -0.04   0.05  -0.02
   5   6     0.01  -0.01   0.01     0.16  -0.07   0.07     0.06  -0.16   0.25
   6   6     0.01  -0.00  -0.00     0.15  -0.16   0.09     0.09  -0.30   0.12
   7   6     0.00   0.01  -0.01     0.17  -0.15   0.10    -0.01  -0.04   0.01
   8   6     0.00   0.01  -0.02     0.13  -0.11   0.05    -0.11   0.16  -0.24
   9   6    -0.00   0.01  -0.01     0.14  -0.03   0.03    -0.13   0.30  -0.12
  10  17    -0.14   0.54  -0.37    -0.76   0.05  -0.08     0.16  -0.28  -0.25
  11   1     0.05  -0.16   0.10     0.04   0.02  -0.02     0.02  -0.07   0.12
  12   1    -0.04  -0.17   0.09    -0.02   0.02  -0.03    -0.02  -0.07  -0.05
  13   1     0.04  -0.16   0.10     0.02   0.02  -0.02    -0.01   0.06   0.04
  14   1     0.09  -0.02   0.05     0.02   0.10   0.02     0.04   0.11   0.08
  15   1    -0.00  -0.02   0.02     0.01   0.10  -0.06    -0.03   0.11  -0.01
  16   1    -0.02  -0.01   0.03     0.06   0.02  -0.03    -0.01   0.06   0.03
  17   1     0.00  -0.01   0.01     0.02   0.01   0.00    -0.05   0.06   0.03
  18   1     0.02  -0.00   0.00     0.01  -0.01  -0.01    -0.01  -0.03  -0.07
  19   1     0.00  -0.01   0.00     0.04  -0.03   0.02     0.04  -0.11   0.09
  20   1    -0.00  -0.00   0.00     0.06  -0.01   0.03     0.01  -0.00   0.14
  21   1     0.01  -0.00  -0.00     0.03  -0.05   0.02     0.03  -0.13  -0.03
  22   1     0.00  -0.00  -0.00     0.05  -0.05   0.04     0.04  -0.13   0.09
  23   1     0.00   0.00  -0.01     0.05  -0.06   0.03     0.00  -0.04  -0.02
  24   1    -0.00   0.00  -0.00     0.06  -0.04   0.04    -0.01   0.03   0.06
  25   1     0.00   0.00  -0.01     0.02  -0.04   0.01    -0.03   0.01  -0.13
  26   1    -0.00   0.01  -0.01     0.04  -0.03   0.02    -0.05   0.10  -0.09
  27   1    -0.00   0.00  -0.00     0.03   0.00  -0.00    -0.06   0.13  -0.09
  28   1    -0.00   0.00   0.00     0.06  -0.00   0.01    -0.04   0.13   0.03
                      4                      5                      6
                        a                      a                      a 
 Frequencies --    98.1900               137.5093               162.4927
 Red. masses --     9.9810                 9.0624                 9.7313
 Frc consts  --     0.0000                 0.0000                 0.0000
 IR Inten    --     1.2758                 1.9772                13.2561
 Raman Activ --     0.0000                 0.0000                 0.0000
 Depolar     --     0.0000                 0.0000                 0.0000
 Atom AN      X      Y      Z        X      Y      Z        X      Y      Z
   1   7    -0.02  -0.25   0.04    -0.05   0.18  -0.12     0.06   0.35   0.37
   2   6     0.01  -0.05  -0.06    -0.09  -0.46   0.08     0.16  -0.26   0.06
   3   6    -0.07   0.43  -0.09     0.02   0.16   0.20    -0.02  -0.18  -0.09
   4   6    -0.07   0.30  -0.10     0.02   0.04   0.18     0.02   0.01  -0.19
   5   6     0.07   0.29  -0.16     0.16  -0.00   0.18    -0.09   0.03  -0.18
   6   6     0.01   0.00   0.01     0.22  -0.01  -0.02    -0.17  -0.08   0.09
   7   6     0.11  -0.28   0.12     0.05   0.02  -0.15     0.03  -0.09   0.24
   8   6    -0.08  -0.21   0.11    -0.04   0.02  -0.09     0.04   0.06  -0.00
   9   6    -0.02   0.10  -0.04    -0.09   0.02   0.10     0.08   0.18  -0.17
  10  17     0.04  -0.18   0.10    -0.12   0.01  -0.21    -0.09  -0.04  -0.13
  11   1     0.02  -0.06  -0.01    -0.07   0.11  -0.10    -0.11   0.10   0.12
  12   1    -0.05  -0.06   0.04     0.08   0.10   0.01     0.08   0.10   0.08
  13   1     0.01  -0.11   0.02    -0.04   0.05  -0.06     0.06   0.19   0.13
  14   1     0.07  -0.05  -0.09    -0.10  -0.27  -0.15    -0.00  -0.14  -0.07
  15   1    -0.03  -0.06   0.05     0.01  -0.28   0.20     0.16  -0.15   0.08
  16   1    -0.04   0.18   0.07    -0.00   0.12   0.18    -0.05  -0.06  -0.02
  17   1    -0.02   0.19  -0.11     0.02   0.14  -0.06    -0.00  -0.06  -0.02
  18   1    -0.05   0.09  -0.01    -0.00   0.00   0.04     0.04   0.00  -0.06
  19   1    -0.01   0.14  -0.07     0.07  -0.01   0.07    -0.06   0.04  -0.08
  20   1     0.09   0.08  -0.07     0.03   0.01   0.07     0.02   0.00  -0.07
  21   1    -0.07   0.01   0.03     0.09  -0.01  -0.02    -0.10  -0.03   0.03
  22   1     0.04  -0.01  -0.01     0.08  -0.01  -0.01    -0.06  -0.03   0.05
  23   1     0.02  -0.15   0.07     0.03   0.01  -0.08    -0.01  -0.07   0.12
  24   1     0.11  -0.08   0.02    -0.01   0.01  -0.04     0.08  -0.00   0.09
  25   1    -0.10  -0.07   0.04     0.01   0.01  -0.03    -0.03  -0.01  -0.03
  26   1    -0.00  -0.11   0.05    -0.05   0.00  -0.05     0.04   0.05   0.02
  27   1    -0.05   0.04  -0.01    -0.04   0.00   0.04     0.03   0.08  -0.09
  28   1     0.06   0.03  -0.02    -0.05   0.00   0.03     0.05   0.08  -0.01
                      7                      8                      9
                        a                      a                      a 
 Frequencies --   208.7471               257.0373               294.8337
 Red. masses --     8.0801                 6.4072                 9.5924
 Frc consts  --     0.0000                 0.0000                 0.0000
 IR Inten    --     3.1820                 0.2997                10.6405
 Raman Activ --     0.0000                 0.0000                 0.0000
 Depolar     --     0.0000                 0.0000                 0.0000
 Atom AN      X      Y      Z        X      Y      Z        X      Y      Z
   1   7     0.05   0.07   0.25     0.05   0.02   0.01     0.52   0.06  -0.18
   2   6     0.15   0.03  -0.12     0.06  -0.02  -0.05     0.31   0.04   0.17
   3   6    -0.01   0.40  -0.23     0.02  -0.06  -0.07     0.14   0.04   0.10
   4   6    -0.06  -0.10  -0.13     0.01  -0.04  -0.07     0.04   0.04   0.02
   5   6    -0.08  -0.24   0.09    -0.09  -0.20   0.25    -0.13   0.07   0.03
   6   6    -0.07  -0.04   0.03     0.06   0.30  -0.12    -0.20  -0.04   0.08
   7   6    -0.17   0.22  -0.07     0.01  -0.10  -0.11    -0.31  -0.08  -0.00
   8   6     0.09  -0.00   0.14    -0.12  -0.25   0.20    -0.21  -0.08  -0.06
   9   6     0.10  -0.28   0.00     0.02   0.32  -0.09    -0.16  -0.04  -0.07
  10  17     0.01  -0.05  -0.02    -0.01  -0.00  -0.00    -0.04  -0.00  -0.03
  11   1    -0.04   0.01   0.09    -0.00   0.00   0.01     0.25   0.12  -0.22
  12   1    -0.02   0.01   0.07     0.01   0.00   0.00     0.12   0.10   0.09
  13   1     0.07   0.03   0.11     0.02   0.02   0.01     0.07  -0.18  -0.11
  14   1     0.10  -0.04  -0.12     0.02  -0.01  -0.01     0.08  -0.00   0.04
  15   1     0.06  -0.04   0.03     0.03  -0.01  -0.02     0.07   0.00   0.06
  16   1     0.04   0.20   0.06     0.00  -0.02  -0.03     0.03   0.01   0.03
  17   1    -0.06   0.22  -0.17     0.01  -0.02  -0.01     0.01   0.01   0.04
  18   1    -0.11  -0.06  -0.05     0.02  -0.06  -0.09     0.03   0.02   0.01
  19   1    -0.02  -0.14   0.04     0.04  -0.21   0.14    -0.06   0.01  -0.01
  20   1    -0.06  -0.04   0.08    -0.18  -0.02   0.17    -0.02   0.02   0.01
  21   1     0.04  -0.02  -0.02     0.11   0.19   0.08    -0.08  -0.02   0.02
  22   1    -0.06  -0.01   0.03    -0.02   0.18  -0.16    -0.02  -0.02   0.02
  23   1    -0.03   0.17  -0.06    -0.00  -0.03  -0.02    -0.08   0.00  -0.03
  24   1    -0.16   0.04  -0.04     0.03  -0.08  -0.11    -0.12  -0.02   0.00
  25   1     0.05   0.04   0.10    -0.18  -0.04   0.15    -0.07  -0.03  -0.02
  26   1     0.04  -0.03   0.06     0.02  -0.21   0.11    -0.04  -0.01  -0.00
  27   1     0.07  -0.13   0.06    -0.05   0.20  -0.15    -0.08  -0.02   0.00
  28   1     0.02  -0.13  -0.06     0.10   0.20   0.09    -0.05  -0.02  -0.03
                     10                     11                     12
                        a                      a                      a 
 Frequencies --   328.2571               335.6989               355.6087
 Red. masses --     5.3865                 5.0350                 7.3001
 Frc consts  --     0.0000                 0.0000                 0.0000
 IR Inten    --     0.5027                 2.2301                 1.5465
 Raman Activ --     0.0000                 0.0000                 0.0000
 Depolar     --     0.0000                 0.0000                 0.0000
 Atom AN      X      Y      Z        X      Y      Z        X      Y      Z
   1   7     0.10  -0.03  -0.04    -0.14   0.05   0.18     0.00   0.01   0.13
   2   6     0.13  -0.10  -0.19    -0.01  -0.00  -0.17     0.13  -0.00  -0.30
   3   6     0.11  -0.12  -0.17    -0.02  -0.17  -0.18     0.11  -0.01  -0.26
   4   6     0.01   0.22   0.11    -0.03   0.19   0.03    -0.04   0.01   0.21
   5   6     0.02   0.23   0.13     0.08   0.13   0.10    -0.09   0.04   0.22
   6   6     0.02  -0.14   0.04     0.12  -0.21   0.01    -0.01   0.21   0.02
   7   6    -0.18   0.02  -0.13    -0.04   0.10  -0.13     0.07  -0.20   0.10
   8   6    -0.11  -0.11   0.06    -0.02  -0.04   0.11    -0.06   0.08  -0.29
   9   6    -0.07   0.02   0.11     0.01   0.11   0.08    -0.17  -0.12   0.17
  10  17    -0.02   0.04   0.05     0.04  -0.05  -0.05     0.01  -0.02  -0.01
  11   1    -0.11  -0.21   0.30     0.01   0.21  -0.24    -0.04   0.04   0.00
  12   1     0.13  -0.17  -0.30    -0.18   0.18   0.36    -0.07   0.03   0.10
  13   1     0.05   0.38   0.02     0.03  -0.36   0.10     0.08  -0.06   0.10
  14   1     0.04  -0.02  -0.04     0.01   0.01  -0.04     0.07  -0.00  -0.10
  15   1     0.07  -0.02  -0.07     0.04   0.01  -0.07     0.08  -0.00  -0.09
  16   1    -0.00  -0.07  -0.10    -0.05  -0.12  -0.15     0.06  -0.01  -0.10
  17   1     0.11  -0.08  -0.01     0.07  -0.14   0.03     0.08  -0.02  -0.07
  18   1     0.01   0.08   0.06    -0.01   0.06   0.02    -0.05   0.01   0.08
  19   1     0.01   0.07   0.04     0.04   0.04   0.04     0.02  -0.03   0.10
  20   1     0.04   0.08   0.06     0.06   0.06   0.06    -0.09   0.01   0.08
  21   1    -0.02  -0.11  -0.07     0.02  -0.14  -0.10     0.01   0.14   0.11
  22   1     0.08  -0.11   0.08     0.08  -0.14   0.10     0.01   0.13  -0.10
  23   1    -0.03   0.09  -0.11     0.01   0.11  -0.10    -0.01  -0.19   0.09
  24   1    -0.16  -0.01  -0.05    -0.12   0.01  -0.04     0.17  -0.03   0.05
  25   1    -0.05  -0.01   0.06    -0.04   0.02   0.10     0.10  -0.05  -0.23
  26   1    -0.03  -0.08   0.02    -0.00  -0.09   0.04    -0.09   0.18  -0.16
  27   1    -0.07   0.00   0.06    -0.02   0.04   0.02    -0.06  -0.07   0.11
  28   1     0.00  -0.00   0.01     0.04   0.03   0.02    -0.13  -0.07   0.01
                     13                     14                     15
                        a                      a                      a 
 Frequencies --   431.1476               443.9715               472.6371
 Red. masses --     9.2525                 8.4880                 7.4524
 Frc consts  --     0.0000                 0.0000                 0.0000
 IR Inten    --     0.0286                 0.5934                 1.0097
 Raman Activ --     0.0000                 0.0000                 0.0000
 Depolar     --     0.0000                 0.0000                 0.0000
 Atom AN      X      Y      Z        X      Y      Z        X      Y      Z
   1   7     0.02   0.01  -0.01     0.18   0.00  -0.00     0.23   0.01  -0.08
   2   6    -0.02   0.01   0.09     0.13   0.02  -0.09     0.07  -0.05   0.15
   3   6    -0.03   0.07   0.06    -0.02   0.03  -0.12    -0.30  -0.07  -0.11
   4   6    -0.04   0.09   0.10    -0.21  -0.31   0.23    -0.27   0.21  -0.18
   5   6    -0.35   0.11   0.09     0.00  -0.14  -0.24    -0.05  -0.01   0.11
   6   6    -0.28  -0.14  -0.32     0.00  -0.11  -0.19     0.10  -0.04  -0.14
   7   6     0.05  -0.09  -0.14     0.19   0.11  -0.05     0.33   0.08   0.03
   8   6     0.39  -0.16  -0.13    -0.13   0.12   0.15    -0.05   0.15   0.12
   9   6     0.27   0.10   0.24    -0.17   0.19   0.34    -0.09  -0.13   0.01
  10  17    -0.00  -0.00  -0.00    -0.01  -0.00   0.00    -0.02   0.01   0.00
  11   1     0.03   0.01  -0.01     0.05  -0.00   0.00     0.10  -0.00  -0.03
  12   1     0.02   0.00  -0.00     0.03  -0.01  -0.01     0.12  -0.00  -0.05
  13   1    -0.02  -0.01  -0.02     0.05   0.00   0.00    -0.02   0.03  -0.08
  14   1    -0.01  -0.01   0.02     0.06   0.00  -0.04     0.03  -0.01   0.04
  15   1    -0.02  -0.01   0.04     0.06   0.00  -0.02     0.04  -0.01   0.03
  16   1    -0.01   0.03   0.04     0.07   0.05   0.01    -0.20  -0.08  -0.09
  17   1    -0.02   0.03   0.00    -0.04   0.06  -0.08    -0.06  -0.10   0.05
  18   1    -0.02   0.04   0.05    -0.11  -0.09   0.07    -0.11   0.06  -0.04
  19   1    -0.03  -0.05   0.09     0.01   0.16  -0.08     0.07  -0.15   0.12
  20   1    -0.19   0.06   0.09     0.06  -0.13  -0.21    -0.10   0.08   0.17
  21   1    -0.13  -0.10  -0.15    -0.00  -0.07  -0.10     0.03  -0.06  -0.10
  22   1    -0.02  -0.10  -0.02    -0.05  -0.06   0.02     0.01  -0.05   0.03
  23   1    -0.01   0.04   0.07     0.04  -0.02   0.01     0.07  -0.11   0.08
  24   1     0.03  -0.05  -0.07     0.11   0.04  -0.01     0.24   0.05   0.03
  25   1     0.19  -0.07  -0.09    -0.05   0.06   0.08    -0.04   0.08   0.09
  26   1     0.05   0.02  -0.09    -0.09  -0.04   0.01    -0.03  -0.04   0.04
  27   1     0.02   0.09   0.01    -0.02   0.14  -0.05     0.05  -0.15   0.14
  28   1     0.13   0.08   0.12    -0.07   0.16   0.24    -0.05  -0.16  -0.15
                     16                     17                     18
                        a                      a                      a 
 Frequencies --   572.8812               789.0836               817.4824
 Red. masses --     6.5540                 3.3719                 5.3280
 Frc consts  --     0.0000                 0.0000                 0.0000
 IR Inten    --     3.9159                18.1229                 5.0546
 Raman Activ --     0.0000                 0.0000                 0.0000
 Depolar     --     0.0000                 0.0000                 0.0000
 Atom AN      X      Y      Z        X      Y      Z        X      Y      Z
   1   7    -0.14  -0.00   0.03    -0.04   0.00  -0.02    -0.00  -0.03  -0.01
   2   6    -0.01   0.02  -0.11     0.00   0.19   0.00     0.01  -0.10  -0.02
   3   6     0.36   0.03   0.17     0.12   0.22   0.08     0.09   0.01   0.07
   4   6     0.28  -0.04   0.08     0.04   0.12  -0.01    -0.00   0.23   0.02
   5   6    -0.15   0.05   0.01     0.05  -0.20  -0.12    -0.04  -0.24  -0.04
   6   6    -0.17  -0.07  -0.22    -0.07  -0.07  -0.09    -0.11  -0.27  -0.13
   7   6     0.12   0.08  -0.02    -0.04  -0.02   0.02    -0.00  -0.15  -0.03
   8   6    -0.19   0.13   0.08    -0.03   0.03   0.04     0.04   0.15   0.01
   9   6    -0.08  -0.03  -0.17    -0.01   0.04   0.09     0.06   0.27   0.15
  10  17     0.01  -0.00  -0.00     0.01   0.00   0.01    -0.00   0.00  -0.00
  11   1    -0.08  -0.00   0.02     0.10  -0.08   0.07    -0.13   0.05  -0.03
  12   1    -0.09  -0.00   0.03    -0.15  -0.07  -0.07     0.09   0.05   0.06
  13   1     0.03  -0.01   0.06     0.01  -0.04   0.02     0.02   0.05   0.02
  14   1    -0.03   0.01  -0.02     0.01  -0.20  -0.37     0.02   0.09   0.15
  15   1    -0.03   0.01  -0.02    -0.02  -0.23   0.35    -0.05   0.10  -0.14
  16   1     0.18   0.05   0.09    -0.01  -0.18  -0.34    -0.04   0.02   0.07
  17   1     0.10   0.07  -0.01     0.10  -0.24   0.35     0.10   0.03  -0.03
  18   1     0.16   0.00   0.02    -0.04   0.01  -0.02     0.03   0.02  -0.06
  19   1    -0.00  -0.11   0.05     0.01  -0.08  -0.04    -0.04   0.06  -0.05
  20   1    -0.16   0.03   0.07     0.00  -0.05  -0.02     0.13  -0.08  -0.07
  21   1    -0.11  -0.14  -0.20     0.02   0.04   0.04     0.10   0.15   0.21
  22   1    -0.01  -0.14   0.10    -0.09   0.04  -0.08    -0.13   0.14  -0.31
  23   1    -0.01  -0.16   0.12    -0.01   0.01   0.02     0.01   0.06  -0.03
  24   1     0.25   0.06   0.02    -0.02  -0.00   0.01    -0.11  -0.02   0.03
  25   1    -0.19   0.10   0.16     0.02  -0.00  -0.01    -0.11   0.05   0.05
  26   1     0.02  -0.15   0.10    -0.03   0.04  -0.01     0.01  -0.08   0.02
  27   1     0.01  -0.09   0.06    -0.01  -0.01   0.05     0.08  -0.13   0.32
  28   1    -0.10  -0.08  -0.12     0.00  -0.01  -0.00    -0.09  -0.14  -0.21
                     19                     20                     21
                        a                      a                      a 
 Frequencies --   821.8957               874.7309               884.0795
 Red. masses --     5.9487                 3.6034                 7.3107
 Frc consts  --     0.0000                 0.0000                 0.0000
 IR Inten    --     2.6388                11.1909                 5.7916
 Raman Activ --     0.0000                 0.0000                 0.0000
 Depolar     --     0.0000                 0.0000                 0.0000
 Atom AN      X      Y      Z        X      Y      Z        X      Y      Z
   1   7    -0.04  -0.01  -0.01    -0.04  -0.12   0.01    -0.03   0.06   0.02
   2   6     0.02  -0.07  -0.00     0.02  -0.11   0.04    -0.02   0.04   0.06
   3   6     0.11  -0.01   0.06     0.05   0.20  -0.01    -0.08  -0.11  -0.11
   4   6     0.08   0.12  -0.19     0.04   0.09  -0.01     0.05  -0.05  -0.00
   5   6     0.18  -0.06  -0.32     0.12  -0.14   0.06     0.19   0.06   0.11
   6   6     0.05   0.02  -0.17    -0.08   0.05  -0.00     0.03  -0.06  -0.24
   7   6    -0.06  -0.06   0.16    -0.22   0.13  -0.09    -0.47  -0.15  -0.06
   8   6    -0.19   0.01   0.27    -0.03  -0.04  -0.05    -0.11   0.23   0.13
   9   6    -0.09  -0.02   0.22     0.06  -0.15   0.03     0.26   0.02   0.07
  10  17    -0.00  -0.00  -0.00    -0.01  -0.00  -0.00     0.00   0.00   0.00
  11   1    -0.09   0.04  -0.03    -0.28   0.13  -0.13     0.20  -0.06   0.05
  12   1     0.04   0.03   0.03     0.32   0.12   0.11    -0.12  -0.06  -0.08
  13   1     0.01   0.02   0.02    -0.06   0.14  -0.03    -0.07  -0.07  -0.05
  14   1    -0.00   0.06   0.11     0.19   0.08   0.11    -0.10  -0.03  -0.01
  15   1    -0.02   0.07  -0.10    -0.18   0.08  -0.08     0.13  -0.03   0.03
  16   1    -0.01   0.03   0.07    -0.10  -0.07  -0.16     0.00   0.04   0.07
  17   1     0.06   0.04  -0.04     0.13  -0.10   0.15    -0.07   0.05  -0.11
  18   1     0.05   0.08   0.01    -0.11  -0.00  -0.01     0.01  -0.02  -0.00
  19   1     0.15  -0.35   0.03    -0.05   0.03  -0.05     0.10   0.08   0.05
  20   1    -0.17   0.11   0.16     0.13  -0.05  -0.04     0.09   0.01   0.01
  21   1    -0.08  -0.03  -0.07     0.09  -0.03  -0.08     0.07   0.01  -0.05
  22   1    -0.02  -0.03   0.02    -0.05  -0.01   0.05     0.12  -0.00  -0.14
  23   1     0.01   0.07  -0.05    -0.13  -0.23   0.16    -0.18  -0.29   0.12
  24   1    -0.13  -0.07  -0.02     0.27   0.08   0.01     0.15   0.01   0.02
  25   1     0.17  -0.11  -0.17     0.10   0.05   0.06     0.02   0.07   0.04
  26   1    -0.18   0.31  -0.06    -0.01  -0.01  -0.01     0.03   0.14   0.07
  27   1    -0.02   0.04  -0.01    -0.08   0.08  -0.12     0.16  -0.02   0.01
  28   1     0.07   0.04   0.09     0.13   0.07   0.13     0.07  -0.01   0.00
                     22                     23                     24
                        a                      a                      a 
 Frequencies --   914.4303               925.5987               931.0558
 Red. masses --     4.7547                 6.3663                 4.7463
 Frc consts  --     0.0000                 0.0000                 0.0000
 IR Inten    --    12.6733                15.8275                 5.0772
 Raman Activ --     0.0000                 0.0000                 0.0000
 Depolar     --     0.0000                 0.0000                 0.0000
 Atom AN      X      Y      Z        X      Y      Z        X      Y      Z
   1   7    -0.16  -0.12   0.10     0.18  -0.03  -0.05     0.20  -0.03  -0.09
   2   6     0.04   0.05   0.13    -0.07  -0.02  -0.16    -0.06  -0.01  -0.16
   3   6     0.00   0.10  -0.21    -0.11   0.05   0.15    -0.08   0.05   0.21
   4   6     0.06  -0.23   0.09    -0.16  -0.06   0.19    -0.11  -0.08   0.01
   5   6    -0.06   0.16   0.01     0.18   0.14  -0.06    -0.07  -0.02   0.19
   6   6     0.10   0.03  -0.07    -0.01  -0.16  -0.23     0.08   0.15  -0.11
   7   6     0.02  -0.21   0.07    -0.10  -0.05   0.19    -0.03  -0.08   0.02
   8   6    -0.04   0.15   0.06     0.18   0.13  -0.03    -0.04  -0.01   0.23
   9   6     0.08   0.10  -0.05    -0.07  -0.15  -0.24     0.05   0.13  -0.14
  10  17    -0.01  -0.00   0.00     0.00  -0.00  -0.00     0.00  -0.00  -0.00
  11   1    -0.07   0.09  -0.13    -0.15   0.02   0.01    -0.21   0.02   0.03
  12   1     0.37   0.07   0.04     0.00   0.03   0.06    -0.06   0.03   0.08
  13   1    -0.29   0.10  -0.18     0.21   0.03   0.13     0.29   0.03   0.18
  14   1     0.22  -0.00  -0.06     0.02   0.01  -0.03     0.01   0.01  -0.03
  15   1    -0.08  -0.02   0.10    -0.07   0.01  -0.05    -0.12   0.00  -0.02
  16   1     0.12  -0.03  -0.19    -0.03  -0.02  -0.01    -0.04  -0.03  -0.01
  17   1    -0.06  -0.05   0.05    -0.00  -0.03   0.09    -0.03  -0.04   0.12
  18   1     0.01  -0.07   0.01    -0.09   0.06   0.16    -0.00  -0.13  -0.15
  19   1     0.06   0.02   0.06     0.21  -0.07   0.12    -0.03   0.22   0.01
  20   1    -0.16  -0.00  -0.02    -0.08   0.10   0.11     0.03  -0.13  -0.15
  21   1    -0.13  -0.02  -0.02    -0.08   0.08   0.10     0.04  -0.10  -0.20
  22   1     0.16  -0.05  -0.00     0.03   0.05  -0.21     0.10  -0.08   0.12
  23   1     0.05   0.09  -0.12    -0.02   0.08   0.06    -0.01   0.03   0.02
  24   1    -0.18  -0.09  -0.01    -0.13   0.04   0.14    -0.00  -0.15  -0.17
  25   1    -0.14  -0.02  -0.04    -0.07   0.08   0.10     0.05  -0.15  -0.18
  26   1     0.05   0.06   0.06     0.22  -0.05   0.12    -0.01   0.26   0.02
  27   1     0.17  -0.07   0.05     0.01   0.06  -0.22     0.10  -0.08   0.08
  28   1    -0.14  -0.04  -0.06    -0.10   0.08   0.11     0.03  -0.08  -0.19
                     25                     26                     27
                        a                      a                      a 
 Frequencies --   953.3250               968.6308              1008.5090
 Red. masses --     6.6255                 7.0834                 8.9882
 Frc consts  --     0.0000                 0.0000                 0.0000
 IR Inten    --     6.8612                12.4290                 4.1849
 Raman Activ --     0.0000                 0.0000                 0.0000
 Depolar     --     0.0000                 0.0000                 0.0000
 Atom AN      X      Y      Z        X      Y      Z        X      Y      Z
   1   7    -0.12   0.03   0.08     0.15   0.01  -0.01     0.39  -0.05   0.28
   2   6     0.05  -0.03   0.04    -0.12  -0.02  -0.05    -0.59   0.08  -0.20
   3   6     0.02  -0.01  -0.10    -0.18   0.03  -0.02    -0.06  -0.08  -0.06
   4   6    -0.03   0.09   0.19     0.09  -0.04   0.06     0.12   0.03   0.03
   5   6     0.26  -0.15   0.07     0.23  -0.11  -0.23     0.02  -0.00  -0.00
   6   6    -0.13   0.09  -0.23    -0.01   0.26   0.16    -0.04  -0.07  -0.01
   7   6    -0.04   0.14   0.24    -0.20  -0.06  -0.01     0.03   0.07  -0.02
   8   6     0.18  -0.21   0.01     0.10  -0.05  -0.28    -0.04  -0.06   0.05
   9   6    -0.23   0.08  -0.19     0.11   0.22   0.23    -0.02   0.02  -0.01
  10  17    -0.00   0.00   0.00    -0.00   0.00  -0.00    -0.01  -0.00  -0.00
  11   1     0.18  -0.02  -0.01    -0.03  -0.00   0.02     0.18   0.03  -0.01
  12   1     0.04  -0.03  -0.06    -0.02   0.00   0.02     0.30   0.01   0.04
  13   1    -0.21  -0.03  -0.13     0.11   0.00   0.06    -0.06   0.03  -0.06
  14   1    -0.01   0.01   0.04    -0.03   0.01   0.00    -0.04  -0.01  -0.14
  15   1     0.15   0.01  -0.05    -0.04   0.01  -0.03    -0.14  -0.04   0.02
  16   1    -0.02   0.01   0.00    -0.11  -0.01  -0.02     0.20   0.01  -0.03
  17   1     0.12   0.01  -0.08    -0.03  -0.01   0.01    -0.06   0.04  -0.07
  18   1    -0.01  -0.03  -0.03    -0.03  -0.02   0.01     0.18   0.05   0.03
  19   1     0.16   0.09   0.07     0.09  -0.23  -0.01    -0.05  -0.04  -0.03
  20   1     0.07  -0.09  -0.06    -0.16  -0.03   0.01     0.08   0.05   0.05
  21   1     0.03  -0.05  -0.16    -0.16  -0.09  -0.11     0.08   0.02   0.02
  22   1    -0.14  -0.02   0.06     0.05  -0.08   0.24    -0.08   0.03  -0.04
  23   1    -0.05   0.20   0.25    -0.07  -0.07   0.04    -0.00   0.00   0.04
  24   1    -0.00  -0.07  -0.09     0.02  -0.01  -0.00     0.04   0.01  -0.02
  25   1    -0.02  -0.14  -0.11    -0.21   0.02   0.05     0.06  -0.03  -0.02
  26   1     0.14   0.06   0.05     0.11  -0.22   0.01    -0.06   0.04  -0.03
  27   1    -0.16  -0.02   0.07     0.05  -0.07   0.24    -0.05   0.00   0.03
  28   1    -0.09  -0.04  -0.12    -0.16  -0.06  -0.05     0.06  -0.01  -0.04
                     28                     29                     30
                        a                      a                      a 
 Frequencies --  1021.2468              1067.4746              1069.5347
 Red. masses --     5.1294                 7.0648                 2.4911
 Frc consts  --     0.0000                 0.0000                 0.0000
 IR Inten    --    10.2103                 0.9788                 0.3024
 Raman Activ --     0.0000                 0.0000                 0.0000
 Depolar     --     0.0000                 0.0000                 0.0000
 Atom AN      X      Y      Z        X      Y      Z        X      Y      Z
   1   7     0.11   0.11   0.15    -0.01   0.00   0.04    -0.04  -0.01  -0.01
   2   6    -0.23  -0.18  -0.05    -0.00   0.01  -0.04     0.08   0.04   0.01
   3   6     0.17   0.19   0.01     0.10  -0.03   0.06     0.01  -0.05   0.01
   4   6    -0.09   0.09   0.14    -0.10   0.08  -0.05    -0.09   0.06   0.06
   5   6    -0.13  -0.11  -0.05    -0.28  -0.07  -0.17    -0.09  -0.06  -0.11
   6   6     0.05   0.07   0.05     0.38   0.00   0.03     0.02   0.01   0.13
   7   6     0.06  -0.13  -0.05    -0.22  -0.05   0.02    -0.03  -0.09  -0.15
   8   6    -0.08   0.13   0.02     0.32   0.02   0.08     0.12   0.09   0.09
   9   6     0.14  -0.10  -0.13    -0.30   0.07   0.02    -0.02   0.01  -0.06
  10  17    -0.00   0.00   0.00    -0.00   0.00   0.00     0.00  -0.00  -0.00
  11   1     0.27  -0.04   0.05     0.04   0.00  -0.01    -0.02   0.01  -0.01
  12   1    -0.02  -0.05  -0.06     0.04  -0.00  -0.01     0.00   0.00   0.00
  13   1    -0.10  -0.06  -0.07    -0.06  -0.00  -0.03    -0.01   0.00  -0.00
  14   1    -0.16   0.05   0.16     0.02  -0.00  -0.02     0.04  -0.01  -0.03
  15   1     0.07   0.05  -0.17     0.00  -0.00  -0.00    -0.02  -0.01   0.03
  16   1    -0.21  -0.03  -0.05     0.08   0.01   0.02     0.07   0.02   0.03
  17   1     0.43  -0.06   0.01     0.03   0.01  -0.01    -0.03   0.02  -0.02
  18   1    -0.24  -0.01   0.04     0.05  -0.02  -0.08    -0.04   0.21   0.29
  19   1    -0.04   0.00  -0.02    -0.12  -0.06  -0.08    -0.20  -0.17  -0.14
  20   1    -0.13  -0.10  -0.10    -0.16  -0.06  -0.08     0.20   0.16   0.17
  21   1    -0.08  -0.03  -0.02     0.08  -0.02  -0.02     0.30  -0.04  -0.08
  22   1     0.04  -0.03   0.07     0.32  -0.04  -0.04    -0.15   0.01   0.09
  23   1     0.06  -0.05  -0.18    -0.06  -0.13   0.02    -0.03  -0.02   0.04
  24   1    -0.06  -0.04  -0.02     0.05   0.06   0.10     0.11  -0.20  -0.30
  25   1    -0.06   0.01  -0.01     0.18   0.09   0.12    -0.16  -0.10  -0.11
  26   1     0.05   0.06   0.05     0.21   0.05   0.11     0.21   0.14   0.14
  27   1     0.14   0.01  -0.14    -0.29   0.03   0.10     0.18  -0.01  -0.08
  28   1     0.00   0.03   0.05     0.01  -0.01  -0.05    -0.28   0.04   0.09
                     31                     32                     33
                        a                      a                      a 
 Frequencies --  1085.1767              1099.7174              1110.8740
 Red. masses --     7.0359                 8.3969                 8.5734
 Frc consts  --     0.0000                 0.0000                 0.0000
 IR Inten    --     7.1176                 3.7393                 1.9528
 Raman Activ --     0.0000                 0.0000                 0.0000
 Depolar     --     0.0000                 0.0000                 0.0000
 Atom AN      X      Y      Z        X      Y      Z        X      Y      Z
   1   7    -0.09  -0.06   0.04    -0.02   0.02  -0.04     0.02  -0.01  -0.06
   2   6     0.17   0.10  -0.20     0.12  -0.03  -0.07    -0.03   0.01   0.15
   3   6    -0.07  -0.12   0.26    -0.45   0.08  -0.06     0.03  -0.02  -0.15
   4   6    -0.36   0.11   0.26     0.51   0.10   0.30    -0.00   0.10   0.15
   5   6     0.03  -0.10  -0.17    -0.09  -0.12  -0.02    -0.26  -0.07  -0.12
   6   6     0.00   0.02   0.13    -0.01  -0.05  -0.02     0.34  -0.06  -0.15
   7   6    -0.03   0.03  -0.09     0.07  -0.03  -0.04    -0.07   0.22   0.33
   8   6    -0.07  -0.06  -0.01    -0.05   0.07   0.11    -0.26  -0.17  -0.19
   9   6     0.21   0.07  -0.17     0.00  -0.07  -0.10     0.29  -0.03  -0.02
  10  17    -0.00  -0.00   0.00     0.00   0.00   0.00     0.00  -0.00  -0.00
  11   1     0.00   0.03  -0.05     0.00  -0.01   0.00    -0.07  -0.00   0.01
  12   1     0.11   0.01  -0.00    -0.04  -0.01  -0.02    -0.05   0.01   0.02
  13   1    -0.11   0.02  -0.07     0.01  -0.01   0.00     0.08   0.00   0.05
  14   1     0.13  -0.02  -0.15     0.09   0.01  -0.02    -0.03  -0.01   0.04
  15   1     0.14  -0.01  -0.03     0.07   0.02  -0.07    -0.08  -0.01   0.07
  16   1     0.18   0.02   0.09    -0.27  -0.00  -0.01     0.03   0.01  -0.01
  17   1    -0.02   0.03   0.00    -0.12  -0.00   0.02    -0.03   0.02  -0.05
  18   1     0.05   0.05   0.07     0.23   0.06   0.10    -0.03   0.11   0.17
  19   1     0.19  -0.02   0.09    -0.07  -0.02  -0.04    -0.03   0.01  -0.01
  20   1    -0.11  -0.01   0.01    -0.08  -0.10  -0.10    -0.09  -0.04  -0.05
  21   1    -0.05  -0.00   0.04    -0.01   0.00   0.01     0.27  -0.02  -0.08
  22   1    -0.19   0.02   0.11    -0.06   0.00  -0.01     0.03   0.00  -0.04
  23   1     0.02  -0.19  -0.18     0.06  -0.07  -0.16    -0.02   0.07   0.10
  24   1     0.04   0.07   0.06    -0.02  -0.00   0.00    -0.04   0.10   0.15
  25   1     0.08   0.01   0.00     0.05   0.01  -0.00    -0.22  -0.12  -0.13
  26   1    -0.02   0.04  -0.01     0.09   0.14   0.09    -0.02  -0.03  -0.01
  27   1     0.03  -0.02   0.03    -0.21   0.04   0.00     0.01  -0.00   0.02
  28   1     0.27  -0.05  -0.18     0.03   0.03   0.03     0.10  -0.01  -0.02
                     34                     35                     36
                        a                      a                      a 
 Frequencies --  1126.3892              1161.9423              1192.5735
 Red. masses --     6.4131                 7.8388                 4.0820
 Frc consts  --     0.0000                 0.0000                 0.0000
 IR Inten    --    11.6820                 2.1456                 0.2257
 Raman Activ --     0.0000                 0.0000                 0.0000
 Depolar     --     0.0000                 0.0000                 0.0000
 Atom AN      X      Y      Z        X      Y      Z        X      Y      Z
   1   7    -0.07   0.03   0.12     0.01   0.09  -0.04    -0.00   0.04   0.05
   2   6     0.15  -0.03  -0.39    -0.02  -0.18   0.11    -0.02  -0.11  -0.10
   3   6    -0.20   0.08   0.39    -0.03   0.20  -0.13     0.06   0.10   0.11
   4   6     0.07  -0.11  -0.13    -0.00  -0.27   0.20     0.04  -0.18  -0.24
   5   6    -0.08   0.08   0.01     0.00   0.21  -0.16    -0.08   0.22   0.01
   6   6     0.10  -0.04  -0.04     0.02  -0.22   0.17     0.06  -0.09  -0.05
   7   6    -0.03   0.08   0.10    -0.05   0.21  -0.17    -0.03   0.10   0.07
   8   6    -0.05  -0.07  -0.06     0.04  -0.23   0.17    -0.02  -0.08  -0.08
   9   6     0.04  -0.00   0.09    -0.05   0.23  -0.17     0.05  -0.01   0.19
  10  17    -0.00   0.00   0.00     0.00   0.00   0.00    -0.00   0.00   0.00
  11   1     0.16   0.01  -0.03     0.04  -0.03   0.05     0.08  -0.01   0.01
  12   1     0.09  -0.03  -0.06    -0.12  -0.02  -0.03    -0.00  -0.02  -0.03
  13   1    -0.18  -0.01  -0.11     0.04  -0.04   0.02    -0.05  -0.02  -0.03
  14   1     0.13   0.02  -0.10     0.03   0.03   0.13     0.01   0.02   0.04
  15   1     0.16   0.03  -0.18    -0.05   0.04  -0.07     0.01   0.02  -0.10
  16   1    -0.16  -0.02   0.07    -0.03  -0.03  -0.15    -0.03  -0.03  -0.05
  17   1     0.05  -0.04   0.14     0.08  -0.05   0.06    -0.08  -0.04   0.12
  18   1     0.05  -0.02  -0.02     0.04  -0.07   0.03    -0.04  -0.12  -0.16
  19   1    -0.14  -0.05  -0.07     0.04  -0.12   0.02     0.16   0.13   0.13
  20   1     0.04   0.05   0.03    -0.12   0.11   0.08    -0.00   0.10   0.05
  21   1     0.11   0.00  -0.01     0.05   0.06   0.17     0.18   0.01  -0.01
  22   1     0.19  -0.01  -0.09     0.01   0.05  -0.11    -0.37   0.06   0.06
  23   1    -0.06   0.15   0.24    -0.06  -0.07   0.11     0.06  -0.20  -0.27
  24   1     0.01   0.01   0.01     0.17   0.08  -0.02     0.01   0.05   0.05
  25   1    -0.08  -0.04  -0.04     0.16  -0.10  -0.07    -0.16  -0.10  -0.09
  26   1    -0.16  -0.12  -0.11    -0.12   0.06  -0.07     0.31   0.14   0.19
  27   1     0.19  -0.02  -0.04     0.12  -0.07   0.07    -0.20   0.01   0.12
  28   1    -0.08   0.00   0.05    -0.06  -0.06  -0.17    -0.08  -0.00   0.07
                     37                     38                     39
                        a                      a                      a 
 Frequencies --  1204.2207              1236.4254              1240.9074
 Red. masses --     4.2294                 3.3394                 3.2488
 Frc consts  --     0.0000                 0.0000                 0.0000
 IR Inten    --     8.6328                 1.0952                 2.6617
 Raman Activ --     0.0000                 0.0000                 0.0000
 Depolar     --     0.0000                 0.0000                 0.0000
 Atom AN      X      Y      Z        X      Y      Z        X      Y      Z
   1   7     0.02  -0.26  -0.01    -0.01   0.06   0.04     0.00   0.04   0.01
   2   6    -0.01   0.34  -0.01     0.04  -0.00  -0.06     0.01   0.03  -0.01
   3   6     0.04  -0.07  -0.00     0.04  -0.13   0.05     0.01  -0.08  -0.01
   4   6     0.12   0.00  -0.04    -0.05   0.07  -0.03     0.04   0.07  -0.06
   5   6    -0.05   0.06  -0.03     0.13  -0.07   0.08    -0.02  -0.08   0.11
   6   6     0.02  -0.12   0.09    -0.12  -0.05   0.00     0.03   0.11  -0.17
   7   6    -0.02   0.13  -0.09     0.09   0.25  -0.14    -0.07   0.04   0.07
   8   6     0.02  -0.10   0.07    -0.10  -0.12   0.04     0.12  -0.25   0.09
   9   6    -0.01   0.02  -0.01     0.11  -0.01   0.03    -0.09   0.11  -0.05
  10  17    -0.00  -0.00  -0.00     0.00   0.00  -0.00     0.00   0.00  -0.00
  11   1    -0.19   0.05  -0.10     0.05   0.00   0.01     0.03   0.00   0.01
  12   1     0.21   0.05   0.12    -0.03  -0.02  -0.04    -0.03  -0.01  -0.02
  13   1     0.02   0.11   0.01    -0.04  -0.02  -0.02    -0.01  -0.01  -0.00
  14   1    -0.40  -0.07  -0.10     0.13   0.01  -0.04     0.15   0.01  -0.06
  15   1     0.33  -0.07   0.12    -0.19  -0.00   0.04    -0.19  -0.01   0.06
  16   1    -0.29   0.02   0.14     0.01   0.01   0.08    -0.10   0.01   0.08
  17   1     0.15   0.03  -0.09    -0.08   0.02  -0.02     0.06   0.02  -0.07
  18   1    -0.14  -0.05  -0.04    -0.21   0.01   0.03     0.03   0.10   0.09
  19   1     0.10   0.04   0.07    -0.15  -0.10  -0.11    -0.05   0.06  -0.02
  20   1    -0.14  -0.05  -0.06     0.03  -0.04  -0.02     0.09  -0.03  -0.02
  21   1    -0.01   0.03   0.10    -0.37   0.05   0.15    -0.06  -0.01  -0.08
  22   1     0.00   0.02  -0.05     0.34  -0.02  -0.17    -0.10  -0.00   0.06
  23   1    -0.02  -0.05   0.03     0.02  -0.03  -0.03     0.05  -0.23  -0.28
  24   1     0.09   0.03  -0.03     0.10   0.12   0.03    -0.07   0.24   0.35
  25   1    -0.02  -0.09  -0.07    -0.21  -0.20  -0.20     0.19  -0.04   0.02
  26   1     0.02   0.06   0.01     0.23   0.22   0.16    -0.08  -0.03  -0.06
  27   1     0.07  -0.01  -0.01    -0.13   0.01   0.07     0.35  -0.05  -0.08
  28   1    -0.19   0.01   0.05    -0.03  -0.00   0.02    -0.38   0.02   0.05
                     40                     41                     42
                        a                      a                      a 
 Frequencies --  1248.5346              1267.2202              1279.3646
 Red. masses --     3.0326                 2.9160                 2.9934
 Frc consts  --     0.0000                 0.0000                 0.0000
 IR Inten    --     2.5066                 4.7825                 3.5242
 Raman Activ --     0.0000                 0.0000                 0.0000
 Depolar     --     0.0000                 0.0000                 0.0000
 Atom AN      X      Y      Z        X      Y      Z        X      Y      Z
   1   7     0.00   0.10   0.00     0.01   0.03   0.03    -0.02  -0.02  -0.11
   2   6    -0.05  -0.01   0.00     0.05   0.17  -0.02    -0.12   0.05   0.19
   3   6     0.03  -0.13   0.01     0.02  -0.16  -0.03    -0.20   0.05  -0.01
   4   6     0.03   0.21  -0.08    -0.02  -0.18   0.15    -0.13   0.00   0.02
   5   6    -0.02   0.01  -0.04     0.06   0.18  -0.04    -0.01  -0.02  -0.01
   6   6     0.09  -0.14   0.17    -0.02  -0.01  -0.04    -0.04   0.01  -0.02
   7   6    -0.05   0.03  -0.09     0.02  -0.06   0.06     0.02   0.07   0.00
   8   6     0.04   0.06   0.00    -0.04   0.05  -0.05    -0.01  -0.03  -0.07
   9   6    -0.04  -0.13   0.06     0.01   0.03  -0.02    -0.08  -0.10   0.16
  10  17     0.00   0.00  -0.00    -0.00   0.00  -0.00     0.00  -0.00  -0.00
  11   1     0.06  -0.02   0.04     0.01   0.02  -0.01    -0.06  -0.02   0.01
  12   1    -0.07  -0.01  -0.04    -0.02  -0.01  -0.02    -0.01   0.03   0.03
  13   1    -0.00  -0.04  -0.00    -0.02   0.01  -0.01     0.11   0.00   0.07
  14   1     0.35   0.02  -0.08     0.20  -0.00  -0.13     0.19  -0.01  -0.06
  15   1    -0.27  -0.00   0.06    -0.33  -0.04   0.18     0.26   0.01  -0.01
  16   1    -0.05   0.01   0.09    -0.39   0.02   0.22     0.15   0.01  -0.07
  17   1     0.02   0.04  -0.09     0.33   0.03  -0.18     0.45  -0.00  -0.12
  18   1     0.10  -0.00  -0.12    -0.11  -0.19  -0.14     0.47  -0.08  -0.22
  19   1     0.27   0.17   0.17    -0.15  -0.15  -0.10    -0.05  -0.02  -0.03
  20   1    -0.36  -0.20  -0.21     0.05   0.13   0.10     0.10   0.06   0.06
  21   1     0.03   0.02   0.12     0.16  -0.01  -0.06    -0.05   0.01   0.01
  22   1    -0.11   0.03   0.01    -0.11   0.02   0.01     0.10  -0.01  -0.04
  23   1    -0.07   0.06   0.18     0.02   0.02  -0.01     0.02  -0.03  -0.06
  24   1     0.10  -0.11  -0.20    -0.04  -0.04  -0.02     0.02   0.04   0.03
  25   1    -0.08  -0.03  -0.04     0.05   0.07   0.06    -0.14  -0.08  -0.08
  26   1    -0.02  -0.03  -0.02     0.02  -0.01   0.01     0.18   0.05   0.11
  27   1     0.14   0.01  -0.12    -0.13   0.00   0.07     0.18  -0.01  -0.09
  28   1    -0.13   0.04   0.13     0.19  -0.03  -0.09     0.08   0.01   0.06
                     43                     44                     45
                        a                      a                      a 
 Frequencies --  1312.7884              1321.3438              1339.0387
 Red. masses --     3.6232                 3.1023                 4.0651
 Frc consts  --     0.0000                 0.0000                 0.0000
 IR Inten    --     1.5162                13.1390                 0.9354
 Raman Activ --     0.0000                 0.0000                 0.0000
 Depolar     --     0.0000                 0.0000                 0.0000
 Atom AN      X      Y      Z        X      Y      Z        X      Y      Z
   1   7     0.04  -0.02   0.11    -0.05   0.01  -0.09    -0.02   0.00  -0.04
   2   6     0.23  -0.02  -0.12    -0.13  -0.02   0.10    -0.08   0.01   0.04
   3   6    -0.03   0.02  -0.05    -0.12  -0.10   0.08     0.02   0.01   0.03
   4   6    -0.05   0.15   0.17     0.15   0.18   0.09     0.05  -0.16  -0.20
   5   6     0.13   0.10   0.05     0.12   0.16   0.04     0.07   0.06   0.13
   6   6     0.05  -0.04  -0.04     0.01  -0.05  -0.04     0.07   0.01  -0.00
   7   6    -0.00  -0.01  -0.04    -0.00  -0.04   0.01     0.08  -0.17  -0.24
   8   6     0.01  -0.03  -0.06     0.02  -0.00   0.05    -0.12  -0.06  -0.06
   9   6    -0.19  -0.06   0.10     0.03  -0.01  -0.06    -0.18   0.10   0.09
  10  17    -0.00  -0.00   0.00     0.00  -0.00  -0.00    -0.00   0.00  -0.00
  11   1    -0.02   0.06  -0.06     0.00  -0.04   0.03     0.01  -0.03   0.03
  12   1    -0.01  -0.06  -0.04     0.04   0.03   0.01     0.03   0.03   0.03
  13   1    -0.09   0.02  -0.06     0.10  -0.04   0.07     0.04  -0.01   0.03
  14   1    -0.41  -0.01   0.13     0.23   0.00  -0.05     0.12   0.00  -0.04
  15   1    -0.24  -0.01   0.05     0.28   0.01  -0.07     0.12   0.00  -0.02
  16   1     0.07   0.01  -0.04     0.33  -0.00  -0.04    -0.06  -0.01   0.00
  17   1    -0.17  -0.01   0.06    -0.03   0.02  -0.04     0.06   0.01  -0.02
  18   1     0.14  -0.15  -0.25    -0.46  -0.22  -0.22    -0.08   0.22   0.33
  19   1    -0.20  -0.14  -0.13    -0.25  -0.17  -0.16    -0.06   0.02  -0.02
  20   1    -0.16  -0.08  -0.09    -0.18  -0.06  -0.09    -0.15  -0.11  -0.11
  21   1     0.03   0.00   0.00     0.12  -0.01  -0.04    -0.00   0.00   0.01
  22   1    -0.15   0.02   0.02    -0.16   0.03  -0.00    -0.19   0.01   0.10
  23   1    -0.01   0.01   0.03     0.00  -0.02  -0.01    -0.06   0.19   0.27
  24   1    -0.01   0.06   0.07    -0.03   0.03   0.06    -0.06   0.16   0.24
  25   1    -0.07  -0.04  -0.04     0.02  -0.00   0.00     0.05   0.04   0.04
  26   1     0.13   0.03   0.07    -0.07  -0.02  -0.04     0.23   0.17   0.15
  27   1     0.34  -0.03  -0.15    -0.00   0.00  -0.01     0.13  -0.03   0.02
  28   1     0.17  -0.00  -0.01    -0.11   0.01   0.03     0.27  -0.03  -0.12
                     46                     47                     48
                        a                      a                      a 
 Frequencies --  1341.2560              1354.1974              1355.8349
 Red. masses --     4.0867                 4.5632                 4.6955
 Frc consts  --     0.0000                 0.0000                 0.0000
 IR Inten    --     0.6713                 4.7893                 0.8939
 Raman Activ --     0.0000                 0.0000                 0.0000
 Depolar     --     0.0000                 0.0000                 0.0000
 Atom AN      X      Y      Z        X      Y      Z        X      Y      Z
   1   7     0.00   0.00   0.01     0.02  -0.01   0.03     0.01   0.01   0.01
   2   6     0.01  -0.01  -0.00     0.09   0.01  -0.00    -0.04  -0.01  -0.00
   3   6    -0.01  -0.00  -0.00    -0.17   0.01   0.03     0.12   0.00  -0.04
   4   6    -0.01   0.08   0.10     0.05  -0.08  -0.06    -0.09   0.08   0.12
   5   6    -0.15  -0.07  -0.06    -0.07  -0.00   0.05    -0.02  -0.03  -0.13
   6   6     0.31   0.01  -0.07     0.28   0.01  -0.08    -0.17   0.12   0.12
   7   6     0.02  -0.06  -0.08    -0.11  -0.05  -0.15     0.10  -0.22  -0.31
   8   6    -0.26  -0.12  -0.09     0.25   0.18   0.20     0.01   0.05   0.16
   9   6     0.18   0.00  -0.04     0.01  -0.06  -0.04     0.13  -0.09  -0.06
  10  17     0.00  -0.00   0.00     0.00  -0.00   0.00    -0.00   0.00  -0.00
  11   1    -0.00   0.01  -0.00    -0.03   0.05  -0.05    -0.01   0.01  -0.01
  12   1     0.00  -0.01  -0.01    -0.03  -0.04  -0.04     0.00  -0.01  -0.02
  13   1     0.00  -0.01   0.00    -0.01   0.01  -0.01    -0.00  -0.02  -0.00
  14   1    -0.02  -0.00   0.01    -0.09  -0.01   0.02     0.03   0.01   0.00
  15   1    -0.01  -0.00  -0.00    -0.11   0.00   0.04     0.02  -0.01  -0.00
  16   1     0.04   0.01   0.00     0.14   0.01  -0.03    -0.11  -0.00   0.02
  17   1    -0.02  -0.01   0.02     0.24  -0.02  -0.05    -0.14   0.00   0.04
  18   1     0.02  -0.14  -0.20    -0.03   0.03   0.06     0.13  -0.12  -0.20
  19   1    -0.01   0.02  -0.00    -0.04   0.03  -0.01     0.11   0.03   0.05
  20   1     0.21   0.13   0.13     0.08   0.04   0.04     0.03   0.07   0.07
  21   1    -0.36   0.04   0.12    -0.29   0.02   0.08     0.28  -0.04  -0.13
  22   1    -0.21   0.01   0.11    -0.29   0.03   0.12     0.11  -0.02   0.02
  23   1    -0.06   0.18   0.26    -0.07  -0.01   0.11    -0.04   0.14   0.20
  24   1     0.01  -0.02  -0.03    -0.00   0.09   0.12    -0.11   0.28   0.42
  25   1     0.28   0.17   0.18    -0.32  -0.18  -0.20    -0.12  -0.11  -0.12
  26   1     0.13   0.13   0.10    -0.24  -0.11  -0.15    -0.04   0.04   0.00
  27   1    -0.01  -0.01   0.03    -0.21   0.03   0.03    -0.13   0.01   0.02
  28   1    -0.27   0.03   0.10     0.07  -0.00  -0.01    -0.15   0.03   0.10
                     49                     50                     51
                        a                      a                      a 
 Frequencies --  1361.7656              1364.8738              1374.8963
 Red. masses --     4.2387                 4.8107                 2.5167
 Frc consts  --     0.0000                 0.0000                 0.0000
 IR Inten    --     4.7918                 1.9475               134.1730
 Raman Activ --     0.0000                 0.0000                 0.0000
 Depolar     --     0.0000                 0.0000                 0.0000
 Atom AN      X      Y      Z        X      Y      Z        X      Y      Z
   1   7     0.03  -0.00   0.07     0.02   0.02   0.03     0.29  -0.12   0.08
   2   6     0.20   0.01  -0.03     0.06  -0.01  -0.02    -0.09  -0.02   0.06
   3   6    -0.31   0.01   0.07    -0.18  -0.06   0.04     0.03  -0.00   0.01
   4   6    -0.03  -0.04  -0.17     0.34   0.07   0.04     0.01   0.01  -0.00
   5   6     0.10   0.05   0.04    -0.24  -0.12  -0.18     0.01   0.01   0.01
   6   6    -0.16  -0.01   0.06    -0.07   0.06   0.08    -0.00  -0.00  -0.01
   7   6     0.08  -0.05  -0.02     0.02  -0.01  -0.04     0.01   0.00   0.00
   8   6    -0.14  -0.06  -0.02     0.00  -0.03  -0.04    -0.01  -0.01  -0.01
   9   6     0.20   0.03  -0.03    -0.23   0.03   0.06    -0.00   0.01  -0.00
  10  17     0.00  -0.00   0.00     0.00  -0.00   0.00     0.01  -0.00   0.00
  11   1    -0.03   0.07  -0.07    -0.02   0.05  -0.04    -0.22   0.20  -0.20
  12   1    -0.04  -0.07  -0.07    -0.02  -0.05  -0.07    -0.61  -0.12   0.10
  13   1    -0.02   0.01  -0.01     0.00  -0.02   0.00    -0.30   0.40  -0.26
  14   1    -0.22  -0.01   0.06    -0.02  -0.00   0.01     0.12  -0.02  -0.07
  15   1    -0.23  -0.00   0.07    -0.12  -0.00   0.03     0.12   0.03  -0.07
  16   1     0.34   0.02  -0.07     0.20   0.02   0.00     0.01  -0.01  -0.00
  17   1     0.39  -0.02  -0.09     0.09  -0.01  -0.03    -0.02   0.00   0.00
  18   1     0.02   0.09   0.09    -0.40  -0.11  -0.05    -0.03  -0.00   0.00
  19   1     0.03   0.03   0.01     0.30   0.14   0.19    -0.02  -0.01  -0.01
  20   1    -0.17  -0.09  -0.10     0.23   0.15   0.14    -0.01  -0.01  -0.01
  21   1     0.22  -0.01  -0.05     0.06  -0.01  -0.03     0.01   0.00   0.00
  22   1     0.08  -0.01  -0.03     0.16  -0.02  -0.02    -0.01   0.00  -0.00
  23   1     0.01   0.05   0.03     0.01   0.04   0.00     0.00   0.00   0.00
  24   1    -0.04   0.01   0.04     0.01   0.04   0.04    -0.01  -0.00  -0.00
  25   1     0.16   0.08   0.09    -0.02  -0.00  -0.00     0.02   0.01   0.01
  26   1     0.04   0.07   0.04     0.08   0.04   0.04     0.01   0.01   0.01
  27   1    -0.19   0.02   0.09     0.23  -0.04  -0.06     0.01  -0.00  -0.00
  28   1    -0.25   0.01   0.07     0.23  -0.01  -0.07    -0.00   0.00  -0.00
                     52                     53                     54
                        a                      a                      a 
 Frequencies --  1407.3221              1455.1634              1486.2862
 Red. masses --     1.6559                 1.9410                 1.8904
 Frc consts  --     0.0000                 0.0000                 0.0000
 IR Inten    --    62.8415                82.3111                 8.5921
 Raman Activ --     0.0000                 0.0000                 0.0000
 Depolar     --     0.0000                 0.0000                 0.0000
 Atom AN      X      Y      Z        X      Y      Z        X      Y      Z
   1   7    -0.01  -0.06  -0.17     0.22   0.15  -0.02    -0.04  -0.02   0.01
   2   6     0.08  -0.02  -0.07     0.00   0.03   0.03     0.06  -0.01   0.25
   3   6    -0.07  -0.01   0.03    -0.01  -0.00   0.02     0.02  -0.00  -0.04
   4   6     0.02   0.01  -0.00     0.00  -0.00  -0.01    -0.01   0.01   0.00
   5   6    -0.01  -0.01  -0.02    -0.00   0.01   0.00    -0.05   0.07   0.02
   6   6    -0.01   0.01   0.01     0.00  -0.00  -0.00    -0.00   0.00   0.00
   7   6     0.00  -0.01  -0.02    -0.00  -0.00  -0.00    -0.01  -0.01  -0.00
   8   6     0.00   0.00   0.01     0.00   0.00   0.00     0.00  -0.00   0.00
   9   6     0.00  -0.01  -0.01     0.00   0.00   0.00     0.01  -0.00   0.02
  10  17     0.00  -0.01  -0.01     0.00  -0.00  -0.00    -0.00  -0.00  -0.00
  11   1     0.24  -0.33   0.35    -0.53  -0.16   0.39     0.11  -0.00  -0.02
  12   1    -0.07   0.38   0.60     0.02   0.03   0.02     0.05   0.02   0.03
  13   1    -0.14   0.28  -0.12    -0.30  -0.52  -0.29     0.06   0.06   0.05
  14   1    -0.07   0.01   0.04    -0.04  -0.06  -0.09    -0.15  -0.37  -0.49
  15   1    -0.12  -0.02   0.04     0.02   0.06  -0.07    -0.18   0.40  -0.45
  16   1     0.06  -0.01  -0.02     0.01  -0.00  -0.00     0.00   0.04   0.07
  17   1     0.05   0.02  -0.03     0.02   0.01  -0.01     0.00  -0.05   0.05
  18   1    -0.03  -0.02  -0.03    -0.01  -0.00   0.00     0.00  -0.00  -0.01
  19   1     0.02   0.01   0.01     0.00  -0.01   0.00     0.07  -0.17   0.07
  20   1     0.01   0.02   0.02     0.01  -0.00  -0.01     0.12  -0.07  -0.14
  21   1     0.01  -0.01  -0.02     0.00   0.00   0.00     0.01   0.01   0.00
  22   1     0.00   0.00   0.00    -0.00  -0.00   0.00     0.00  -0.01   0.01
  23   1    -0.00   0.01   0.01    -0.00  -0.00   0.00     0.00   0.03  -0.01
  24   1    -0.00   0.02   0.03    -0.00   0.00   0.00     0.03   0.01   0.01
  25   1    -0.01  -0.01  -0.02    -0.00  -0.00  -0.00    -0.01   0.00   0.01
  26   1    -0.00   0.00   0.00    -0.00   0.00  -0.00    -0.00   0.01  -0.00
  27   1    -0.00  -0.00   0.00    -0.00   0.00  -0.00    -0.02   0.04  -0.05
  28   1    -0.01   0.01   0.02    -0.00  -0.00  -0.00    -0.02  -0.04  -0.04
                     55                     56                     57
                        a                      a                      a 
 Frequencies --  1501.9058              1506.8713              1509.1655
 Red. masses --     1.9461                 1.9037                 1.9413
 Frc consts  --     0.0000                 0.0000                 0.0000
 IR Inten    --     3.1076                 0.9642                 1.5249
 Raman Activ --     0.0000                 0.0000                 0.0000
 Depolar     --     0.0000                 0.0000                 0.0000
 Atom AN      X      Y      Z        X      Y      Z        X      Y      Z
   1   7    -0.01  -0.00   0.01     0.00   0.00   0.00     0.01   0.00  -0.00
   2   6     0.05   0.00   0.06     0.01   0.00  -0.05    -0.02  -0.00  -0.03
   3   6     0.04  -0.01   0.22     0.02  -0.01   0.14    -0.02   0.01  -0.09
   4   6    -0.01  -0.00   0.00    -0.01   0.01   0.02    -0.02  -0.00  -0.02
   5   6     0.04  -0.06  -0.02    -0.12   0.14   0.03    -0.02   0.06   0.03
   6   6     0.02  -0.00   0.03    -0.03   0.01  -0.07     0.02  -0.01   0.07
   7   6    -0.02  -0.01   0.02    -0.05  -0.05   0.00    -0.16  -0.14   0.06
   8   6    -0.02   0.03   0.00     0.05  -0.07  -0.01    -0.01  -0.00   0.00
   9   6    -0.05  -0.00  -0.14     0.04  -0.01   0.06    -0.03  -0.00  -0.12
  10  17    -0.00   0.00   0.00     0.00   0.00   0.00     0.00  -0.00  -0.00
  11   1     0.01   0.02  -0.02    -0.01   0.01  -0.01    -0.01  -0.00   0.01
  12   1     0.01  -0.02  -0.02    -0.01  -0.01  -0.01    -0.01  -0.00   0.00
  13   1     0.01   0.00   0.01    -0.01  -0.00  -0.01    -0.01  -0.00  -0.01
  14   1    -0.06  -0.09  -0.11     0.02   0.07   0.10     0.02   0.04   0.05
  15   1    -0.06   0.09  -0.10     0.02  -0.08   0.10     0.03  -0.04   0.04
  16   1    -0.11  -0.30  -0.42    -0.06  -0.19  -0.28     0.05   0.12   0.18
  17   1    -0.07   0.34  -0.37    -0.05   0.22  -0.24     0.04  -0.14   0.15
  18   1    -0.00  -0.00  -0.00     0.01  -0.01  -0.01     0.02   0.01   0.01
  19   1    -0.05   0.15  -0.06     0.14  -0.38   0.15     0.04  -0.14   0.05
  20   1    -0.10   0.07   0.13     0.29  -0.14  -0.30     0.08  -0.07  -0.12
  21   1    -0.04  -0.06  -0.06     0.06   0.12   0.14    -0.06  -0.11  -0.12
  22   1    -0.02   0.05  -0.07     0.04  -0.11   0.16    -0.05   0.10  -0.14
  23   1     0.01   0.05  -0.03     0.03   0.13  -0.08     0.10   0.43  -0.26
  24   1     0.06   0.01   0.00     0.16   0.03   0.03     0.50   0.08   0.06
  25   1     0.06  -0.03  -0.06    -0.14   0.07   0.15     0.00  -0.00  -0.00
  26   1     0.03  -0.09   0.03    -0.07   0.19  -0.07    -0.01  -0.01  -0.00
  27   1     0.07  -0.20   0.26    -0.04   0.10  -0.13     0.05  -0.18   0.24
  28   1     0.10   0.21   0.25    -0.06  -0.10  -0.11     0.08   0.19   0.23
                     58                     59                     60
                        a                      a                      a 
 Frequencies --  1512.7340              1515.5851              1523.9129
 Red. masses --     1.9861                 1.8969                 1.9988
 Frc consts  --     0.0000                 0.0000                 0.0000
 IR Inten    --     1.0855                 2.2162                 0.0951
 Raman Activ --     0.0000                 0.0000                 0.0000
 Depolar     --     0.0000                 0.0000                 0.0000
 Atom AN      X      Y      Z        X      Y      Z        X      Y      Z
   1   7    -0.00  -0.00  -0.00    -0.00   0.00  -0.00     0.00   0.00  -0.00
   2   6     0.00  -0.00   0.03    -0.01  -0.00  -0.02    -0.01  -0.00  -0.02
   3   6    -0.00   0.00  -0.04    -0.01   0.00  -0.04     0.00   0.01  -0.02
   4   6    -0.00   0.00   0.01    -0.01   0.01  -0.01    -0.02  -0.00  -0.01
   5   6     0.07  -0.08  -0.03    -0.06   0.08   0.02    -0.06   0.08   0.03
   6   6    -0.06  -0.01  -0.15    -0.05  -0.00  -0.16     0.04   0.01   0.13
   7   6    -0.02  -0.01   0.01     0.05   0.05  -0.02     0.13   0.09  -0.03
   8   6     0.13  -0.14  -0.04    -0.07   0.11   0.03     0.08  -0.10  -0.04
   9   6    -0.03  -0.01  -0.08    -0.05   0.00  -0.13    -0.04  -0.01  -0.11
  10  17    -0.00  -0.00  -0.00    -0.00  -0.00  -0.00     0.00  -0.00   0.00
  11   1     0.01  -0.00   0.00    -0.00  -0.00   0.00    -0.00  -0.00   0.00
  12   1     0.00   0.01   0.01     0.00   0.00   0.00    -0.00  -0.00  -0.00
  13   1     0.00   0.01   0.00    -0.00  -0.00  -0.00    -0.00  -0.00  -0.00
  14   1    -0.01  -0.04  -0.05     0.01   0.03   0.03     0.01   0.02   0.03
  15   1    -0.01   0.04  -0.05     0.02  -0.03   0.03     0.01  -0.03   0.03
  16   1     0.01   0.05   0.08     0.03   0.05   0.08     0.01   0.02   0.03
  17   1     0.01  -0.06   0.07     0.02  -0.06   0.07     0.01  -0.03   0.03
  18   1     0.01  -0.01  -0.01    -0.01   0.00  -0.00     0.03   0.01   0.00
  19   1    -0.08   0.21  -0.09     0.07  -0.21   0.07     0.08  -0.21   0.09
  20   1    -0.17   0.08   0.17     0.14  -0.08  -0.17     0.16  -0.09  -0.17
  21   1     0.13   0.22   0.26     0.12   0.24   0.28    -0.09  -0.19  -0.22
  22   1     0.09  -0.22   0.28     0.08  -0.22   0.31    -0.06   0.18  -0.24
  23   1     0.02   0.04  -0.05    -0.04  -0.15   0.09    -0.07  -0.30   0.19
  24   1     0.06   0.00  -0.00    -0.18  -0.03  -0.03    -0.35  -0.06  -0.04
  25   1    -0.30   0.15   0.31     0.20  -0.11  -0.22    -0.20   0.11   0.21
  26   1    -0.15   0.39  -0.16     0.10  -0.28   0.10    -0.09   0.27  -0.11
  27   1     0.05  -0.12   0.14     0.06  -0.19   0.26     0.06  -0.16   0.21
  28   1     0.07   0.12   0.14     0.10   0.21   0.24     0.09   0.17   0.20
                     61                     62                     63
                        a                      a                      a 
 Frequencies --  2862.3344              2868.7622              2899.2473
 Red. masses --     1.7351                 2.0030                 1.9527
 Frc consts  --     0.0000                 0.0000                 0.0000
 IR Inten    --     9.2784              1712.1335                29.7367
 Raman Activ --     0.0000                 0.0000                 0.0000
 Depolar     --     0.0000                 0.0000                 0.0000
 Atom AN      X      Y      Z        X      Y      Z        X      Y      Z
   1   7    -0.00   0.02  -0.01    -0.04   0.23  -0.14    -0.00   0.00  -0.00
   2   6     0.00  -0.00   0.00    -0.00  -0.03   0.01    -0.00  -0.00  -0.00
   3   6    -0.00  -0.01  -0.00     0.00  -0.00   0.00     0.00   0.00   0.00
   4   6    -0.03   0.20  -0.15     0.00  -0.02   0.01    -0.00   0.00   0.00
   5   6    -0.01  -0.00   0.02     0.00   0.00  -0.01    -0.00   0.01  -0.01
   6   6    -0.00  -0.02   0.00     0.00   0.01   0.00    -0.03  -0.22  -0.01
   7   6    -0.00   0.00  -0.00     0.00  -0.00   0.00    -0.00   0.00  -0.01
   8   6    -0.00  -0.01   0.01     0.00   0.00  -0.01     0.07   0.07  -0.17
   9   6    -0.00  -0.02  -0.00     0.00   0.00  -0.00     0.00  -0.00   0.01
  10  17    -0.00  -0.00   0.00     0.00  -0.01   0.01     0.00   0.00   0.00
  11   1    -0.00  -0.00  -0.00    -0.01  -0.02  -0.03    -0.00   0.00  -0.00
  12   1     0.01  -0.06   0.04     0.18  -0.78   0.51     0.00  -0.00  -0.00
  13   1    -0.00   0.00   0.00    -0.02   0.01   0.02    -0.00  -0.00   0.00
  14   1    -0.01   0.02  -0.01    -0.01   0.08  -0.05    -0.00   0.00  -0.00
  15   1    -0.00  -0.00  -0.00     0.00   0.01   0.01     0.00   0.01   0.01
  16   1    -0.01   0.04  -0.03    -0.00   0.00  -0.00     0.00  -0.00   0.00
  17   1     0.00   0.02   0.02    -0.00  -0.00  -0.00    -0.00  -0.01  -0.01
  18   1     0.13  -0.77   0.55    -0.01   0.06  -0.04    -0.00   0.00   0.00
  19   1     0.03  -0.01  -0.04    -0.01   0.00   0.02     0.01   0.00  -0.01
  20   1    -0.01   0.05  -0.03     0.00  -0.01   0.01     0.01  -0.05   0.04
  21   1    -0.00   0.03  -0.02     0.00  -0.01   0.01    -0.06   0.31  -0.26
  22   1     0.01   0.02   0.02    -0.00  -0.01  -0.01     0.15   0.46   0.31
  23   1     0.00  -0.00   0.00    -0.01   0.00  -0.00     0.01  -0.00   0.00
  24   1    -0.00  -0.00   0.00     0.00   0.00  -0.00     0.00  -0.01   0.01
  25   1    -0.00   0.03  -0.02     0.00  -0.01   0.00     0.06  -0.30   0.19
  26   1     0.02  -0.00  -0.02    -0.01   0.00   0.01    -0.31   0.05   0.42
  27   1     0.01   0.04   0.03    -0.00  -0.01  -0.00    -0.01  -0.02  -0.01
  28   1    -0.01   0.04  -0.04     0.00  -0.01   0.01    -0.01   0.04  -0.03
                     64                     65                     66
                        a                      a                      a 
 Frequencies --  2901.0146              2904.7682              2910.1515
 Red. masses --     1.9148                 1.9038                 1.8930
 Frc consts  --     0.0000                 0.0000                 0.0000
 IR Inten    --    42.3129                28.2735                36.2967
 Raman Activ --     0.0000                 0.0000                 0.0000
 Depolar     --     0.0000                 0.0000                 0.0000
 Atom AN      X      Y      Z        X      Y      Z        X      Y      Z
   1   7     0.00  -0.01   0.00     0.00  -0.00   0.00     0.00  -0.00   0.00
   2   6     0.00   0.00   0.00     0.00   0.00  -0.00     0.00   0.00   0.00
   3   6    -0.00  -0.00  -0.00    -0.00   0.00  -0.00     0.00   0.02   0.01
   4   6    -0.00   0.01  -0.01     0.00   0.00  -0.00     0.00  -0.01   0.00
   5   6    -0.00  -0.00   0.01     0.00   0.01  -0.02     0.04   0.03  -0.09
   6   6     0.02   0.16   0.01    -0.01  -0.09  -0.03     0.00  -0.01   0.01
   7   6     0.09  -0.08   0.07     0.20  -0.10   0.11     0.02  -0.00   0.01
   8   6     0.07   0.07  -0.16    -0.04  -0.01   0.08    -0.03   0.02   0.01
   9   6     0.00  -0.01   0.00     0.00   0.05   0.00    -0.05  -0.25  -0.05
  10  17    -0.00   0.00  -0.00     0.00   0.00  -0.00     0.00  -0.00  -0.00
  11   1     0.00   0.00   0.00    -0.00   0.00  -0.00     0.00  -0.00   0.00
  12   1    -0.00   0.02  -0.01    -0.00   0.00  -0.00    -0.00   0.00   0.00
  13   1     0.00  -0.00  -0.00    -0.00   0.00  -0.00     0.00   0.00  -0.00
  14   1    -0.00   0.00  -0.00     0.00  -0.00   0.00     0.00  -0.00   0.00
  15   1    -0.00  -0.00  -0.00    -0.00   0.00   0.00    -0.00  -0.01  -0.01
  16   1    -0.00  -0.00  -0.00     0.00  -0.00   0.00     0.00  -0.01   0.01
  17   1     0.00   0.00   0.00    -0.00  -0.00  -0.00    -0.01  -0.05  -0.04
  18   1     0.01  -0.04   0.03     0.00   0.00  -0.00    -0.01   0.03  -0.02
  19   1     0.01  -0.00  -0.01    -0.03   0.01   0.04    -0.17   0.03   0.23
  20   1    -0.01   0.04  -0.03     0.01  -0.06   0.04     0.03  -0.14   0.09
  21   1     0.05  -0.25   0.21    -0.01   0.04  -0.05    -0.01   0.05  -0.04
  22   1    -0.11  -0.35  -0.23     0.08   0.26   0.16    -0.00  -0.00   0.00
  23   1    -0.31   0.01  -0.08    -0.71   0.05  -0.20    -0.07   0.01  -0.02
  24   1    -0.02   0.29  -0.20    -0.00   0.29  -0.20     0.00   0.01  -0.00
  25   1     0.06  -0.31   0.19    -0.02   0.06  -0.03     0.01  -0.09   0.07
  26   1    -0.29   0.05   0.40     0.19  -0.03  -0.26     0.08  -0.01  -0.12
  27   1     0.01   0.02   0.01    -0.03  -0.08  -0.06     0.21   0.64   0.42
  28   1    -0.01   0.05  -0.04     0.01  -0.08   0.06    -0.06   0.26  -0.23
                     67                     68                     69
                        a                      a                      a 
 Frequencies --  2915.2496              2932.4504              2935.6451
 Red. masses --     1.8605                 1.8725                 1.5315
 Frc consts  --     0.0000                 0.0000                 0.0000
 IR Inten    --    48.2663                22.5302                63.6346
 Raman Activ --     0.0000                 0.0000                 0.0000
 Depolar     --     0.0000                 0.0000                 0.0000
 Atom AN      X      Y      Z        X      Y      Z        X      Y      Z
   1   7    -0.00   0.01  -0.00    -0.00   0.01  -0.00    -0.00   0.00  -0.00
   2   6    -0.00  -0.01  -0.01     0.00   0.08   0.01     0.00   0.01   0.00
   3   6     0.00   0.01   0.00    -0.02  -0.25  -0.08    -0.00  -0.02  -0.00
   4   6    -0.00  -0.02   0.02    -0.00  -0.02   0.00     0.00  -0.00  -0.00
   5   6    -0.11  -0.06   0.22    -0.01   0.01   0.00     0.02   0.01  -0.04
   6   6    -0.02  -0.01  -0.04    -0.00  -0.00  -0.01    -0.05   0.03  -0.14
   7   6     0.02   0.01  -0.00    -0.00   0.00  -0.00     0.00  -0.00  -0.00
   8   6    -0.01   0.01   0.01    -0.01   0.02   0.00     0.08  -0.13  -0.00
   9   6    -0.02  -0.08  -0.03     0.00  -0.02   0.01    -0.00  -0.03  -0.01
  10  17     0.00  -0.00   0.00    -0.00  -0.00   0.00    -0.00  -0.00  -0.00
  11   1    -0.00  -0.00  -0.00     0.00   0.01   0.00     0.00   0.00   0.00
  12   1     0.00  -0.02   0.01     0.00  -0.02   0.01    -0.00   0.00   0.00
  13   1    -0.00   0.00   0.00     0.00   0.00  -0.00     0.00   0.00  -0.00
  14   1     0.00   0.00  -0.00     0.03  -0.13   0.09     0.00  -0.01   0.01
  15   1     0.01   0.04   0.03    -0.03  -0.19  -0.15    -0.01  -0.03  -0.02
  16   1     0.00  -0.02   0.01    -0.06   0.29  -0.21    -0.01   0.02  -0.02
  17   1    -0.01  -0.03  -0.02     0.15   0.62   0.52     0.01   0.03   0.03
  18   1    -0.01   0.06  -0.04    -0.00   0.03  -0.02     0.00   0.00  -0.00
  19   1     0.46  -0.08  -0.64     0.03  -0.00  -0.04    -0.08   0.01   0.11
  20   1    -0.07   0.29  -0.17     0.01  -0.04   0.03     0.01  -0.04   0.02
  21   1     0.02  -0.12   0.08     0.00  -0.02   0.01     0.07  -0.45   0.32
  22   1     0.04   0.15   0.08     0.00   0.02   0.01     0.10   0.34   0.18
  23   1    -0.06   0.01  -0.02     0.01   0.00   0.00     0.00  -0.00  -0.00
  24   1     0.01  -0.03   0.02     0.00  -0.01   0.01     0.00  -0.00  -0.00
  25   1     0.00  -0.03   0.03     0.01  -0.08   0.06    -0.06   0.44  -0.32
  26   1     0.04  -0.00  -0.07     0.04  -0.00  -0.06    -0.22   0.01   0.32
  27   1     0.08   0.24   0.16     0.00   0.01   0.01     0.03   0.09   0.06
  28   1    -0.01   0.06  -0.06    -0.01   0.06  -0.05    -0.00   0.02  -0.02
                     70                     71                     72
                        a                      a                      a 
 Frequencies --  2937.1732              2941.6012              2951.1387
 Red. masses --     1.5070                 1.5850                 1.5903
 Frc consts  --     0.0000                 0.0000                 0.0000
 IR Inten    --    48.0397                74.3169                32.0517
 Raman Activ --     0.0000                 0.0000                 0.0000
 Depolar     --     0.0000                 0.0000                 0.0000
 Atom AN      X      Y      Z        X      Y      Z        X      Y      Z
   1   7     0.00  -0.00   0.00    -0.00   0.00  -0.00     0.00  -0.00   0.00
   2   6    -0.00   0.01  -0.00    -0.00   0.00  -0.00     0.00  -0.07  -0.01
   3   6    -0.00  -0.02  -0.01    -0.00  -0.02  -0.00    -0.01   0.02  -0.02
   4   6    -0.00  -0.01   0.00    -0.00  -0.00   0.00    -0.00  -0.00   0.01
   5   6    -0.02   0.01   0.03    -0.03   0.02   0.02    -0.05   0.08  -0.01
   6   6     0.04  -0.02   0.12     0.01  -0.05   0.06     0.00   0.01   0.01
   7   6     0.09   0.06  -0.02    -0.07  -0.15   0.09    -0.00  -0.02   0.01
   8   6     0.07  -0.10  -0.01     0.02  -0.07   0.03     0.00  -0.03   0.03
   9   6    -0.01  -0.02  -0.02    -0.01  -0.00  -0.04     0.05  -0.09   0.16
  10  17     0.00   0.00  -0.00     0.00  -0.00   0.00     0.00   0.00  -0.00
  11   1     0.00   0.00   0.00     0.00   0.00   0.00    -0.00  -0.00  -0.00
  12   1    -0.00   0.00  -0.00     0.00  -0.01   0.00    -0.00   0.01  -0.00
  13   1     0.00  -0.00  -0.00    -0.00   0.00  -0.00     0.00   0.00  -0.00
  14   1     0.00  -0.02   0.01     0.00  -0.01   0.00    -0.03   0.11  -0.08
  15   1    -0.00  -0.02  -0.01     0.00   0.00   0.00     0.03   0.13   0.11
  16   1    -0.01   0.02  -0.02    -0.01   0.03  -0.02     0.02  -0.10   0.06
  17   1     0.01   0.05   0.04     0.01   0.03   0.02     0.01   0.03   0.02
  18   1    -0.00   0.02  -0.01    -0.00   0.02  -0.01    -0.00   0.01  -0.01
  19   1     0.08  -0.01  -0.11     0.09  -0.01  -0.13     0.12  -0.00  -0.18
  20   1     0.00  -0.02   0.02     0.01  -0.08   0.06     0.05  -0.30   0.22
  21   1    -0.05   0.36  -0.26    -0.04   0.24  -0.18    -0.00   0.01  -0.01
  22   1    -0.08  -0.29  -0.16    -0.02  -0.07  -0.03    -0.01  -0.03  -0.02
  23   1    -0.37   0.04  -0.12     0.33  -0.05   0.11     0.01  -0.00   0.00
  24   1     0.04  -0.27   0.19    -0.08   0.60  -0.42    -0.01   0.06  -0.04
  25   1    -0.05   0.37  -0.26    -0.04   0.24  -0.17    -0.02   0.10  -0.07
  26   1    -0.19   0.01   0.28    -0.05  -0.00   0.07     0.01  -0.01  -0.01
  27   1     0.03   0.10   0.06     0.04   0.14   0.08    -0.08  -0.29  -0.15
  28   1     0.00  -0.04   0.02     0.02  -0.13   0.09    -0.09   0.61  -0.43
                     73                     74                     75
                        a                      a                      a 
 Frequencies --  2954.6895              2957.1140              2968.9943
 Red. masses --     1.6781                 1.8623                 1.5818
 Frc consts  --     0.0000                 0.0000                 0.0000
 IR Inten    --    82.3838                27.6174                 5.8014
 Raman Activ --     0.0000                 0.0000                 0.0000
 Depolar     --     0.0000                 0.0000                 0.0000
 Atom AN      X      Y      Z        X      Y      Z        X      Y      Z
   1   7     0.00  -0.01   0.01     0.00  -0.02   0.01    -0.00   0.00  -0.00
   2   6     0.00  -0.12  -0.02     0.01  -0.24  -0.02    -0.02  -0.04  -0.08
   3   6     0.00  -0.03   0.00    -0.02  -0.06  -0.07     0.05  -0.12   0.15
   4   6    -0.00   0.02  -0.01     0.00  -0.01   0.00     0.01  -0.01   0.01
   5   6    -0.06   0.15  -0.05     0.04  -0.08   0.01     0.01  -0.02   0.00
   6   6    -0.01   0.04  -0.03     0.00  -0.01   0.01     0.00  -0.00   0.00
   7   6     0.00   0.03  -0.02     0.00  -0.01   0.01     0.00  -0.00   0.00
   8   6    -0.01   0.03  -0.02     0.00  -0.01   0.00     0.00  -0.00   0.00
   9   6    -0.02   0.06  -0.08    -0.00  -0.01  -0.01     0.01  -0.01   0.02
  10  17    -0.00   0.00  -0.00     0.00   0.00  -0.00    -0.00  -0.00   0.00
  11   1    -0.00  -0.00  -0.00    -0.00  -0.01  -0.01    -0.00  -0.01  -0.01
  12   1    -0.01   0.03  -0.02    -0.01   0.05  -0.03    -0.00  -0.00   0.00
  13   1     0.00  -0.00  -0.00     0.00  -0.00  -0.01    -0.00   0.00   0.00
  14   1    -0.04   0.18  -0.13    -0.10   0.43  -0.30     0.03  -0.16   0.09
  15   1     0.04   0.23   0.18     0.08   0.43   0.35     0.05   0.31   0.22
  16   1    -0.01   0.07  -0.04     0.01  -0.07   0.03    -0.12   0.69  -0.40
  17   1     0.01   0.04   0.03     0.06   0.27   0.21    -0.05  -0.24  -0.17
  18   1     0.01  -0.04   0.03    -0.00   0.02  -0.01    -0.00   0.03  -0.02
  19   1     0.14   0.00  -0.22    -0.11   0.00   0.17    -0.02   0.00   0.03
  20   1     0.09  -0.55   0.39    -0.05   0.30  -0.22    -0.01   0.06  -0.05
  21   1     0.02  -0.12   0.09    -0.01   0.04  -0.03    -0.00   0.01  -0.01
  22   1    -0.00   0.00  -0.01     0.00   0.01   0.01    -0.00  -0.00  -0.00
  23   1    -0.02   0.01  -0.01    -0.00  -0.00   0.00    -0.00  -0.00  -0.00
  24   1     0.01  -0.12   0.08    -0.00   0.03  -0.02    -0.00   0.01  -0.01
  25   1     0.02  -0.10   0.07    -0.00   0.03  -0.02    -0.00   0.02  -0.01
  26   1     0.01   0.00  -0.01    -0.01   0.00   0.01    -0.00  -0.00   0.00
  27   1     0.03   0.13   0.06     0.01   0.04   0.03    -0.01  -0.05  -0.02
  28   1     0.05  -0.34   0.24     0.00  -0.01   0.00    -0.01   0.09  -0.06
                     76                     77                     78
                        a                      a                      a 
 Frequencies --  2984.7020              3169.5679              3177.2266
 Red. masses --     1.5436                 2.0423                 1.4802
 Frc consts  --     0.0000                 0.0000                 0.0000
 IR Inten    --    12.4360                46.9858                19.4457
 Raman Activ --     0.0000                 0.0000                 0.0000
 Depolar     --     0.0000                 0.0000                 0.0000
 Atom AN      X      Y      Z        X      Y      Z        X      Y      Z
   1   7     0.01  -0.02   0.01     0.10  -0.12  -0.24     0.13   0.14   0.00
   2   6     0.05  -0.05   0.18    -0.00  -0.00  -0.01     0.01   0.01   0.01
   3   6     0.02  -0.04   0.08     0.00   0.00   0.00    -0.00  -0.00  -0.00
   4   6     0.00  -0.01   0.01    -0.00   0.00  -0.00    -0.00  -0.00   0.00
   5   6    -0.00  -0.00   0.01     0.00   0.00  -0.00    -0.00   0.00  -0.00
   6   6     0.00  -0.00   0.00    -0.00   0.00   0.00     0.00   0.00   0.00
   7   6     0.00  -0.00   0.00    -0.00   0.00  -0.00     0.00   0.00  -0.00
   8   6     0.00  -0.00   0.00     0.00  -0.00   0.00     0.00  -0.00  -0.00
   9   6     0.00  -0.00   0.01     0.00  -0.00   0.00    -0.00  -0.00  -0.00
  10  17    -0.00   0.00  -0.00     0.00   0.00   0.00     0.00  -0.00   0.00
  11   1     0.00   0.02   0.02     0.11   0.47   0.33    -0.11  -0.61  -0.46
  12   1    -0.01   0.05  -0.03     0.01  -0.01  -0.02    -0.00   0.07  -0.03
  13   1     0.00  -0.00   0.00    -0.48  -0.03   0.58    -0.37   0.00   0.48
  14   1    -0.13   0.60  -0.36     0.00  -0.00   0.00    -0.00   0.01  -0.01
  15   1    -0.07  -0.44  -0.30     0.00   0.02   0.01    -0.00  -0.02  -0.01
  16   1    -0.05   0.29  -0.17     0.00  -0.00   0.00     0.00  -0.00   0.00
  17   1    -0.03  -0.14  -0.10    -0.00   0.00   0.00     0.00   0.00   0.00
  18   1    -0.01   0.02  -0.02     0.00  -0.00   0.00    -0.00   0.00  -0.00
  19   1     0.02  -0.00  -0.02    -0.00  -0.00   0.00     0.00   0.00  -0.00
  20   1    -0.00   0.01  -0.01     0.00  -0.00   0.00     0.00  -0.00   0.00
  21   1    -0.00   0.01  -0.01    -0.00  -0.00   0.00    -0.00   0.00  -0.00
  22   1     0.00  -0.00  -0.00    -0.00  -0.00   0.00    -0.00  -0.00  -0.00
  23   1    -0.00   0.00  -0.00    -0.00   0.00   0.00    -0.00   0.00  -0.00
  24   1    -0.00   0.00  -0.00    -0.00   0.00   0.00     0.00  -0.00   0.00
  25   1    -0.00   0.01  -0.00     0.00   0.00  -0.00    -0.00   0.00  -0.00
  26   1     0.00  -0.00  -0.00     0.00   0.00  -0.00    -0.00   0.00   0.00
  27   1    -0.01  -0.02  -0.01     0.00   0.00   0.00     0.00   0.00   0.00
  28   1    -0.00   0.03  -0.02    -0.00  -0.00   0.00     0.00  -0.00   0.00
