23
 energy: -32.815722027012 gnorm: 0.000656255859 xtb: 6.5.1 (fef0646)
N            1.53790669114945       -0.27837211523255       -0.81575125487645
C            2.73361727798166       -0.24673236394513        0.03396899380982
C            3.16110896444128        1.17126320041960        0.24099964887594
C            4.39350807033737        1.61493178044834        0.00857933885573
C            4.87461733447022        2.97843800383994        0.18490925451954
C            4.10830569098507        3.98358536636023        0.77738930201445
C            4.60915796982713        5.26351555038296        0.91338214905386
C            5.88324938157389        5.57067192466869        0.46294406043399
C            6.65712281745984        4.58326559727669       -0.12303813428723
C            6.15859168289859        3.30167818769945       -0.25748403663988
Cl          -0.60385005343011        1.29042878102608        0.43774786293006
H            1.20711994759492       -1.22676277117214       -0.95368718710922
H            1.73274408255945        0.13929210694679       -1.71980215072499
H            0.40071445382891        0.56082545182233       -0.14516110650488
H            3.56067213141171       -0.83613133053492       -0.38621765822991
H            2.45267536044491       -0.68582204946801        0.99725429389991
H            2.37568498046201        1.82559024198136        0.58549566383328
H            5.14072021744286        0.91696577829423       -0.35438123737765
H            3.11701697843928        3.76171217217246        1.14004475840179
H            4.00275832079148        6.02887230225397        1.37536279086945
H            6.27064192727646        6.57294189410144        0.57034631745227
H            7.65250668759469        4.81276075433061       -0.47489062689978
H            6.76960908445830        2.53649153632796       -0.71625104230064
