      -----------------------------------------------------------      
     |                   =====================                   |     
     |                           x T B                           |     
     |                   =====================                   |     
     |                         S. Grimme                         |     
     |          Mulliken Center for Theoretical Chemistry        |     
     |                    University of Bonn                     |     
      -----------------------------------------------------------      

   * xtb version 6.5.1 (fef0646) compiled by 'conda@b96dff2e9fd6' on 2023-01-04

   xtb is free software: you can redistribute it and/or modify it under
   the terms of the GNU Lesser General Public License as published by
   the Free Software Foundation, either version 3 of the License, or
   (at your option) any later version.
   
   xtb is distributed in the hope that it will be useful,
   but WITHOUT ANY WARRANTY; without even the implied warranty of
   MERCHANTABILITY or FITNESS FOR A PARTICULAR PURPOSE.  See the
   GNU Lesser General Public License for more details.
   
   Cite this work as:
   * C. Bannwarth, E. Caldeweyher, S. Ehlert, A. Hansen, P. Pracht,
     J. Seibert, S. Spicher, S. Grimme, WIREs Comput. Mol. Sci., 2020, 11,
     e01493. DOI: 10.1002/wcms.1493
   
   for GFN2-xTB:
   * C. Bannwarth, S. Ehlert and S. Grimme., J. Chem. Theory Comput., 2019,
     15, 1652-1671. DOI: 10.1021/acs.jctc.8b01176
   for GFN1-xTB:
   * S. Grimme, C. Bannwarth, P. Shushkov, J. Chem. Theory Comput., 2017,
     13, 1989-2009. DOI: 10.1021/acs.jctc.7b00118
   for GFN0-xTB:
   * P. Pracht, E. Caldeweyher, S. Ehlert, S. Grimme, ChemRxiv, 2019, preprint.
     DOI: 10.26434/chemrxiv.8326202.v1
   for GFN-FF:
   * S. Spicher and S. Grimme, Angew. Chem. Int. Ed., 2020, 59, 15665-15673.
     DOI: 10.1002/anie.202004239
   
   for ALPB and GBSA implicit solvation:
   * S. Ehlert, M. Stahn, S. Spicher, S. Grimme, J. Chem. Theory Comput.,
     2021, 17, 4250-4261. DOI: 10.1021/acs.jctc.1c00471
   
   for DFT-D4:
   * E. Caldeweyher, C. Bannwarth and S. Grimme, J. Chem. Phys., 2017,
     147, 034112. DOI: 10.1063/1.4993215
   * E. Caldeweyher, S. Ehlert, A. Hansen, H. Neugebauer, S. Spicher,
     C. Bannwarth and S. Grimme, J. Chem. Phys., 2019, 150, 154122.
     DOI: 10.1063/1.5090222
   * E. Caldeweyher, J.-M. Mewes, S. Ehlert and S. Grimme, Phys. Chem. Chem. Phys.
     2020, 22, 8499-8512. DOI: 10.1039/D0CP00502A
   
   for sTDA-xTB:
   * S. Grimme and C. Bannwarth, J. Chem. Phys., 2016, 145, 054103.
     DOI: 10.1063/1.4959605
   
   in the mass-spec context:
   * V. Asgeirsson, C. Bauer and S. Grimme, Chem. Sci., 2017, 8, 4879.
     DOI: 10.1039/c7sc00601b
   * J. Koopman and S. Grimme, ACS Omega 2019, 4, 12, 15120-15133.
     DOI: 10.1021/acsomega.9b02011
   
   for metadynamics refer to:
   * S. Grimme, J. Chem. Theory Comput., 2019, 155, 2847-2862
     DOI: 10.1021/acs.jctc.9b00143
   
   for SPH calculations refer to:
   * S. Spicher and S. Grimme, J. Chem. Theory Comput., 2021, 17, 1701-1714
     DOI: 10.1021/acs.jctc.0c01306
   
   with help from (in alphabetical order)
   P. Atkinson, C. Bannwarth, F. Bohle, G. Brandenburg, E. Caldeweyher
   M. Checinski, S. Dohm, S. Ehlert, S. Ehrlich, I. Gerasimov, C. Hölzer
   A. Katbashev, J. Koopman, C. Lavigne, S. Lehtola, F. März, M. Müller,
   F. Musil, H. Neugebauer, J. Pisarek, C. Plett, P. Pracht, F. Pultar,
   J. Seibert, P. Shushkov, S. Spicher, M. Stahn, M. Steiner, T. Strunk,
   J. Stückrath, T. Rose, and J. Unsleber
   
 * started run on 2023/01/23 at 13:53:50.237     

           -------------------------------------------------
          |                Calculation Setup                |
           -------------------------------------------------

          program call               : xtb init.xyz --opt -c 0 -u 0 -P 16
          hostname                   : gpg-woodward
          coordinate file            : init.xyz
          omp threads                :                    16

   ID    Z sym.   atoms
    1    7 N      1
    2    6 C      2-17
    3   17 Cl     18
    4    1 H      19-36

molecular fragmentation (1/2 indicates fragments):
111111111111111112111111111111111111
# atoms in fragment 1/2:    35     1
 fragment masses (1/2) :      224.32       35.45
CMA distance (Bohr)    :  16.613
constraining FC (au)   :  0.0500

           -------------------------------------------------
          |                 G F N 2 - x T B                 |
           -------------------------------------------------

        Reference                      10.1021/acs.jctc.8b01176
      * Hamiltonian:
        H0-scaling (s, p, d)           1.850000    2.230000    2.230000
        zeta-weighting                 0.500000
      * Dispersion:
        s8                             2.700000
        a1                             0.520000
        a2                             5.000000
        s9                             5.000000
      * Repulsion:
        kExp                           1.500000    1.000000
        rExp                           1.000000
      * Coulomb:
        alpha                          2.000000
        third order                    shell-resolved
        anisotropic                    true
        a3                             3.000000
        a5                             4.000000
        cn-shift                       1.200000
        cn-exp                         4.000000
        max-rad                        5.000000


          ...................................................
          :                      SETUP                      :
          :.................................................:
          :  # basis functions                  96          :
          :  # atomic orbitals                  95          :
          :  # shells                           55          :
          :  # electrons                        94          :
          :  max. iterations                   250          :
          :  Hamiltonian                  GFN2-xTB          :
          :  restarted?                      false          :
          :  GBSA solvation                  false          :
          :  PC potential                    false          :
          :  electronic temp.          300.0000000     K    :
          :  accuracy                    1.0000000          :
          :  -> integral cutoff          0.2500000E+02      :
          :  -> integral neglect         0.1000000E-07      :
          :  -> SCF convergence          0.1000000E-05 Eh   :
          :  -> wf. convergence          0.1000000E-03 e    :
          :  Broyden damping             0.4000000          :
          ...................................................

 iter      E             dE          RMSdq      gap      omega  full diag
   1    -51.5110843 -0.515111E+02  0.451E+00    3.03       0.0  T
   2    -51.6400515 -0.128967E+00  0.263E+00    2.95       1.0  T
   3    -51.6439424 -0.389082E-02  0.110E+00    2.02       1.0  T
   4    -51.6422353  0.170706E-02  0.432E-01    1.90       1.0  T
   5    -51.6471922 -0.495685E-02  0.226E-01    1.85       1.0  T
   6    -51.6475691 -0.376905E-03  0.152E-01    1.88       1.0  T
   7    -51.6477413 -0.172279E-03  0.978E-02    1.87       1.0  T
   8    -51.6479058 -0.164513E-03  0.453E-02    1.86       1.0  T
   9    -51.6479389 -0.330607E-04  0.208E-02    1.86       1.0  T
  10    -51.6479430 -0.411139E-05  0.769E-03    1.86       2.2  T
  11    -51.6479443 -0.131805E-05  0.247E-03    1.86       6.7  T
  12    -51.6479444 -0.408978E-07  0.127E-03    1.86      13.1  T
  13    -51.6479444 -0.161998E-07  0.538E-04    1.86      31.0  T
  14    -51.6479444 -0.302941E-08  0.310E-04    1.86      53.8  T

   *** convergence criteria satisfied after 14 iterations ***

         #    Occupation            Energy/Eh            Energy/eV
      -------------------------------------------------------------
         1        2.0000           -0.9510804             -25.8802
       ...           ...                  ...                  ...
        41        2.0000           -0.4166331             -11.3372
        42        2.0000           -0.4147027             -11.2846
        43        2.0000           -0.4074325             -11.0868
        44        2.0000           -0.3820329             -10.3956
        45        2.0000           -0.3505181              -9.5381
        46        2.0000           -0.3404522              -9.2642
        47        2.0000           -0.3400740              -9.2539 (HOMO)
        48                         -0.2716927              -7.3931 (LUMO)
        49                         -0.2411515              -6.5621
        50                         -0.2305253              -6.2729
        51                         -0.2249890              -6.1223
        52                         -0.1808160              -4.9203
       ...                                ...                  ...
        95                          0.6552625              17.8306
      -------------------------------------------------------------
                  HL-Gap            0.0683813 Eh            1.8608 eV
             Fermi-level           -0.3058834 Eh           -8.3235 eV

 SCC (total)                   0 d,  0 h,  0 min,  0.098 sec
 SCC setup                      ...        0 min,  0.000 sec (  0.296%)
 Dispersion                     ...        0 min,  0.001 sec (  0.845%)
 classical contributions        ...        0 min,  0.000 sec (  0.116%)
 integral evaluation            ...        0 min,  0.003 sec (  2.913%)
 iterations                     ...        0 min,  0.088 sec ( 89.962%)
 molecular gradient             ...        0 min,  0.005 sec (  4.853%)
 printout                       ...        0 min,  0.001 sec (  0.716%)

         :::::::::::::::::::::::::::::::::::::::::::::::::::::
         ::                     SUMMARY                     ::
         :::::::::::::::::::::::::::::::::::::::::::::::::::::
         :: total energy             -50.843914452689 Eh    ::
         :: gradient norm              0.060440425254 Eh/a0 ::
         :: HOMO-LUMO gap              1.860750269715 eV    ::
         ::.................................................::
         :: SCC energy               -51.647944398581 Eh    ::
         :: -> isotropic ES            0.090573101318 Eh    ::
         :: -> anisotropic ES         -0.018479002625 Eh    ::
         :: -> anisotropic XC          0.022763271201 Eh    ::
         :: -> dispersion             -0.032443571074 Eh    ::
         :: repulsion energy           0.804424687417 Eh    ::
         :: add. restraining           0.000000000000 Eh    ::
         :: total charge               0.000000000000 e     ::
         :::::::::::::::::::::::::::::::::::::::::::::::::::::

      ----------------------------------------------------------- 
     |                   =====================                   |
     |                        A N C O P T                        |
     |                   =====================                   |
     |               Approximate Normal Coordinate               |
     |                Rational Function Optimizer                |
      ----------------------------------------------------------- 

          ...................................................
          :                      SETUP                      :
          :.................................................:
          :   optimization level            normal          :
          :   max. optcycles                   200          :
          :   ANC micro-cycles                  20          :
          :   degrees of freedom               102          :
          :.................................................:
          :   RF solver                   davidson          :
          :   write xtbopt.log                true          :
          :   linear?                        false          :
          :   energy convergence         0.5000000E-05 Eh   :
          :   grad. convergence          0.1000000E-02 Eh/α :
          :   maximium RF displ.         1.0000000          :
          :   Hlow (freq-cutoff)         0.1000000E-01      :
          :   Hmax (freq-cutoff)         5.0000000          :
          :   S6 in model hess.         20.0000000          :
          ...................................................

generating ANC from model Hessian ...
Using Lindh-Hessian (1995)
 Shifting diagonal of input Hessian by    9.9371839777291377E-003
 Lowest  eigenvalues of input Hessian
    0.000000    0.000000    0.000000    0.000000    0.000000    0.000000
    0.010000    0.010210    0.010554    0.010881    0.010996    0.012035
    0.012439    0.012719    0.014893    0.015590    0.018189    0.019274
 Highest eigenvalues
    1.833790    1.860438    1.919908    1.949353    1.955272    2.029992


........................................................................
.............................. CYCLE    1 ..............................
........................................................................
   1    -51.6479444 -0.516479E+02  0.181E-04    1.86       0.0  T
   2    -51.6479444 -0.179512E-09  0.146E-04    1.86     114.0  T
   3    -51.6479444 -0.999876E-10  0.119E-04    1.86     139.9  T
     SCC iter.                  ...        0 min,  0.019 sec
     gradient                   ...        0 min,  0.005 sec
 * total energy  :   -50.8439145 Eh     change       -0.7982663E-09 Eh
   gradient norm :     0.0604411 Eh/α   predicted     0.0000000E+00 (-100.00%)
   displ. norm   :     0.2899711 α      lambda       -0.1154653E-01
   maximum displ.:     0.1177195 α      in ANC's #59, #23, #33, ...

........................................................................
.............................. CYCLE    2 ..............................
........................................................................
   1    -51.6841409 -0.516841E+02  0.231E-01    1.99       0.0  T
   2    -51.6843272 -0.186273E-03  0.139E-01    2.05       1.0  T
   3    -51.6843349 -0.772417E-05  0.420E-02    2.11       1.0  T
   4    -51.6843369 -0.198589E-05  0.232E-02    2.14       1.0  T
   5    -51.6843506 -0.137307E-04  0.141E-02    2.14       1.2  T
   6    -51.6843519 -0.121659E-05  0.989E-03    2.14       1.7  T
   7    -51.6843531 -0.126543E-05  0.594E-03    2.14       2.8  T
   8    -51.6843537 -0.543105E-06  0.279E-03    2.14       6.0  T
   9    -51.6843538 -0.113356E-06  0.819E-04    2.14      20.3  T
  10    -51.6843538 -0.159721E-07  0.342E-04    2.14      48.8  T
     SCC iter.                  ...        0 min,  0.060 sec
     gradient                   ...        0 min,  0.005 sec
 * total energy  :   -50.8519624 Eh     change       -0.8047910E-02 Eh
   gradient norm :     0.0424368 Eh/α   predicted    -0.6259410E-02 ( -22.22%)
   displ. norm   :     0.4266738 α      lambda       -0.7861217E-02
   maximum displ.:     0.1623068 α      in ANC's #6, #9, #5, ...

........................................................................
.............................. CYCLE    3 ..............................
........................................................................
   1    -51.7109573 -0.517110E+02  0.219E-01    2.14       0.0  T
   2    -51.7111357 -0.178390E-03  0.132E-01    2.20       1.0  T
   3    -51.7111514 -0.157874E-04  0.386E-02    2.27       1.0  T
   4    -51.7111547 -0.321385E-05  0.219E-02    2.29       1.0  T
   5    -51.7111620 -0.733282E-05  0.153E-02    2.29       1.1  T
   6    -51.7111636 -0.161314E-05  0.102E-02    2.29       1.6  T
   7    -51.7111650 -0.142602E-05  0.578E-03    2.29       2.9  T
   8    -51.7111655 -0.450891E-06  0.279E-03    2.29       6.0  T
   9    -51.7111656 -0.102830E-06  0.846E-04    2.29      19.7  T
  10    -51.7111656 -0.101868E-07  0.568E-04    2.29      29.4  T
     SCC iter.                  ...        0 min,  0.056 sec
     gradient                   ...        0 min,  0.004 sec
 * total energy  :   -50.8572576 Eh     change       -0.5295240E-02 Eh
   gradient norm :     0.0355150 Eh/α   predicted    -0.4646291E-02 ( -12.26%)
   displ. norm   :     0.3706308 α      lambda       -0.4535866E-02
   maximum displ.:     0.1529001 α      in ANC's #9, #7, #6, ...

........................................................................
.............................. CYCLE    4 ..............................
........................................................................
   1    -51.7125224 -0.517125E+02  0.232E-01    2.35       0.0  T
   2    -51.7129198 -0.397381E-03  0.136E-01    2.46       1.0  T
   3    -51.7129656 -0.457515E-04  0.613E-02    2.57       1.0  T
   4    -51.7129829 -0.173411E-04  0.334E-02    2.62       1.0  T
   5    -51.7129899 -0.702575E-05  0.258E-02    2.62       1.0  T
   6    -51.7129989 -0.891073E-05  0.132E-02    2.62       1.3  T
   7    -51.7130019 -0.306259E-05  0.639E-03    2.62       2.6  T
   8    -51.7130025 -0.562565E-06  0.204E-03    2.62       8.2  T
   9    -51.7130026 -0.829864E-07  0.117E-03    2.62      14.2  T
  10    -51.7130026 -0.162188E-07  0.761E-04    2.62      21.9  T
  11    -51.7130026 -0.456090E-08  0.512E-04    2.62      32.6  T
     SCC iter.                  ...        0 min,  0.058 sec
     gradient                   ...        0 min,  0.004 sec
 * total energy  :   -50.8606241 Eh     change       -0.3366505E-02 Eh
   gradient norm :     0.0362650 Eh/α   predicted    -0.2579477E-02 ( -23.38%)
   displ. norm   :     0.4187904 α      lambda       -0.4269598E-02
   maximum displ.:     0.1810968 α      in ANC's #7, #9, #6, ...

........................................................................
.............................. CYCLE    5 ..............................
........................................................................
   1    -51.7067275 -0.517067E+02  0.230E-01    2.64       0.0  T
   2    -51.7070562 -0.328694E-03  0.131E-01    2.75       1.0  T
   3    -51.7070902 -0.339246E-04  0.493E-02    2.86       1.0  T
   4    -51.7070984 -0.827548E-05  0.240E-02    2.90       1.0  T
   5    -51.7071018 -0.331427E-05  0.185E-02    2.90       1.0  T
   6    -51.7071051 -0.333169E-05  0.117E-02    2.90       1.4  T
   7    -51.7071072 -0.212700E-05  0.653E-03    2.90       2.6  T
   8    -51.7071076 -0.421034E-06  0.352E-03    2.90       4.7  T
   9    -51.7071080 -0.340250E-06  0.137E-03    2.90      12.2  T
  10    -51.7071080 -0.161681E-07  0.102E-03    2.90      16.3  T
  11    -51.7071080 -0.106375E-07  0.665E-04    2.90      25.0  T
  12    -51.7071080 -0.637286E-08  0.324E-04    2.90      51.4  T
     SCC iter.                  ...        0 min,  0.062 sec
     gradient                   ...        0 min,  0.004 sec
 * total energy  :   -50.8637944 Eh     change       -0.3170299E-02 Eh
   gradient norm :     0.0275795 Eh/α   predicted    -0.2509211E-02 ( -20.85%)
   displ. norm   :     0.3770999 α      lambda       -0.3610839E-02
   maximum displ.:     0.1630444 α      in ANC's #7, #9, #59, ...

........................................................................
.............................. CYCLE    6 ..............................
........................................................................
   1    -51.7023988 -0.517024E+02  0.266E-01    2.90       0.0  T
   2    -51.7029372 -0.538400E-03  0.150E-01    2.90       1.0  T
   3    -51.7030019 -0.646869E-04  0.696E-02    2.89       1.0  T
   4    -51.7030264 -0.244860E-04  0.378E-02    2.89       1.0  T
   5    -51.7030366 -0.101858E-04  0.300E-02    2.89       1.0  T
   6    -51.7030509 -0.142947E-04  0.167E-02    2.89       1.0  T
   7    -51.7030565 -0.566477E-05  0.886E-03    2.90       1.9  T
   8    -51.7030578 -0.124329E-05  0.377E-03    2.90       4.4  T
   9    -51.7030581 -0.363304E-06  0.131E-03    2.90      12.8  T
  10    -51.7030582 -0.201276E-07  0.722E-04    2.90      23.1  T
  11    -51.7030582 -0.332567E-08  0.487E-04    2.90      34.2  T
     SCC iter.                  ...        0 min,  0.058 sec
     gradient                   ...        0 min,  0.004 sec
 * total energy  :   -50.8657728 Eh     change       -0.1978427E-02 Eh
   gradient norm :     0.0216532 Eh/α   predicted    -0.2062198E-02 (   4.23%)
   displ. norm   :     0.2759972 α      lambda       -0.2202581E-02
   maximum displ.:     0.1451915 α      in ANC's #7, #5, #6, ...

........................................................................
.............................. CYCLE    7 ..............................
........................................................................
   1    -51.7022462 -0.517022E+02  0.127E-01    2.91       0.0  T
   2    -51.7022815 -0.352563E-04  0.751E-02    2.91       1.0  T
   3    -51.7022890 -0.754690E-05  0.198E-02    2.91       1.0  T
   4    -51.7022904 -0.134789E-05  0.128E-02    2.91       1.3  T
   5    -51.7022921 -0.171654E-05  0.100E-02    2.91       1.7  T
   6    -51.7022934 -0.133138E-05  0.704E-03    2.91       2.4  T
   7    -51.7022939 -0.454758E-06  0.519E-03    2.91       3.2  T
   8    -51.7022945 -0.654626E-06  0.109E-03    2.91      15.3  T
   9    -51.7022945 -0.166036E-07  0.740E-04    2.91      22.5  T
  10    -51.7022945 -0.479213E-08  0.526E-04    2.91      31.7  T
     SCC iter.                  ...        0 min,  0.052 sec
     gradient                   ...        0 min,  0.004 sec
 * total energy  :   -50.8669270 Eh     change       -0.1154208E-02 Eh
   gradient norm :     0.0121199 Eh/α   predicted    -0.1185184E-02 (   2.68%)
   displ. norm   :     0.1705903 α      lambda       -0.8137932E-03
   maximum displ.:     0.0952199 α      in ANC's #3, #7, #4, ...

........................................................................
.............................. CYCLE    8 ..............................
........................................................................
   1    -51.7059641 -0.517060E+02  0.775E-02    2.93       0.0  T
   2    -51.7059856 -0.214914E-04  0.455E-02    2.93       1.0  T
   3    -51.7059885 -0.290778E-05  0.154E-02    2.93       1.1  T
   4    -51.7059891 -0.617926E-06  0.931E-03    2.93       1.8  T
   5    -51.7059898 -0.753036E-06  0.719E-03    2.93       2.3  T
   6    -51.7059905 -0.615109E-06  0.360E-03    2.93       4.6  T
   7    -51.7059907 -0.242766E-06  0.207E-03    2.93       8.0  T
   8    -51.7059908 -0.795652E-07  0.880E-04    2.93      18.9  T
   9    -51.7059908 -0.102543E-07  0.635E-04    2.93      26.2  T
     SCC iter.                  ...        0 min,  0.047 sec
     gradient                   ...        0 min,  0.004 sec
 * total energy  :   -50.8675255 Eh     change       -0.5984360E-03 Eh
   gradient norm :     0.0059790 Eh/α   predicted    -0.4187394E-03 ( -30.03%)
   displ. norm   :     0.2215908 α      lambda       -0.5764816E-03
   maximum displ.:     0.1229259 α      in ANC's #3, #7, #4, ...

........................................................................
.............................. CYCLE    9 ..............................
........................................................................
   1    -51.7106954 -0.517107E+02  0.858E-02    2.94       0.0  T
   2    -51.7107020 -0.661682E-05  0.512E-02    2.94       1.0  T
   3    -51.7107035 -0.148602E-05  0.108E-02    2.94       1.5  T
   4    -51.7107041 -0.678041E-06  0.824E-03    2.94       2.0  T
   5    -51.7107047 -0.611494E-06  0.612E-03    2.94       2.7  T
   6    -51.7107050 -0.283667E-06  0.333E-03    2.94       5.0  T
   7    -51.7107052 -0.203266E-06  0.132E-03    2.94      12.6  T
   8    -51.7107053 -0.248433E-07  0.577E-04    2.94      28.9  T
   9    -51.7107053 -0.362858E-08  0.186E-04    2.94      89.8  T
     SCC iter.                  ...        0 min,  0.048 sec
     gradient                   ...        0 min,  0.004 sec
 * total energy  :   -50.8678981 Eh     change       -0.3726580E-03 Eh
   gradient norm :     0.0050172 Eh/α   predicted    -0.3023966E-03 ( -18.85%)
   displ. norm   :     0.2082388 α      lambda       -0.2393083E-03
   maximum displ.:     0.1069641 α      in ANC's #3, #7, #4, ...

........................................................................
.............................. CYCLE   10 ..............................
........................................................................
   1    -51.7108411 -0.517108E+02  0.690E-02    2.93       0.0  T
   2    -51.7108436 -0.257225E-05  0.407E-02    2.93       1.0  T
   3    -51.7108440 -0.361667E-06  0.545E-03    2.93       3.1  T
   4    -51.7108442 -0.225412E-06  0.387E-03    2.93       4.3  T
   5    -51.7108444 -0.160095E-06  0.280E-03    2.93       6.0  T
   6    -51.7108445 -0.856929E-07  0.152E-03    2.93      10.9  T
   7    -51.7108445 -0.359249E-07  0.830E-04    2.93      20.1  T
   8    -51.7108445 -0.913710E-08  0.464E-04    2.93      35.9  T
     SCC iter.                  ...        0 min,  0.042 sec
     gradient                   ...        0 min,  0.004 sec
 * total energy  :   -50.8680897 Eh     change       -0.1915799E-03 Eh
   gradient norm :     0.0049465 Eh/α   predicted    -0.1248570E-03 ( -34.83%)
   displ. norm   :     0.4153462 α      lambda       -0.4112179E-03
   maximum displ.:     0.2090083 α      in ANC's #7, #3, #4, ...

........................................................................
.............................. CYCLE   11 ..............................
........................................................................
   1    -51.7094893 -0.517095E+02  0.130E-01    2.91       0.0  T
   2    -51.7094918 -0.248156E-05  0.764E-02    2.91       1.0  T
   3    -51.7094916  0.150722E-06  0.628E-03    2.91       2.7  T
   4    -51.7094924 -0.844427E-06  0.339E-03    2.91       4.9  T
   5    -51.7094926 -0.121179E-06  0.223E-03    2.91       7.5  T
   6    -51.7094926 -0.378281E-07  0.146E-03    2.91      11.5  T
   7    -51.7094926 -0.272046E-07  0.914E-04    2.91      18.2  T
   8    -51.7094926 -0.107153E-07  0.541E-04    2.91      30.8  T
     SCC iter.                  ...        0 min,  0.042 sec
     gradient                   ...        0 min,  0.004 sec
 * total energy  :   -50.8684165 Eh     change       -0.3268003E-03 Eh
   gradient norm :     0.0061663 Eh/α   predicted    -0.2410847E-03 ( -26.23%)
   displ. norm   :     0.5217291 α      lambda       -0.4768258E-03
   maximum displ.:     0.2679325 α      in ANC's #7, #3, #4, ...

........................................................................
.............................. CYCLE   12 ..............................
........................................................................
   1    -51.7062439 -0.517062E+02  0.162E-01    2.88       0.0  T
   2    -51.7062455 -0.161974E-05  0.950E-02    2.88       1.0  T
   3    -51.7062451  0.386102E-06  0.641E-03    2.88       2.6  T
   4    -51.7062463 -0.114429E-05  0.293E-03    2.88       5.7  T
   5    -51.7062463 -0.387804E-07  0.201E-03    2.88       8.3  T
   6    -51.7062463 -0.342907E-07  0.129E-03    2.88      12.9  T
   7    -51.7062464 -0.194872E-07  0.880E-04    2.88      18.9  T
   8    -51.7062464 -0.833433E-08  0.394E-04    2.88      42.3  T
     SCC iter.                  ...        0 min,  0.042 sec
     gradient                   ...        0 min,  0.004 sec
 * total energy  :   -50.8687959 Eh     change       -0.3793748E-03 Eh
   gradient norm :     0.0089070 Eh/α   predicted    -0.3033124E-03 ( -20.05%)
   displ. norm   :     0.5033839 α      lambda       -0.5139213E-03
   maximum displ.:     0.2479082 α      in ANC's #7, #5, #4, ...

........................................................................
.............................. CYCLE   13 ..............................
........................................................................
   1    -51.7046702 -0.517047E+02  0.157E-01    2.85       0.0  T
   2    -51.7046745 -0.429475E-05  0.926E-02    2.85       1.0  T
   3    -51.7046749 -0.454783E-06  0.914E-03    2.85       1.8  T
   4    -51.7046760 -0.113177E-05  0.661E-03    2.85       2.5  T
   5    -51.7046765 -0.475473E-06  0.481E-03    2.85       3.5  T
   6    -51.7046767 -0.169717E-06  0.299E-03    2.85       5.6  T
   7    -51.7046768 -0.154512E-06  0.149E-03    2.85      11.2  T
   8    -51.7046769 -0.304039E-07  0.794E-04    2.85      21.0  T
   9    -51.7046769 -0.753703E-08  0.402E-04    2.85      41.4  T
     SCC iter.                  ...        0 min,  0.046 sec
     gradient                   ...        0 min,  0.004 sec
 * total energy  :   -50.8691956 Eh     change       -0.3997270E-03 Eh
   gradient norm :     0.0098969 Eh/α   predicted    -0.3220843E-03 ( -19.42%)
   displ. norm   :     0.4115752 α      lambda       -0.4818894E-03
   maximum displ.:     0.1885854 α      in ANC's #7, #5, #8, ...

........................................................................
.............................. CYCLE   14 ..............................
........................................................................
   1    -51.7068474 -0.517068E+02  0.134E-01    2.85       0.0  T
   2    -51.7068546 -0.721241E-05  0.790E-02    2.85       1.0  T
   3    -51.7068551 -0.494608E-06  0.127E-02    2.85       1.3  T
   4    -51.7068573 -0.219662E-05  0.921E-03    2.85       1.8  T
   5    -51.7068583 -0.971566E-06  0.666E-03    2.85       2.5  T
   6    -51.7068587 -0.462558E-06  0.347E-03    2.85       4.8  T
   7    -51.7068589 -0.184489E-06  0.181E-03    2.85       9.2  T
   8    -51.7068590 -0.527989E-07  0.100E-03    2.85      16.6  T
   9    -51.7068590 -0.146289E-07  0.570E-04    2.85      29.2  T
  10    -51.7068590 -0.310969E-08  0.458E-04    2.85      36.4  T
     SCC iter.                  ...        0 min,  0.051 sec
     gradient                   ...        0 min,  0.004 sec
 * total energy  :   -50.8695372 Eh     change       -0.3416305E-03 Eh
   gradient norm :     0.0079242 Eh/α   predicted    -0.2817618E-03 ( -17.52%)
   displ. norm   :     0.3981751 α      lambda       -0.2980683E-03
   maximum displ.:     0.1944285 α      in ANC's #7, #8, #5, ...

........................................................................
.............................. CYCLE   15 ..............................
........................................................................
   1    -51.7065435 -0.517065E+02  0.132E-01    2.84       0.0  T
   2    -51.7065454 -0.193396E-05  0.778E-02    2.84       1.0  T
   3    -51.7065447  0.763696E-06  0.833E-03    2.84       2.0  T
   4    -51.7065466 -0.193098E-05  0.484E-03    2.84       3.4  T
   5    -51.7065468 -0.161507E-06  0.340E-03    2.84       4.9  T
   6    -51.7065469 -0.120705E-06  0.195E-03    2.84       8.6  T
   7    -51.7065469 -0.405320E-07  0.112E-03    2.84      14.8  T
   8    -51.7065469 -0.164868E-07  0.522E-04    2.84      31.9  T
   9    -51.7065469 -0.339912E-08  0.258E-04    2.84      64.7  T
     SCC iter.                  ...        0 min,  0.047 sec
     gradient                   ...        0 min,  0.004 sec
 * total energy  :   -50.8697543 Eh     change       -0.2170960E-03 Eh
   gradient norm :     0.0073020 Eh/α   predicted    -0.1726641E-03 ( -20.47%)
   displ. norm   :     0.2752205 α      lambda       -0.3327554E-03
   maximum displ.:     0.1359826 α      in ANC's #8, #5, #7, ...

........................................................................
.............................. CYCLE   16 ..............................
........................................................................
   1    -51.7138921 -0.517139E+02  0.100E-01    2.86       0.0  T
   2    -51.7138967 -0.460253E-05  0.589E-02    2.86       1.0  T
   3    -51.7138962  0.513906E-06  0.868E-03    2.86       1.9  T
   4    -51.7138976 -0.145380E-05  0.465E-03    2.86       3.6  T
   5    -51.7138979 -0.258524E-06  0.310E-03    2.86       5.4  T
   6    -51.7138980 -0.892425E-07  0.211E-03    2.86       7.9  T
   7    -51.7138980 -0.347739E-07  0.148E-03    2.86      11.3  T
   8    -51.7138981 -0.305730E-07  0.773E-04    2.86      21.6  T
   9    -51.7138981 -0.776085E-08  0.260E-04    2.86      64.2  T
     SCC iter.                  ...        0 min,  0.046 sec
     gradient                   ...        0 min,  0.004 sec
 * total energy  :   -50.8699149 Eh     change       -0.1605817E-03 Eh
   gradient norm :     0.0070038 Eh/α   predicted    -0.1789859E-03 (  11.46%)
   displ. norm   :     0.3960683 α      lambda       -0.2389881E-03
   maximum displ.:     0.2105496 α      in ANC's #7, #8, #4, ...

........................................................................
.............................. CYCLE   17 ..............................
........................................................................
   1    -51.7091651 -0.517092E+02  0.140E-01    2.85       0.0  T
   2    -51.7091674 -0.221807E-05  0.823E-02    2.85       1.0  T
   3    -51.7091669  0.500398E-06  0.593E-03    2.85       2.8  T
   4    -51.7091680 -0.110276E-05  0.244E-03    2.85       6.8  T
   5    -51.7091680 -0.726723E-07  0.157E-03    2.85      10.6  T
   6    -51.7091681 -0.141784E-07  0.101E-03    2.85      16.4  T
   7    -51.7091681 -0.115272E-07  0.670E-04    2.85      24.9  T
   8    -51.7091681 -0.394890E-08  0.444E-04    2.85      37.6  T
     SCC iter.                  ...        0 min,  0.042 sec
     gradient                   ...        0 min,  0.004 sec
 * total energy  :   -50.8700516 Eh     change       -0.1367145E-03 Eh
   gradient norm :     0.0065898 Eh/α   predicted    -0.1382419E-03 (   1.12%)
   displ. norm   :     0.1189812 α      lambda       -0.1385268E-03
   maximum displ.:     0.0618009 α      in ANC's #8, #7, #4, ...

........................................................................
.............................. CYCLE   18 ..............................
........................................................................
   1    -51.7103563 -0.517104E+02  0.445E-02    2.84       0.0  T
   2    -51.7103568 -0.536525E-06  0.261E-02    2.84       1.0  T
   3    -51.7103569 -0.242826E-07  0.253E-03    2.84       6.6  T
   4    -51.7103569 -0.841116E-07  0.171E-03    2.84       9.7  T
   5    -51.7103570 -0.452708E-07  0.108E-03    2.84      15.4  T
   6    -51.7103570 -0.553514E-08  0.755E-04    2.84      22.1  T
   7    -51.7103570 -0.816937E-08  0.439E-04    2.84      38.0  T
     SCC iter.                  ...        0 min,  0.036 sec
     gradient                   ...        0 min,  0.004 sec
 * total energy  :   -50.8701638 Eh     change       -0.1121309E-03 Eh
   gradient norm :     0.0048655 Eh/α   predicted    -0.7024707E-04 ( -37.35%)
   displ. norm   :     0.3146474 α      lambda       -0.2506187E-03
   maximum displ.:     0.1809691 α      in ANC's #8, #7, #4, ...

........................................................................
.............................. CYCLE   19 ..............................
........................................................................
   1    -51.7111956 -0.517112E+02  0.117E-01    2.82       0.0  T
   2    -51.7111971 -0.147390E-05  0.688E-02    2.82       1.0  T
   3    -51.7111970  0.117829E-06  0.570E-03    2.82       2.9  T
   4    -51.7111978 -0.783531E-06  0.329E-03    2.82       5.1  T
   5    -51.7111978 -0.765579E-07  0.229E-03    2.82       7.3  T
   6    -51.7111979 -0.464359E-07  0.141E-03    2.82      11.8  T
   7    -51.7111979 -0.159499E-07  0.985E-04    2.82      16.9  T
   8    -51.7111979 -0.142048E-07  0.274E-04    2.82      60.8  T
     SCC iter.                  ...        0 min,  0.042 sec
     gradient                   ...        0 min,  0.004 sec
 * total energy  :   -50.8703313 Eh     change       -0.1675781E-03 Eh
   gradient norm :     0.0063038 Eh/α   predicted    -0.1377205E-03 ( -17.82%)
   displ. norm   :     0.2799609 α      lambda       -0.1528220E-03
   maximum displ.:     0.1674933 α      in ANC's #8, #7, #4, ...

........................................................................
.............................. CYCLE   20 ..............................
........................................................................
   1    -51.7114475 -0.517114E+02  0.104E-01    2.81       0.0  T
   2    -51.7114485 -0.966318E-06  0.608E-02    2.81       1.0  T
   3    -51.7114486 -0.111525E-06  0.425E-03    2.81       3.9  T
   4    -51.7114490 -0.346675E-06  0.277E-03    2.81       6.0  T
   5    -51.7114490 -0.626971E-07  0.182E-03    2.81       9.2  T
   6    -51.7114490 -0.212423E-07  0.130E-03    2.81      12.8  T
   7    -51.7114491 -0.226822E-07  0.725E-04    2.81      23.0  T
   8    -51.7114491 -0.576923E-08  0.275E-04    2.81      60.6  T
     SCC iter.                  ...        0 min,  0.041 sec
     gradient                   ...        0 min,  0.004 sec
 * total energy  :   -50.8704458 Eh     change       -0.1144838E-03 Eh
   gradient norm :     0.0069120 Eh/α   predicted    -0.8240470E-04 ( -28.02%)
   displ. norm   :     0.3547566 α      lambda       -0.1881569E-03
   maximum displ.:     0.2078802 α      in ANC's #8, #4, #7, ...
 * RMSD in coord.:     0.8678103 α      energy gain  -0.2653138E-01 Eh

generating ANC from model Hessian ...
Using Lindh-Hessian (1995)
 Shifting diagonal of input Hessian by    9.8612493540127452E-003
 Lowest  eigenvalues of input Hessian
    0.000000    0.000000    0.000000    0.000000    0.000000    0.000000
    0.010000    0.010065    0.010421    0.010616    0.011007    0.011479
    0.012233    0.014459    0.014731    0.015274    0.016684    0.018565
 Highest eigenvalues
    1.893732    1.923362    1.980217    2.013333    2.041209    2.118220


........................................................................
.............................. CYCLE   21 ..............................
........................................................................
   1    -51.7110377 -0.517110E+02  0.132E-01    2.80       0.0  T
   2    -51.7110392 -0.148934E-05  0.777E-02    2.80       1.0  T
   3    -51.7110390  0.166741E-06  0.656E-03    2.80       2.5  T
   4    -51.7110400 -0.990721E-06  0.383E-03    2.80       4.4  T
   5    -51.7110401 -0.728573E-07  0.271E-03    2.80       6.1  T
   6    -51.7110402 -0.806788E-07  0.171E-03    2.80       9.8  T
   7    -51.7110402 -0.317155E-07  0.913E-04    2.80      18.3  T
   8    -51.7110402 -0.846963E-08  0.407E-04    2.80      40.9  T
     SCC iter.                  ...        0 min,  0.042 sec
     gradient                   ...        0 min,  0.004 sec
 * total energy  :   -50.8705746 Eh     change       -0.1287696E-03 Eh
   gradient norm :     0.0064408 Eh/α   predicted     0.0000000E+00 (-100.00%)
   displ. norm   :     0.0608757 α      lambda       -0.7345056E-04
   maximum displ.:     0.0291156 α      in ANC's #2, #4, #24, ...

........................................................................
.............................. CYCLE   22 ..............................
........................................................................
   1    -51.7123170 -0.517123E+02  0.213E-02    2.81       0.0  T
   2    -51.7123172 -0.205803E-06  0.125E-02    2.81       1.3  T
   3    -51.7123172 -0.266670E-07  0.221E-03    2.81       7.5  T
   4    -51.7123173 -0.625168E-07  0.147E-03    2.81      11.3  T
   5    -51.7123173 -0.136159E-07  0.110E-03    2.81      15.2  T
   6    -51.7123173 -0.869626E-08  0.728E-04    2.81      22.9  T
   7    -51.7123173 -0.722687E-08  0.348E-04    2.81      48.0  T
     SCC iter.                  ...        0 min,  0.037 sec
     gradient                   ...        0 min,  0.004 sec
 * total energy  :   -50.8706514 Eh     change       -0.7682984E-04 Eh
   gradient norm :     0.0028763 Eh/α   predicted    -0.5169313E-04 ( -32.72%)
   displ. norm   :     0.1174375 α      lambda       -0.9173989E-04
   maximum displ.:     0.0610491 α      in ANC's #2, #4, #7, ...

........................................................................
.............................. CYCLE   23 ..............................
........................................................................
   1    -51.7133251 -0.517133E+02  0.366E-02    2.82       0.0  T
   2    -51.7133254 -0.296087E-06  0.214E-02    2.82       1.0  T
   3    -51.7133254  0.488906E-07  0.316E-03    2.82       5.3  T
   4    -51.7133256 -0.178781E-06  0.190E-03    2.82       8.8  T
   5    -51.7133256 -0.311646E-07  0.136E-03    2.82      12.3  T
   6    -51.7133256 -0.116868E-07  0.927E-04    2.82      18.0  T
   7    -51.7133256 -0.134480E-07  0.377E-04    2.82      44.2  T
     SCC iter.                  ...        0 min,  0.037 sec
     gradient                   ...        0 min,  0.004 sec
 * total energy  :   -50.8707142 Eh     change       -0.6272319E-04 Eh
   gradient norm :     0.0018704 Eh/α   predicted    -0.4650436E-04 ( -25.86%)
   displ. norm   :     0.1763206 α      lambda       -0.4875908E-04
   maximum displ.:     0.0932214 α      in ANC's #2, #4, #7, ...

........................................................................
.............................. CYCLE   24 ..............................
........................................................................
   1    -51.7133394 -0.517133E+02  0.571E-02    2.82       0.0  T
   2    -51.7133399 -0.503201E-06  0.338E-02    2.82       1.0  T
   3    -51.7133399  0.108512E-08  0.574E-03    2.82       2.9  T
   4    -51.7133404 -0.566196E-06  0.397E-03    2.82       4.2  T
   5    -51.7133405 -0.918522E-07  0.268E-03    2.82       6.2  T
   6    -51.7133406 -0.102079E-06  0.111E-03    2.82      15.0  T
   7    -51.7133406 -0.228598E-07  0.411E-04    2.82      40.6  T
   8    -51.7133406 -0.116977E-08  0.161E-04    2.82     103.6  T
     SCC iter.                  ...        0 min,  0.042 sec
     gradient                   ...        0 min,  0.004 sec
 * total energy  :   -50.8707671 Eh     change       -0.5299027E-04 Eh
   gradient norm :     0.0039555 Eh/α   predicted    -0.2487113E-04 ( -53.06%)
   displ. norm   :     0.1396300 α      lambda       -0.5567485E-04
   maximum displ.:     0.0719001 α      in ANC's #2, #4, #7, ...

........................................................................
.............................. CYCLE   25 ..............................
........................................................................
   1    -51.7129065 -0.517129E+02  0.469E-02    2.82       0.0  T
   2    -51.7129068 -0.307679E-06  0.278E-02    2.82       1.0  T
   3    -51.7129068 -0.377529E-07  0.420E-03    2.82       4.0  T
   4    -51.7129071 -0.291322E-06  0.302E-03    2.82       5.5  T
   5    -51.7129072 -0.535208E-07  0.208E-03    2.82       8.0  T
   6    -51.7129072 -0.581559E-07  0.853E-04    2.82      19.5  T
   7    -51.7129072 -0.142263E-07  0.309E-04    2.82      54.0  T
     SCC iter.                  ...        0 min,  0.037 sec
     gradient                   ...        0 min,  0.004 sec
 * total energy  :   -50.8708173 Eh     change       -0.5013334E-04 Eh
   gradient norm :     0.0034404 Eh/α   predicted    -0.2838102E-04 ( -43.39%)
   displ. norm   :     0.3573218 α      lambda       -0.1367781E-03
   maximum displ.:     0.1816351 α      in ANC's #2, #7, #4, ...

........................................................................
.............................. CYCLE   26 ..............................
........................................................................
   1    -51.7114144 -0.517114E+02  0.122E-01    2.81       0.0  T
   2    -51.7114164 -0.202286E-05  0.719E-02    2.81       1.0  T
   3    -51.7114167 -0.323975E-06  0.101E-02    2.81       1.7  T
   4    -51.7114183 -0.161024E-05  0.729E-03    2.81       2.3  T
   5    -51.7114187 -0.351618E-06  0.503E-03    2.81       3.3  T
   6    -51.7114189 -0.265815E-06  0.252E-03    2.81       6.6  T
   7    -51.7114191 -0.127377E-06  0.841E-04    2.81      19.8  T
   8    -51.7114191 -0.695939E-08  0.421E-04    2.81      39.6  T
     SCC iter.                  ...        0 min,  0.042 sec
     gradient                   ...        0 min,  0.004 sec
 * total energy  :   -50.8709215 Eh     change       -0.1042164E-03 Eh
   gradient norm :     0.0025109 Eh/α   predicted    -0.7713068E-04 ( -25.99%)
   displ. norm   :     0.3623186 α      lambda       -0.1045279E-03
   maximum displ.:     0.1836055 α      in ANC's #2, #7, #5, ...

........................................................................
.............................. CYCLE   27 ..............................
........................................................................
   1    -51.7100081 -0.517100E+02  0.124E-01    2.79       0.0  T
   2    -51.7100097 -0.155264E-05  0.728E-02    2.79       1.0  T
   3    -51.7100099 -0.197406E-06  0.797E-03    2.79       2.1  T
   4    -51.7100109 -0.106437E-05  0.570E-03    2.79       2.9  T
   5    -51.7100112 -0.203923E-06  0.408E-03    2.79       4.1  T
   6    -51.7100113 -0.162922E-06  0.220E-03    2.79       7.6  T
   7    -51.7100114 -0.871967E-07  0.817E-04    2.79      20.4  T
   8    -51.7100114 -0.603504E-08  0.371E-04    2.79      44.9  T
     SCC iter.                  ...        0 min,  0.042 sec
     gradient                   ...        0 min,  0.004 sec
 * total energy  :   -50.8709925 Eh     change       -0.7098946E-04 Eh
   gradient norm :     0.0039670 Eh/α   predicted    -0.5912667E-04 ( -16.71%)
   displ. norm   :     0.2456381 α      lambda       -0.7829569E-04
   maximum displ.:     0.1254676 α      in ANC's #2, #7, #5, ...

........................................................................
.............................. CYCLE   28 ..............................
........................................................................
   1    -51.7102076 -0.517102E+02  0.857E-02    2.78       0.0  T
   2    -51.7102083 -0.715879E-06  0.505E-02    2.78       1.0  T
   3    -51.7102086 -0.273182E-06  0.482E-03    2.78       3.5  T
   4    -51.7102089 -0.268115E-06  0.368E-03    2.78       4.5  T
   5    -51.7102090 -0.109989E-06  0.246E-03    2.78       6.8  T
   6    -51.7102090 -0.413253E-07  0.153E-03    2.78      10.9  T
   7    -51.7102090 -0.466062E-07  0.599E-04    2.78      27.8  T
   8    -51.7102091 -0.249389E-08  0.204E-04    2.78      81.9  T
     SCC iter.                  ...        0 min,  0.042 sec
     gradient                   ...        0 min,  0.004 sec
 * total energy  :   -50.8710524 Eh     change       -0.5990464E-04 Eh
   gradient norm :     0.0043217 Eh/α   predicted    -0.4151052E-04 ( -30.71%)
   displ. norm   :     0.2759658 α      lambda       -0.9700745E-04
   maximum displ.:     0.1382371 α      in ANC's #2, #5, #7, ...

........................................................................
.............................. CYCLE   29 ..............................
........................................................................
   1    -51.7117347 -0.517117E+02  0.976E-02    2.78       0.0  T
   2    -51.7117355 -0.777882E-06  0.575E-02    2.78       1.0  T
   3    -51.7117357 -0.153728E-06  0.506E-03    2.78       3.3  T
   4    -51.7117361 -0.467908E-06  0.361E-03    2.78       4.6  T
   5    -51.7117362 -0.114294E-06  0.225E-03    2.78       7.4  T
   6    -51.7117363 -0.497218E-07  0.155E-03    2.78      10.8  T
   7    -51.7117363 -0.337952E-07  0.796E-04    2.78      20.9  T
   8    -51.7117363 -0.944667E-08  0.330E-04    2.78      50.5  T
     SCC iter.                  ...        0 min,  0.044 sec
     gradient                   ...        0 min,  0.004 sec
 * total energy  :   -50.8711199 Eh     change       -0.6748177E-04 Eh
   gradient norm :     0.0034410 Eh/α   predicted    -0.5220691E-04 ( -22.64%)
   displ. norm   :     0.4379456 α      lambda       -0.9309440E-04
   maximum displ.:     0.2294859 α      in ANC's #2, #5, #7, ...

........................................................................
.............................. CYCLE   30 ..............................
........................................................................
   1    -51.7108194 -0.517108E+02  0.155E-01    2.77       0.0  T
   2    -51.7108215 -0.205924E-05  0.914E-02    2.77       1.0  T
   3    -51.7108222 -0.710290E-06  0.934E-03    2.77       1.8  T
   4    -51.7108234 -0.123024E-05  0.697E-03    2.77       2.4  T
   5    -51.7108237 -0.327717E-06  0.437E-03    2.77       3.8  T
   6    -51.7108240 -0.265216E-06  0.242E-03    2.77       6.9  T
   7    -51.7108241 -0.738422E-07  0.892E-04    2.77      18.7  T
   8    -51.7108241 -0.927469E-08  0.375E-04    2.77      44.5  T
     SCC iter.                  ...        0 min,  0.044 sec
     gradient                   ...        0 min,  0.004 sec
 * total energy  :   -50.8711768 Eh     change       -0.5691549E-04 Eh
   gradient norm :     0.0038285 Eh/α   predicted    -0.5547549E-04 (  -2.53%)
   displ. norm   :     0.2214555 α      lambda       -0.8233517E-04
   maximum displ.:     0.1020953 α      in ANC's #2, #5, #8, ...

........................................................................
.............................. CYCLE   31 ..............................
........................................................................
   1    -51.7132363 -0.517132E+02  0.761E-02    2.78       0.0  T
   2    -51.7132375 -0.111719E-05  0.446E-02    2.78       1.0  T
   3    -51.7132374  0.706188E-07  0.437E-03    2.78       3.8  T
   4    -51.7132378 -0.390788E-06  0.279E-03    2.78       6.0  T
   5    -51.7132379 -0.104972E-06  0.198E-03    2.78       8.4  T
   6    -51.7132379 -0.180427E-07  0.139E-03    2.78      12.0  T
   7    -51.7132379 -0.367024E-07  0.662E-04    2.78      25.2  T
   8    -51.7132379 -0.424136E-08  0.356E-04    2.78      46.9  T
     SCC iter.                  ...        0 min,  0.044 sec
     gradient                   ...        0 min,  0.004 sec
 * total energy  :   -50.8712313 Eh     change       -0.5446763E-04 Eh
   gradient norm :     0.0021604 Eh/α   predicted    -0.4319650E-04 ( -20.69%)
   displ. norm   :     0.4102004 α      lambda       -0.6547586E-04
   maximum displ.:     0.2026414 α      in ANC's #2, #5, #7, ...

........................................................................
.............................. CYCLE   32 ..............................
........................................................................
   1    -51.7113510 -0.517114E+02  0.146E-01    2.77       0.0  T
   2    -51.7113534 -0.239503E-05  0.860E-02    2.77       1.0  T
   3    -51.7113533  0.119889E-06  0.867E-03    2.77       1.9  T
   4    -51.7113549 -0.159658E-05  0.577E-03    2.77       2.9  T
   5    -51.7113551 -0.236133E-06  0.412E-03    2.77       4.0  T
   6    -51.7113552 -0.112717E-06  0.271E-03    2.77       6.2  T
   7    -51.7113554 -0.126570E-06  0.109E-03    2.77      15.3  T
   8    -51.7113554 -0.980852E-08  0.501E-04    2.77      33.3  T
   9    -51.7113554 -0.362222E-08  0.138E-04    2.77     121.0  T
     SCC iter.                  ...        0 min,  0.050 sec
     gradient                   ...        0 min,  0.004 sec
 * total energy  :   -50.8712628 Eh     change       -0.3158580E-04 Eh
   gradient norm :     0.0026022 Eh/α   predicted    -0.3824705E-04 (  21.09%)
   displ. norm   :     0.0871968 α      lambda       -0.4429484E-04
   maximum displ.:     0.0453825 α      in ANC's #3, #8, #4, ...

........................................................................
.............................. CYCLE   33 ..............................
........................................................................
   1    -51.7136560 -0.517137E+02  0.224E-02    2.78       0.0  T
   2    -51.7136562 -0.179993E-06  0.132E-02    2.78       1.3  T
   3    -51.7136561  0.766196E-07  0.256E-03    2.78       6.5  T
   4    -51.7136563 -0.163039E-06  0.135E-03    2.78      12.3  T
   5    -51.7136563 -0.116075E-07  0.102E-03    2.78      16.3  T
   6    -51.7136563 -0.813115E-08  0.627E-04    2.78      26.6  T
   7    -51.7136563 -0.460267E-08  0.365E-04    2.78      45.7  T
     SCC iter.                  ...        0 min,  0.042 sec
     gradient                   ...        0 min,  0.004 sec
 * total energy  :   -50.8712924 Eh     change       -0.2956788E-04 Eh
   gradient norm :     0.0025045 Eh/α   predicted    -0.2231870E-04 ( -24.52%)
   displ. norm   :     0.2116514 α      lambda       -0.3442628E-04
   maximum displ.:     0.0953056 α      in ANC's #5, #2, #8, ...

........................................................................
.............................. CYCLE   34 ..............................
........................................................................
   1    -51.7139151 -0.517139E+02  0.697E-02    2.78       0.0  T
   2    -51.7139156 -0.485060E-06  0.410E-02    2.77       1.0  T
   3    -51.7139156 -0.242913E-09  0.418E-03    2.77       4.0  T
   4    -51.7139159 -0.374838E-06  0.279E-03    2.77       6.0  T
   5    -51.7139160 -0.549153E-07  0.177E-03    2.77       9.4  T
   6    -51.7139160 -0.342368E-07  0.103E-03    2.77      16.1  T
   7    -51.7139161 -0.128429E-07  0.580E-04    2.77      28.7  T
   8    -51.7139161 -0.413007E-08  0.187E-04    2.77      89.2  T
     SCC iter.                  ...        0 min,  0.048 sec
     gradient                   ...        0 min,  0.004 sec
 * total energy  :   -50.8713177 Eh     change       -0.2528475E-04 Eh
   gradient norm :     0.0023969 Eh/α   predicted    -0.1798542E-04 ( -28.87%)
   displ. norm   :     0.2109922 α      lambda       -0.3122097E-04
   maximum displ.:     0.0915840 α      in ANC's #5, #2, #8, ...

........................................................................
.............................. CYCLE   35 ..............................
........................................................................
   1    -51.7134928 -0.517135E+02  0.688E-02    2.77       0.0  T
   2    -51.7134934 -0.552711E-06  0.405E-02    2.77       1.0  T
   3    -51.7134934  0.339613E-07  0.423E-03    2.77       3.9  T
   4    -51.7134938 -0.396797E-06  0.269E-03    2.77       6.2  T
   5    -51.7134938 -0.535537E-07  0.178E-03    2.77       9.4  T
   6    -51.7134938 -0.316452E-07  0.983E-04    2.77      17.0  T
   7    -51.7134939 -0.118754E-07  0.512E-04    2.77      32.5  T
     SCC iter.                  ...        0 min,  0.042 sec
     gradient                   ...        0 min,  0.004 sec
 * total energy  :   -50.8713388 Eh     change       -0.2110330E-04 Eh
   gradient norm :     0.0013661 Eh/α   predicted    -0.1630797E-04 ( -22.72%)
   displ. norm   :     0.1418517 α      lambda       -0.1331614E-04
   maximum displ.:     0.0647944 α      in ANC's #6, #2, #8, ...

........................................................................
.............................. CYCLE   36 ..............................
........................................................................
   1    -51.7132531 -0.517133E+02  0.440E-02    2.77       0.0  T
   2    -51.7132536 -0.476363E-06  0.258E-02    2.77       1.0  T
   3    -51.7132536 -0.363702E-07  0.275E-03    2.77       6.1  T
   4    -51.7132537 -0.109611E-06  0.187E-03    2.77       8.9  T
   5    -51.7132537 -0.398373E-07  0.133E-03    2.77      12.5  T
   6    -51.7132538 -0.979548E-08  0.941E-04    2.77      17.7  T
   7    -51.7132538 -0.142081E-07  0.461E-04    2.77      36.2  T
     SCC iter.                  ...        0 min,  0.041 sec
     gradient                   ...        0 min,  0.004 sec
 * total energy  :   -50.8713482 Eh     change       -0.9363913E-05 Eh
   gradient norm :     0.0012505 Eh/α   predicted    -0.6719705E-05 ( -28.24%)
   displ. norm   :     0.0341950 α      lambda       -0.3704822E-05
   maximum displ.:     0.0201658 α      in ANC's #2, #4, #11, ...

........................................................................
.............................. CYCLE   37 ..............................
........................................................................
   1    -51.7128233 -0.517128E+02  0.107E-02    2.77       0.0  T
   2    -51.7128233 -0.283407E-07  0.630E-03    2.77       2.6  T
   3    -51.7128233 -0.408923E-08  0.714E-04    2.77      23.4  T
   4    -51.7128233 -0.676638E-08  0.504E-04    2.77      33.0  T
     SCC iter.                  ...        0 min,  0.023 sec
     gradient                   ...        0 min,  0.004 sec
 * total energy  :   -50.8713511 Eh     change       -0.2892496E-05 Eh
   gradient norm :     0.0008861 Eh/α   predicted    -0.1857954E-05 ( -35.77%)
   displ. norm   :     0.0926725 α      lambda       -0.3748096E-05
   maximum displ.:     0.0466378 α      in ANC's #5, #1, #7, ...

   *** GEOMETRY OPTIMIZATION CONVERGED AFTER 37 ITERATIONS ***

------------------------------------------------------------------------
 total energy gain   :        -0.0274366 Eh      -17.2167 kcal/mol
 total RMSD          :         1.1883851 a0        0.6289 Å
 total power (kW/mol):        -1.9468860 (step)  -37.0972 (real)
------------------------------------------------------------------------

 ANCopt (total)                0 d,  0 h,  0 min,  1.942 sec
 optimizer setup                ...        0 min,  0.000 sec (  0.009%)
 model hessian                  ...        0 min,  0.017 sec (  0.875%)
 ANC generation                 ...        0 min,  0.009 sec (  0.440%)
 coordinate transformation      ...        0 min,  0.002 sec (  0.094%)
 single point calculation       ...        0 min,  1.896 sec ( 97.662%)
 optimization log               ...        0 min,  0.004 sec (  0.227%)
 hessian update                 ...        0 min,  0.002 sec (  0.086%)
 rational function              ...        0 min,  0.007 sec (  0.345%)

================
 final structure:
================
36
 xtb: 6.5.1 (fef0646)
N            1.01561207110100       -0.21078976163062        1.39709904931584
C            2.47559259597101       -0.20139779283647        1.46975386109242
C            3.02552757655187        1.04957064933563        0.77784494676814
C            4.52551526742404        1.00601976025112        0.73778412183710
C            5.18464693876968        0.35407342903099       -0.29824295975915
C            6.56167374939555        0.28152262742845       -0.33111181120142
C            7.33593116969378        0.85860197884519        0.67911342758861
C            8.78592341858834        0.82463959742208        0.69750983764537
C            9.58407675459342        0.39173662997492       -0.28890634575072
C           11.03506137783659        0.37096889499296       -0.27883088794818
C           11.80252920702462        0.68163677140855        0.84685846911143
C           13.18186388295544        0.64890997902671        0.79384221062872
C           13.83205082914281        0.30604921898897       -0.38085576189515
C           13.08758651865082       -0.00903251687888       -1.50563881482278
C           11.70826469605228        0.02082326663157       -1.45353276065281
C            6.66465999828952        1.50218542987878        1.72300022043218
C            5.28717003519962        1.57577319398637        1.75038806762579
Cl           0.20933640711654       -0.18912566122855       -1.42410600373919
H            0.62993560412220       -1.04087775248292        1.83320811126721
H            0.58677355367863       -0.19887351949638       -0.10325892322936
H            0.62569514857885        0.60922824234738        1.85067724771519
H            2.83825484667031       -1.09159268209641        0.95033744473874
H            2.84265080921998       -0.23784209674390        2.50570564368262
H            2.69002857977030        1.93698183345484        1.31899635119730
H            2.62145070383184        1.08734948826300       -0.23395458285933
H            4.60483545037064       -0.09546349490162       -1.09203084443431
H            7.04006370559802       -0.23465242843870       -1.14943820914235
H            9.22747916699983        1.21511706485531        1.60519775835354
H            9.14139382975807        0.03248351064049       -1.20887939071890
H           11.31796402116216        0.94457922982667        1.77464187402877
H           13.75735093698466        0.89158624530181        1.67572974096514
H           14.91108378302020        0.28261729334090       -0.41805589658831
H           13.58574008089678       -0.27957137763606       -2.42552598389263
H           11.13443197705661       -0.22598442656941       -2.33605449749242
H            7.23843409437915        1.95638831766638        2.51921538029379
H            4.79493121354413        2.08704085804507        2.56641990984326

 Bond Distances (Angstroems)
 ---------------------------
N1-C2=1.4618         N1-H19=1.0139        N1-H21=1.0150        C2-N1=1.4618         C2-C3=1.5317         C2-H22=1.0926        
C2-H23=1.0997        C3-C2=1.5317         C3-C4=1.5012         C3-H24=1.0922        C3-H25=1.0902        C4-C3=1.5012         
C4-C5=1.3903         C4-C17=1.3893        C5-C4=1.3903         C5-C6=1.3793         C5-H26=1.0809        C6-C5=1.3793         
C6-C7=1.3975         C6-H27=1.0793        C7-C6=1.3975         C7-C8=1.4505         C7-C16=1.3980        C8-C7=1.4505         
C8-C9=1.3407         C8-H28=1.0823        C9-C8=1.3407         C9-C10=1.4512        C9-H29=1.0823        C10-C9=1.4512        
C10-C11=1.3974       C10-C15=1.3985       C11-C10=1.3974       C11-C12=1.3807       C11-H30=1.0792       C12-C11=1.3807       
C12-C13=1.3857       C12-H31=1.0806       C13-C12=1.3857       C13-C14=1.3852       C13-H32=1.0799       C14-C13=1.3852       
C14-C15=1.3806       C14-H33=1.0805       C15-C10=1.3985       C15-C14=1.3806       C15-H34=1.0812       C16-C7=1.3980        
C16-C17=1.3797       C16-H35=1.0814       C17-C4=1.3893        C17-C16=1.3797       C17-H36=1.0815       Cl18-H20=1.3738      
H19-N1=1.0139        H20-Cl18=1.3738      H21-N1=1.0150        H22-C2=1.0926        H23-C2=1.0997        H24-C3=1.0922        
H25-C3=1.0902        H26-C5=1.0809        H27-C6=1.0793        H28-C8=1.0823        H29-C9=1.0823        H30-C11=1.0792       
H31-C12=1.0806       H32-C13=1.0799       H33-C14=1.0805       H34-C15=1.0812       H35-C16=1.0814       H36-C17=1.0815       
 C  H  Rav=1.0843 sigma=0.0060  Rmin=1.0792  Rmax=1.0997    15
 C  C  Rav=1.4081 sigma=0.0469  Rmin=1.3407  Rmax=1.5317    17
 N  H  Rav=1.0144 sigma=0.0005  Rmin=1.0139  Rmax=1.0150     2
 N  C  Rav=1.4618 sigma=0.0000  Rmin=1.4618  Rmax=1.4618     1
 Cl H  Rav=1.3738 sigma=0.0000  Rmin=1.3738  Rmax=1.3738     1

 selected bond angles (degree)
 --------------------
H19-N1-C2=111.33               H21-N1-C2=110.87               H21-N1-H19=108.85              C3-C2-N1=109.96                
H22-C2-N1=107.62               H22-C2-C3=109.36               H23-C2-N1=112.33               H23-C2-C3=109.44               
H23-C2-H22=108.06              C4-C3-C2=110.31                H24-C3-C2=109.24               H24-C3-C4=110.10               
H25-C3-C2=108.33               H25-C3-C4=110.28               H25-C3-H24=108.53              C5-C4-C3=120.48                
C17-C4-C3=121.10               C17-C4-C5=118.39               C6-C5-C4=121.05                H26-C5-C4=119.21               
H26-C5-C6=119.75               C7-C6-C5=120.94                H27-C6-C5=119.06               H27-C6-C7=120.00               
C8-C7-C6=123.60                C16-C7-C6=117.63               C16-C7-C8=118.77               C9-C8-C7=126.39                
H28-C8-C7=114.21               H28-C8-C9=119.38               C10-C9-C8=126.50               H29-C9-C8=119.28               
H29-C9-C10=114.21              C11-C10-C9=123.47              C15-C10-C9=118.62              C15-C10-C11=117.90             

 selected dihedral angles (degree)
 ---------------------------------
C3-C2-N1-H19=178.85           C3-C2-N1-H21=300.19           H22-C2-N1-H19= 59.81          H22-C2-N1-H21=181.15          
H23-C2-N1-H19=300.99          H23-C2-N1-H21= 62.33          C4-C3-C2-N1=185.13            C4-C3-C2-H22=303.09           
C4-C3-C2-H23= 61.29           H24-C3-C2-N1= 63.97           H24-C3-C2-H22=181.94          H24-C3-C2-H23=300.13          
H25-C3-C2-N1=305.92           H25-C3-C2-H22= 63.89          H25-C3-C2-H23=182.08          C5-C4-C3-C2= 86.30            
C5-C4-C3-H24=206.93           C5-C4-C3-H25=326.68           C17-C4-C3-C2=268.34           C17-C4-C3-H24= 28.98          
C17-C4-C3-H25=148.72          C6-C5-C4-C3=181.44            C6-C5-C4-C17=359.45           H26-C5-C4-C3=  1.88           
H26-C5-C4-C17=179.89          C7-C6-C5-C4=  0.18            C7-C6-C5-H26=179.74           H27-C6-C5-C4=179.85           
H27-C6-C5-H26=359.41          C8-C7-C6-C5=180.43            C8-C7-C6-H27=  0.76           C16-C7-C6-C5=  0.36           
C16-C7-C6-H27=180.69          C9-C8-C7-C6=  8.18            C9-C8-C7-C16=188.25           H28-C8-C7-C6=186.79           
H28-C8-C7-C16=  6.86          C10-C9-C8-C7=179.24           C10-C9-C8-H28=  0.69          H29-C9-C8-C7=  0.58           
H29-C9-C8-H28=182.04          C11-C10-C9-C8=  7.00          C11-C10-C9-H29=185.72         C15-C10-C9-C8=186.92          
C15-C10-C9-H29=  5.63         

 CMA Distance (Angstroems)
 ---------------------------
R(CMA):  7.8197
           -------------------------------------------------
          |                Final Singlepoint                |
           -------------------------------------------------

          ...................................................
          :                      SETUP                      :
          :.................................................:
          :  # basis functions                  96          :
          :  # atomic orbitals                  95          :
          :  # shells                           55          :
          :  # electrons                        94          :
          :  max. iterations                   250          :
          :  Hamiltonian                  GFN2-xTB          :
          :  restarted?                      false          :
          :  GBSA solvation                  false          :
          :  PC potential                    false          :
          :  electronic temp.          300.0000000     K    :
          :  accuracy                    1.0000000          :
          :  -> integral cutoff          0.2500000E+02      :
          :  -> integral neglect         0.1000000E-07      :
          :  -> SCF convergence          0.1000000E-05 Eh   :
          :  -> wf. convergence          0.1000000E-03 e    :
          :  Broyden damping             0.4000000          :
          ...................................................

 iter      E             dE          RMSdq      gap      omega  full diag
   1    -51.7128233 -0.517128E+02  0.381E-04    2.77       0.0  T
   2    -51.7128233 -0.712568E-09  0.320E-04    2.77      52.0  T
   3    -51.7128233 -0.385285E-09  0.273E-04    2.77      61.1  T

   *** convergence criteria satisfied after 3 iterations ***

         #    Occupation            Energy/Eh            Energy/eV
      -------------------------------------------------------------
         1        2.0000           -1.0183724             -27.7113
       ...           ...                  ...                  ...
        41        2.0000           -0.4096438             -11.1470
        42        2.0000           -0.4064516             -11.0601
        43        2.0000           -0.4039243             -10.9913
        44        2.0000           -0.4005253             -10.8988
        45        2.0000           -0.3953516             -10.7581
        46        2.0000           -0.3952628             -10.7556
        47        2.0000           -0.3696583             -10.0589 (HOMO)
        48                         -0.2679782              -7.2921 (LUMO)
        49                         -0.2231577              -6.0724
        50                         -0.2211481              -6.0177
        51                         -0.2109969              -5.7415
        52                         -0.1620160              -4.4087
       ...                                ...                  ...
        95                          0.7036537              19.1474
      -------------------------------------------------------------
                  HL-Gap            0.1016801 Eh            2.7669 eV
             Fermi-level           -0.3188183 Eh           -8.6755 eV

 SCC (total)                   0 d,  0 h,  0 min,  0.024 sec
 SCC setup                      ...        0 min,  0.000 sec (  0.524%)
 Dispersion                     ...        0 min,  0.000 sec (  1.595%)
 classical contributions        ...        0 min,  0.000 sec (  0.186%)
 integral evaluation            ...        0 min,  0.002 sec (  6.607%)
 iterations                     ...        0 min,  0.017 sec ( 71.435%)
 molecular gradient             ...        0 min,  0.004 sec ( 15.928%)
 printout                       ...        0 min,  0.001 sec (  2.817%)

         :::::::::::::::::::::::::::::::::::::::::::::::::::::
         ::                     SUMMARY                     ::
         :::::::::::::::::::::::::::::::::::::::::::::::::::::
         :: total energy             -50.871351055870 Eh    ::
         :: gradient norm              0.000884760699 Eh/a0 ::
         :: HOMO-LUMO gap              2.766856410625 eV    ::
         ::.................................................::
         :: SCC energy               -51.712823296590 Eh    ::
         :: -> isotropic ES            0.028863382786 Eh    ::
         :: -> anisotropic ES         -0.001017985109 Eh    ::
         :: -> anisotropic XC          0.028019489271 Eh    ::
         :: -> dispersion             -0.033761597989 Eh    ::
         :: repulsion energy           0.841860305832 Eh    ::
         :: add. restraining           0.000000000000 Eh    ::
         :: total charge              -0.000000000000 e     ::
         :::::::::::::::::::::::::::::::::::::::::::::::::::::

           -------------------------------------------------
          |                Property Printout                |
           -------------------------------------------------

    * Orbital Energies and Occupations

         #    Occupation            Energy/Eh            Energy/eV
      -------------------------------------------------------------
         1        2.0000           -1.0183724             -27.7113
       ...           ...                  ...                  ...
        35        2.0000           -0.4429562             -12.0535
        36        2.0000           -0.4385465             -11.9335
        37        2.0000           -0.4329332             -11.7807
        38        2.0000           -0.4225445             -11.4980
        39        2.0000           -0.4207787             -11.4500
        40        2.0000           -0.4146130             -11.2822
        41        2.0000           -0.4096438             -11.1470
        42        2.0000           -0.4064516             -11.0601
        43        2.0000           -0.4039243             -10.9913
        44        2.0000           -0.4005253             -10.8988
        45        2.0000           -0.3953516             -10.7581
        46        2.0000           -0.3952628             -10.7556
        47        2.0000           -0.3696583             -10.0589 (HOMO)
        48                         -0.2679782              -7.2921 (LUMO)
        49                         -0.2231577              -6.0724
        50                         -0.2211481              -6.0177
        51                         -0.2109969              -5.7415
        52                         -0.1620160              -4.4087
        53                         -0.0885526              -2.4096
        54                         -0.0691583              -1.8819
        55                         -0.0576709              -1.5693
        56                          0.0156985               0.4272
        57                          0.0656911               1.7875
        58                          0.0662299               1.8022
       ...                                ...                  ...
        95                          0.7036537              19.1474
      -------------------------------------------------------------
                  HL-Gap            0.1016801 Eh            2.7669 eV
             Fermi-level           -0.3188183 Eh           -8.6755 eV

     #   Z          covCN         q      C6AA      α(0)
     1   7 N        2.694    -0.305    27.837     7.836
     2   6 C        3.733     0.012    20.459     6.456
     3   6 C        3.809    -0.078    21.990     6.675
     4   6 C        2.972     0.010    27.790     8.647
     5   6 C        2.922    -0.039    28.978     8.828
     6   6 C        2.922    -0.034    28.852     8.809
     7   6 C        2.970     0.012    27.753     8.641
     8   6 C        2.901    -0.039    28.977     8.826
     9   6 C        2.901    -0.039    28.976     8.826
    10   6 C        2.970     0.014    27.687     8.631
    11   6 C        2.924    -0.034    28.836     8.806
    12   6 C        2.918    -0.030    28.739     8.791
    13   6 C        2.920    -0.031    28.762     8.795
    14   6 C        2.917    -0.030    28.738     8.791
    15   6 C        2.929    -0.034    28.849     8.808
    16   6 C        2.928    -0.036    28.898     8.816
    17   6 C        2.921    -0.040    28.994     8.830
    18  17 Cl       0.837    -0.486   115.176    16.418
    19   1 H        0.860     0.166     1.297     1.784
    20   1 H        0.900     0.333     0.621     1.233
    21   1 H        0.860     0.168     1.287     1.777
    22   1 H        0.924     0.054     2.276     2.359
    23   1 H        0.923     0.025     2.655     2.548
    24   1 H        0.924     0.042     2.418     2.432
    25   1 H        0.925     0.069     2.094     2.263
    26   1 H        0.926     0.038     2.472     2.459
    27   1 H        0.926     0.035     2.513     2.479
    28   1 H        0.925     0.035     2.521     2.483
    29   1 H        0.925     0.036     2.507     2.476
    30   1 H        0.926     0.031     2.568     2.506
    31   1 H        0.926     0.029     2.603     2.523
    32   1 H        0.926     0.029     2.598     2.521
    33   1 H        0.926     0.029     2.597     2.520
    34   1 H        0.925     0.030     2.590     2.517
    35   1 H        0.925     0.030     2.580     2.512
    36   1 H        0.925     0.027     2.624     2.533

 Mol. C6AA /au·bohr⁶  :      16087.853534
 Mol. C8AA /au·bohr⁸  :     408615.977067
 Mol. α(0) /au        :        202.154080


Wiberg/Mayer (AO) data.
largest (>0.10) Wiberg bond orders for each atom

 ---------------------------------------------------------------------------
     #   Z sym  total        # sym  WBO       # sym  WBO       # sym  WBO
 ---------------------------------------------------------------------------
     1   7 N    3.239 --     2 C    1.005    19 H    0.958    21 H    0.958
                            20 H    0.206
     2   6 C    3.971 --     1 N    1.005     3 C    0.989    22 H    0.974
                            23 H    0.973
     3   6 C    3.992 --     4 C    1.010     2 C    0.989    24 H    0.973
                            25 H    0.967
     4   6 C    3.977 --    17 C    1.404     5 C    1.396     3 C    1.010
     5   6 C    3.991 --     6 C    1.472     4 C    1.396    26 H    0.968
                            16 C    0.101
     6   6 C    3.983 --     5 C    1.472     7 C    1.359    27 H    0.965
                            17 C    0.101
     7   6 C    3.989 --    16 C    1.363     6 C    1.359     8 C    1.115
     8   6 C    3.991 --     9 C    1.757     7 C    1.115    28 H    0.959
     9   6 C    3.988 --     8 C    1.757    10 C    1.114    29 H    0.959
    10   6 C    3.989 --    15 C    1.365    11 C    1.364     9 C    1.114
    11   6 C    3.983 --    12 C    1.464    10 C    1.364    30 H    0.966
                            14 C    0.104
    12   6 C    3.993 --    11 C    1.464    13 C    1.426    31 H    0.971
                            15 C    0.103
    13   6 C    3.980 --    14 C    1.430    12 C    1.426    32 H    0.972
    14   6 C    3.992 --    15 C    1.461    13 C    1.430    33 H    0.971
                            11 C    0.104
    15   6 C    3.982 --    14 C    1.461    10 C    1.365    34 H    0.969
                            12 C    0.103
    16   6 C    3.982 --    17 C    1.464     7 C    1.363    35 H    0.969
                             5 C    0.101
    17   6 C    3.991 --    16 C    1.464     4 C    1.404    36 H    0.969
                             6 C    0.101
    18  17 Cl   0.767 --    20 H    0.678
    19   1 H    0.972 --     1 N    0.958
    20   1 H    0.889 --    18 Cl   0.678     1 N    0.206
    21   1 H    0.972 --     1 N    0.958
    22   1 H    0.997 --     2 C    0.974
    23   1 H    0.999 --     2 C    0.973
    24   1 H    0.998 --     3 C    0.973
    25   1 H    0.994 --     3 C    0.967
    26   1 H    0.998 --     5 C    0.968
    27   1 H    0.998 --     6 C    0.965
    28   1 H    0.998 --     8 C    0.959
    29   1 H    0.998 --     9 C    0.959
    30   1 H    0.999 --    11 C    0.966
    31   1 H    0.999 --    12 C    0.971
    32   1 H    0.999 --    13 C    0.972
    33   1 H    0.999 --    14 C    0.971
    34   1 H    0.999 --    15 C    0.969
    35   1 H    0.999 --    16 C    0.969
    36   1 H    0.999 --    17 C    0.969
 ---------------------------------------------------------------------------

Topologies differ in total number of bonds
Writing topology from bond orders to xtbtopo.mol

molecular dipole:
                 x           y           z       tot (Debye)
 q only:        0.630       0.017       1.751
   full:        0.440      -0.016       1.714       4.498
molecular quadrupole (traceless):
                xx          xy          yy          xz          yz          zz
 q only:        4.255      -0.574      -1.999       1.197       0.330      -2.256
  q+dip:        4.143      -1.062      -9.574       2.627       5.853       5.431
   full:        1.969      -0.736      -5.348       2.569       2.318       3.380

           -------------------------------------------------
          |                Geometry Summary                 |
           -------------------------------------------------

      molecular mass/u    :      259.7743487
   center of mass at/Å    :        6.7464767       0.4391902       0.1467049
  moments of inertia/u·Å² :        0.4277454E+03   0.5487907E+04   0.5824857E+04
rotational constants/cm⁻¹ :        0.3941044E-01   0.3071778E-02   0.2894085E-02

 * 32 selected distances

     #   Z          #   Z                                           value/Å
     1   7 N        2   6 C                                       1.4618175
     2   6 C        3   6 C                                       1.5316948 (max)
     4   6 C        5   6 C                                       1.3902665
     5   6 C        6   6 C                                       1.3793285
     6   6 C        7   6 C                                       1.3975158
     8   6 C        9   6 C                                       1.3406979
    10   6 C       11   6 C                                       1.3973898
    11   6 C       12   6 C                                       1.3807412
    12   6 C       13   6 C                                       1.3857172
    13   6 C       14   6 C                                       1.3851501
    10   6 C       15   6 C                                       1.3984740
    14   6 C       15   6 C                                       1.3806286
     7   6 C       16   6 C                                       1.3980360
     4   6 C       17   6 C                                       1.3892819
    16   6 C       17   6 C                                       1.3797261
     1   7 N       19   1 H                                       1.0138953 (min)
     1   7 N       21   1 H                                       1.0149868
     2   6 C       22   1 H                                       1.0925953
     2   6 C       23   1 H                                       1.0996619
     3   6 C       24   1 H                                       1.0922011
     3   6 C       25   1 H                                       1.0901577
     5   6 C       26   1 H                                       1.0809090
     6   6 C       27   1 H                                       1.0793294
     8   6 C       28   1 H                                       1.0822854
     9   6 C       29   1 H                                       1.0823038
    11   6 C       30   1 H                                       1.0792240
    12   6 C       31   1 H                                       1.0806493
    13   6 C       32   1 H                                       1.0799283
    14   6 C       33   1 H                                       1.0805281
    15   6 C       34   1 H                                       1.0812229
    16   6 C       35   1 H                                       1.0814230
    17   6 C       36   1 H                                       1.0814813

 * 4 distinct bonds (by element types)

   Z      Z             #   av. dist./Å        max./Å        min./Å
   1 H    6 C          15     1.0842600     1.0996619     1.0792240
   6 C    6 C          14     1.3953320     1.5316948     1.3406979
   1 H    7 N           2     1.0144410     1.0149868     1.0138953
   6 C    7 N           1     1.4618175     1.4618175     1.4618175


optimized geometry written to: xtbopt.xyz


           -------------------------------------------------
          | TOTAL ENERGY              -50.871351055870 Eh   |
          | GRADIENT NORM               0.000884760699 Eh/α |
          | HOMO-LUMO GAP               2.766856410625 eV   |
           -------------------------------------------------

------------------------------------------------------------------------
 * finished run on 2023/01/23 at 13:53:52.328     
------------------------------------------------------------------------
 total:
 * wall-time:     0 d,  0 h,  0 min,  2.091 sec
 *  cpu-time:     0 d,  0 h,  3 min, 56.286 sec
 * ratio c/w:   112.998 speedup
 SCF:
 * wall-time:     0 d,  0 h,  0 min,  0.098 sec
 *  cpu-time:     0 d,  0 h,  0 min, 13.682 sec
 * ratio c/w:   139.813 speedup
 ANC optimizer:
 * wall-time:     0 d,  0 h,  0 min,  1.967 sec
 *  cpu-time:     0 d,  0 h,  3 min, 39.226 sec
 * ratio c/w:   111.429 speedup

