28
 energy: -33.846109318043 gnorm: 0.000412674473 xtb: 6.5.1 (fef0646)
N            0.88041741834634        0.01771370793708       -0.42149960785049
C            2.35281729708588       -0.08802958687790       -0.46163498576296
C            2.94526531028710        0.94883685691320       -1.41016015297159
C            4.47848573515416        0.91481189388862       -1.43904922550305
C            5.02178362956840        2.17869113598303       -2.11240353858696
C            6.54731944342525        2.17551602783120       -2.13727468660098
C            7.06708418734184        0.94178005445835       -2.86799938423295
C            6.53459833121849       -0.32373622282329       -2.20353571246071
C            5.00812008351848       -0.31745986469013       -2.17600504517698
Cl          -0.21900128375445       -1.99225396818888        1.58651907053009
H            0.48376762580680       -0.67735901304839        0.26187972918020
H            0.47460849477018       -0.18146174677096       -1.33899166085335
H            0.58909735931549        0.94986645159870       -0.11806028845410
H            2.61177404951833       -1.09833073038187       -0.77321455852271
H            2.73618883358742        0.05933969673961        0.54763327513722
H            2.63388141535246        1.94393207530111       -1.08820790090871
H            2.57347855969400        0.78567391756027       -2.42251988025176
H            4.84925654688381        0.88846536315730       -0.40879752936232
H            4.67035832937925        3.06378839977532       -1.57853962168966
H            4.64657674225014        2.23185801732322       -3.13668759110544
H            6.92787160461658        2.17414425924165       -1.11305794032002
H            6.91250210881759        3.08058500863270       -2.62709432986601
H            8.15902511352008        0.93566693253704       -2.86271979252341
H            6.73846635851322        0.97111472398748       -3.90935913226320
H            6.91571510574396       -0.38201465086671       -1.18120078356650
H            6.89115996159052       -1.20481759854233       -2.74133766320945
H            4.65887081015576       -1.22944544409215       -1.69068857635109
H            4.63388082830400       -0.31319569657688       -3.20199248646029
