17
 energy: -20.461240925598 gnorm: 0.000352401654 xtb: 6.5.1 (fef0646)
N            0.92257684619883       -0.06360982579158        0.10043717307193
C            2.42012089947924       -0.06065942307617        0.06690526611313
C            2.92871756904210        0.12347742603918       -1.35578413729270
C            4.46224903808565        0.12557140191539       -1.37536092946484
C            4.99364830508402        0.30936685135835       -2.78741933727032
I            7.15979400805021        0.30958854110733       -2.79191836630563
H            0.57040948223654       -0.18749415275133        1.05837974699985
H            0.56034942578145       -0.82743172699943       -0.48626952676105
H            0.56193276629363        0.82527411863694       -0.27195974741579
H            2.77576361482747       -1.00726506965199        0.47656553977582
H            2.77737210596260        0.74944313074365        0.70445331013648
H            2.56728276807043        1.06933025899983       -1.76467611209721
H            2.56672069506745       -0.68668727146417       -1.99221167460489
H            4.83352441990757       -0.81672048769021       -0.96900238512759
H            4.83400945397771        0.93214888855876       -0.74122985889709
H            4.68006327034348        1.25996928424944       -3.21186701146045
H            4.67978533159164       -0.50070194418399       -3.44118194939965
