      -----------------------------------------------------------      
     |                   =====================                   |     
     |                           x T B                           |     
     |                   =====================                   |     
     |                         S. Grimme                         |     
     |          Mulliken Center for Theoretical Chemistry        |     
     |                    University of Bonn                     |     
      -----------------------------------------------------------      

   * xtb version 6.5.1 (fef0646) compiled by 'conda@b96dff2e9fd6' on 2023-01-04

   xtb is free software: you can redistribute it and/or modify it under
   the terms of the GNU Lesser General Public License as published by
   the Free Software Foundation, either version 3 of the License, or
   (at your option) any later version.
   
   xtb is distributed in the hope that it will be useful,
   but WITHOUT ANY WARRANTY; without even the implied warranty of
   MERCHANTABILITY or FITNESS FOR A PARTICULAR PURPOSE.  See the
   GNU Lesser General Public License for more details.
   
   Cite this work as:
   * C. Bannwarth, E. Caldeweyher, S. Ehlert, A. Hansen, P. Pracht,
     J. Seibert, S. Spicher, S. Grimme, WIREs Comput. Mol. Sci., 2020, 11,
     e01493. DOI: 10.1002/wcms.1493
   
   for GFN2-xTB:
   * C. Bannwarth, S. Ehlert and S. Grimme., J. Chem. Theory Comput., 2019,
     15, 1652-1671. DOI: 10.1021/acs.jctc.8b01176
   for GFN1-xTB:
   * S. Grimme, C. Bannwarth, P. Shushkov, J. Chem. Theory Comput., 2017,
     13, 1989-2009. DOI: 10.1021/acs.jctc.7b00118
   for GFN0-xTB:
   * P. Pracht, E. Caldeweyher, S. Ehlert, S. Grimme, ChemRxiv, 2019, preprint.
     DOI: 10.26434/chemrxiv.8326202.v1
   for GFN-FF:
   * S. Spicher and S. Grimme, Angew. Chem. Int. Ed., 2020, 59, 15665-15673.
     DOI: 10.1002/anie.202004239
   
   for ALPB and GBSA implicit solvation:
   * S. Ehlert, M. Stahn, S. Spicher, S. Grimme, J. Chem. Theory Comput.,
     2021, 17, 4250-4261. DOI: 10.1021/acs.jctc.1c00471
   
   for DFT-D4:
   * E. Caldeweyher, C. Bannwarth and S. Grimme, J. Chem. Phys., 2017,
     147, 034112. DOI: 10.1063/1.4993215
   * E. Caldeweyher, S. Ehlert, A. Hansen, H. Neugebauer, S. Spicher,
     C. Bannwarth and S. Grimme, J. Chem. Phys., 2019, 150, 154122.
     DOI: 10.1063/1.5090222
   * E. Caldeweyher, J.-M. Mewes, S. Ehlert and S. Grimme, Phys. Chem. Chem. Phys.
     2020, 22, 8499-8512. DOI: 10.1039/D0CP00502A
   
   for sTDA-xTB:
   * S. Grimme and C. Bannwarth, J. Chem. Phys., 2016, 145, 054103.
     DOI: 10.1063/1.4959605
   
   in the mass-spec context:
   * V. Asgeirsson, C. Bauer and S. Grimme, Chem. Sci., 2017, 8, 4879.
     DOI: 10.1039/c7sc00601b
   * J. Koopman and S. Grimme, ACS Omega 2019, 4, 12, 15120-15133.
     DOI: 10.1021/acsomega.9b02011
   
   for metadynamics refer to:
   * S. Grimme, J. Chem. Theory Comput., 2019, 155, 2847-2862
     DOI: 10.1021/acs.jctc.9b00143
   
   for SPH calculations refer to:
   * S. Spicher and S. Grimme, J. Chem. Theory Comput., 2021, 17, 1701-1714
     DOI: 10.1021/acs.jctc.0c01306
   
   with help from (in alphabetical order)
   P. Atkinson, C. Bannwarth, F. Bohle, G. Brandenburg, E. Caldeweyher
   M. Checinski, S. Dohm, S. Ehlert, S. Ehrlich, I. Gerasimov, C. Hölzer
   A. Katbashev, J. Koopman, C. Lavigne, S. Lehtola, F. März, M. Müller,
   F. Musil, H. Neugebauer, J. Pisarek, C. Plett, P. Pracht, F. Pultar,
   J. Seibert, P. Shushkov, S. Spicher, M. Stahn, M. Steiner, T. Strunk,
   J. Stückrath, T. Rose, and J. Unsleber
   
 * started run on 2023/01/24 at 14:57:48.353     

           -------------------------------------------------
          |                Calculation Setup                |
           -------------------------------------------------

          program call               : xtb init.xyz --opt -c 1 -u 0 -P 16 --alpb water
          hostname                   : gpg-woodward
          coordinate file            : init.xyz
          omp threads                :                    16

   ID    Z sym.   atoms
    1    7 N      1
    2    6 C      2-10
    3    1 H      11-24

           -------------------------------------------------
          |                 G F N 2 - x T B                 |
           -------------------------------------------------

        Reference                      10.1021/acs.jctc.8b01176
      * Hamiltonian:
        H0-scaling (s, p, d)           1.850000    2.230000    2.230000
        zeta-weighting                 0.500000
      * Dispersion:
        s8                             2.700000
        a1                             0.520000
        a2                             5.000000
        s9                             5.000000
      * Repulsion:
        kExp                           1.500000    1.000000
        rExp                           1.000000
      * Coulomb:
        alpha                          2.000000
        third order                    shell-resolved
        anisotropic                    true
        a3                             3.000000
        a5                             4.000000
        cn-shift                       1.200000
        cn-exp                         4.000000
        max-rad                        5.000000

      * Solvation model:               ALPB
        Solvent                        water
        Parameter file                 internal GFN2-xTB/ALPB
        Dielectric constant                8.0200E+01
        Reference state                gsolv [1 M gas/solution]
        Free energy shift                  1.0808E-03 Eh       6.7819E-01 kcal/mol
        Temperature                        2.9815E+02 K
        Density                            1.0000E+00 kg/L
        Solvent mass                       1.8000E+01 g/mol
        Interaction kernel             P16
        Born radius scaling (c1)           1.4744E+00
        Born radii integrator          GBOBC
        Born offset                        0.0000E+00 a0       0.0000E+00 AA
        H-bond correction              true
        Ion screening                  false
        Surface tension                    1.0000E-05 Eh       1.5569E+01 dyn/cm
        Grid points                               230 per atom

          ...................................................
          :                      SETUP                      :
          :.................................................:
          :  # basis functions                  54          :
          :  # atomic orbitals                  54          :
          :  # shells                           34          :
          :  # electrons                        54          :
          :  max. iterations                   250          :
          :  Hamiltonian                  GFN2-xTB          :
          :  restarted?                      false          :
          :  GBSA solvation                   true          :
          :  PC potential                    false          :
          :  electronic temp.          300.0000000     K    :
          :  accuracy                    1.0000000          :
          :  -> integral cutoff          0.2500000E+02      :
          :  -> integral neglect         0.1000000E-07      :
          :  -> SCF convergence          0.1000000E-05 Eh   :
          :  -> wf. convergence          0.1000000E-03 e    :
          :  Broyden damping             0.4000000          :
          ...................................................

 iter      E             dE          RMSdq      gap      omega  full diag
   1    -29.3938804 -0.293939E+02  0.379E+00    4.52       0.0  T
   2    -29.4640211 -0.701406E-01  0.216E+00    4.64       1.0  T
   3    -29.4663843 -0.236324E-02  0.100E+00    4.60       1.0  T
   4    -29.4652520  0.113234E-02  0.371E-01    4.63       1.0  T
   5    -29.4676233 -0.237136E-02  0.712E-02    4.61       1.0  T
   6    -29.4676324 -0.908786E-05  0.414E-02    4.61       1.0  T
   7    -29.4676378 -0.544051E-05  0.133E-02    4.61       1.5  T
   8    -29.4676397 -0.184416E-05  0.586E-03    4.61       3.5  T
   9    -29.4676398 -0.841905E-07  0.231E-03    4.61       8.8  T
  10    -29.4676398 -0.245583E-07  0.680E-04    4.61      30.0  T
  11    -29.4676398 -0.166211E-08  0.292E-04    4.61      69.8  T

   *** convergence criteria satisfied after 11 iterations ***

         #    Occupation            Energy/Eh            Energy/eV
      -------------------------------------------------------------
         1        2.0000           -0.6927030             -18.8494
       ...           ...                  ...                  ...
        21        2.0000           -0.4598483             -12.5131
        22        2.0000           -0.4492839             -12.2256
        23        2.0000           -0.4370488             -11.8927
        24        2.0000           -0.4179258             -11.3723
        25        2.0000           -0.4164986             -11.3335
        26        2.0000           -0.3988870             -10.8543
        27        2.0000           -0.3917011             -10.6587 (HOMO)
        28                         -0.2223623              -6.0508 (LUMO)
        29                         -0.2210178              -6.0142
        30                         -0.0972053              -2.6451
        31                         -0.0554200              -1.5081
        32                          0.0567027               1.5430
       ...                                ...                  ...
        54                          0.6346941              17.2709
      -------------------------------------------------------------
                  HL-Gap            0.1693388 Eh            4.6079 eV
             Fermi-level           -0.3070317 Eh           -8.3548 eV

 SCC (total)                   0 d,  0 h,  0 min,  0.032 sec
 SCC setup                      ...        0 min,  0.000 sec (  1.264%)
 Dispersion                     ...        0 min,  0.000 sec (  1.201%)
 classical contributions        ...        0 min,  0.000 sec (  0.205%)
 integral evaluation            ...        0 min,  0.006 sec ( 18.958%)
 iterations                     ...        0 min,  0.022 sec ( 69.839%)
 molecular gradient             ...        0 min,  0.002 sec (  7.161%)
 printout                       ...        0 min,  0.000 sec (  0.445%)

         :::::::::::::::::::::::::::::::::::::::::::::::::::::
         ::                     SUMMARY                     ::
         :::::::::::::::::::::::::::::::::::::::::::::::::::::
         :: total energy             -28.992644606925 Eh    ::
         :: total w/o Gsasa/hb       -28.981070605470 Eh    ::
         :: gradient norm              0.028906962977 Eh/a0 ::
         :: HOMO-LUMO gap              4.607944382896 eV    ::
         ::.................................................::
         :: SCC energy               -29.467639800610 Eh    ::
         :: -> isotropic ES            0.125063751171 Eh    ::
         :: -> anisotropic ES         -0.012280562483 Eh    ::
         :: -> anisotropic XC          0.022377423253 Eh    ::
         :: -> dispersion             -0.017343192282 Eh    ::
         :: -> Gsolv                  -0.118963877029 Eh    ::
         ::    -> Gelec               -0.107389875575 Eh    ::
         ::    -> Gsasa               -0.001603278183 Eh    ::
         ::    -> Ghb                 -0.011051482970 Eh    ::
         ::    -> Gshift               0.001080759698 Eh    ::
         :: repulsion energy           0.474848023192 Eh    ::
         :: add. restraining           0.000000000000 Eh    ::
         :: total charge               1.000000000000 e     ::
         :::::::::::::::::::::::::::::::::::::::::::::::::::::

      ----------------------------------------------------------- 
     |                   =====================                   |
     |                        A N C O P T                        |
     |                   =====================                   |
     |               Approximate Normal Coordinate               |
     |                Rational Function Optimizer                |
      ----------------------------------------------------------- 

          ...................................................
          :                      SETUP                      :
          :.................................................:
          :   optimization level            normal          :
          :   max. optcycles                   200          :
          :   ANC micro-cycles                  20          :
          :   degrees of freedom                66          :
          :.................................................:
          :   RF solver                   davidson          :
          :   write xtbopt.log                true          :
          :   linear?                        false          :
          :   energy convergence         0.5000000E-05 Eh   :
          :   grad. convergence          0.1000000E-02 Eh/α :
          :   maximium RF displ.         1.0000000          :
          :   Hlow (freq-cutoff)         0.1000000E-01      :
          :   Hmax (freq-cutoff)         5.0000000          :
          :   S6 in model hess.         20.0000000          :
          ...................................................

generating ANC from model Hessian ...
Using Lindh-Hessian (1995)
 Shifting diagonal of input Hessian by    9.0380137681192428E-003
 Lowest  eigenvalues of input Hessian
    0.000000    0.000000    0.000000    0.000000    0.000000    0.000000
    0.010000    0.010299    0.011419    0.014615    0.016822    0.019824
    0.022804    0.023122    0.026243    0.028853    0.032835    0.035291
 Highest eigenvalues
    1.440118    1.527397    1.557757    1.831955    1.931547    1.944153


........................................................................
.............................. CYCLE    1 ..............................
........................................................................
   1    -29.4676398 -0.294676E+02  0.113E-04    4.61       0.0  T
   2    -29.4676398 -0.660592E-10  0.707E-05    4.61     288.9  T
   3    -29.4676398 -0.163816E-10  0.460E-05    4.61     443.7  T
     SCC iter.                  ...        0 min,  0.006 sec
     gradient                   ...        0 min,  0.002 sec
 * total energy  :   -28.9926446 Eh     change       -0.2753389E-09 Eh
   gradient norm :     0.0289070 Eh/α   predicted     0.0000000E+00 (-100.00%)
   displ. norm   :     0.1834701 α      lambda       -0.3615263E-02
   maximum displ.:     0.0904001 α      in ANC's #20, #17, #39, ...

........................................................................
.............................. CYCLE    2 ..............................
........................................................................
   1    -29.4886801 -0.294887E+02  0.176E-01    4.70       0.0  T
   2    -29.4886889 -0.886405E-05  0.103E-01    4.70       1.0  T
   3    -29.4886899 -0.963853E-06  0.846E-03    4.70       2.4  T
   4    -29.4886901 -0.210212E-06  0.338E-03    4.70       6.0  T
   5    -29.4886901 -0.259305E-07  0.191E-03    4.70      10.7  T
   6    -29.4886901 -0.205868E-07  0.369E-04    4.70      55.3  T
   7    -29.4886901 -0.927333E-09  0.196E-04    4.70     104.0  T
     SCC iter.                  ...        0 min,  0.013 sec
     gradient                   ...        0 min,  0.002 sec
 * total energy  :   -28.9948517 Eh     change       -0.2207119E-02 Eh
   gradient norm :     0.0091837 Eh/α   predicted    -0.1868493E-02 ( -15.34%)
   displ. norm   :     0.1114137 α      lambda       -0.4297354E-03
   maximum displ.:     0.0653206 α      in ANC's #5, #4, #2, ...

........................................................................
.............................. CYCLE    3 ..............................
........................................................................
   1    -29.4947708 -0.294948E+02  0.622E-02    4.73       0.0  T
   2    -29.4947734 -0.250618E-05  0.360E-02    4.72       1.0  T
   3    -29.4947735 -0.123711E-06  0.511E-03    4.73       4.0  T
   4    -29.4947735 -0.625203E-07  0.140E-03    4.72      14.6  T
   5    -29.4947735 -0.547189E-08  0.770E-04    4.72      26.5  T
   6    -29.4947735 -0.138632E-08  0.143E-04    4.72     142.6  T
     SCC iter.                  ...        0 min,  0.011 sec
     gradient                   ...        0 min,  0.002 sec
 * total energy  :   -28.9951073 Eh     change       -0.2555433E-03 Eh
   gradient norm :     0.0029024 Eh/α   predicted    -0.2175404E-03 ( -14.87%)
   displ. norm   :     0.0771629 α      lambda       -0.7750502E-04
   maximum displ.:     0.0478719 α      in ANC's #2, #5, #4, ...

........................................................................
.............................. CYCLE    4 ..............................
........................................................................
   1    -29.4951174 -0.294951E+02  0.321E-02    4.72       0.0  T
   2    -29.4951178 -0.434650E-06  0.186E-02    4.72       1.1  T
   3    -29.4951178 -0.322737E-08  0.208E-03    4.72       9.8  T
   4    -29.4951178 -0.295876E-07  0.641E-04    4.72      31.8  T
   5    -29.4951178 -0.391857E-08  0.344E-04    4.72      59.3  T
     SCC iter.                  ...        0 min,  0.010 sec
     gradient                   ...        0 min,  0.002 sec
 * total energy  :   -28.9951611 Eh     change       -0.5381961E-04 Eh
   gradient norm :     0.0012562 Eh/α   predicted    -0.3898410E-04 ( -27.57%)
   displ. norm   :     0.1113201 α      lambda       -0.3729601E-04
   maximum displ.:     0.0834354 α      in ANC's #2, #5, #4, ...

........................................................................
.............................. CYCLE    5 ..............................
........................................................................
   1    -29.4942101 -0.294942E+02  0.459E-02    4.71       0.0  T
   2    -29.4942103 -0.227141E-06  0.269E-02    4.71       1.0  T
   3    -29.4942103  0.692752E-08  0.176E-03    4.71      11.6  T
   4    -29.4942104 -0.530210E-07  0.665E-04    4.71      30.7  T
   5    -29.4942104 -0.310114E-08  0.360E-04    4.71      56.7  T
     SCC iter.                  ...        0 min,  0.009 sec
     gradient                   ...        0 min,  0.002 sec
 * total energy  :   -28.9951917 Eh     change       -0.3059665E-04 Eh
   gradient norm :     0.0016544 Eh/α   predicted    -0.1875089E-04 ( -38.72%)
   displ. norm   :     0.0476184 α      lambda       -0.1291241E-04
   maximum displ.:     0.0422861 α      in ANC's #2, #3, #1, ...

........................................................................
.............................. CYCLE    6 ..............................
........................................................................
   1    -29.4940871 -0.294941E+02  0.216E-02    4.72       0.0  T
   2    -29.4940871 -0.489932E-07  0.127E-02    4.72       1.6  T
   3    -29.4940872 -0.597721E-08  0.618E-04    4.72      33.0  T
   4    -29.4940872 -0.313000E-08  0.297E-04    4.72      68.8  T
     SCC iter.                  ...        0 min,  0.006 sec
     gradient                   ...        0 min,  0.001 sec
 * total energy  :   -28.9952088 Eh     change       -0.1715243E-04 Eh
   gradient norm :     0.0009173 Eh/α   predicted    -0.6500685E-05 ( -62.10%)
   displ. norm   :     0.0793101 α      lambda       -0.1991358E-04
   maximum displ.:     0.0634242 α      in ANC's #2, #3, #4, ...

........................................................................
.............................. CYCLE    7 ..............................
........................................................................
   1    -29.4942882 -0.294943E+02  0.355E-02    4.72       0.0  T
   2    -29.4942883 -0.130216E-06  0.208E-02    4.72       1.0  T
   3    -29.4942883 -0.641189E-08  0.114E-03    4.72      17.9  T
   4    -29.4942883 -0.175485E-07  0.484E-04    4.72      42.2  T
   5    -29.4942883 -0.171768E-08  0.259E-04    4.72      78.8  T
     SCC iter.                  ...        0 min,  0.007 sec
     gradient                   ...        0 min,  0.002 sec
 * total energy  :   -28.9952329 Eh     change       -0.2411117E-04 Eh
   gradient norm :     0.0008903 Eh/α   predicted    -0.9984943E-05 ( -58.59%)
   displ. norm   :     0.0987130 α      lambda       -0.1815234E-04
   maximum displ.:     0.0796779 α      in ANC's #2, #3, #4, ...

........................................................................
.............................. CYCLE    8 ..............................
........................................................................
   1    -29.4943437 -0.294943E+02  0.422E-02    4.72       0.0  T
   2    -29.4943437 -0.702535E-07  0.247E-02    4.72       1.0  T
   3    -29.4943437 -0.219347E-07  0.852E-04    4.72      24.0  T
   4    -29.4943438 -0.541026E-08  0.472E-04    4.72      43.3  T
     SCC iter.                  ...        0 min,  0.006 sec
     gradient                   ...        0 min,  0.002 sec
 * total energy  :   -28.9952563 Eh     change       -0.2330435E-04 Eh
   gradient norm :     0.0013737 Eh/α   predicted    -0.9116177E-05 ( -60.88%)
   displ. norm   :     0.0950649 α      lambda       -0.1648893E-04
   maximum displ.:     0.0779700 α      in ANC's #2, #3, #5, ...

........................................................................
.............................. CYCLE    9 ..............................
........................................................................
   1    -29.4943880 -0.294944E+02  0.401E-02    4.72       0.0  T
   2    -29.4943880 -0.436616E-07  0.235E-02    4.72       1.0  T
   3    -29.4943881 -0.188216E-07  0.714E-04    4.72      28.6  T
   4    -29.4943881 -0.275459E-08  0.421E-04    4.72      48.5  T
     SCC iter.                  ...        0 min,  0.006 sec
     gradient                   ...        0 min,  0.002 sec
 * total energy  :   -28.9952792 Eh     change       -0.2295113E-04 Eh
   gradient norm :     0.0011955 Eh/α   predicted    -0.8278048E-05 ( -63.93%)
   displ. norm   :     0.0955977 α      lambda       -0.1724300E-04
   maximum displ.:     0.0810139 α      in ANC's #2, #3, #5, ...

........................................................................
.............................. CYCLE   10 ..............................
........................................................................
   1    -29.4944869 -0.294945E+02  0.402E-02    4.72       0.0  T
   2    -29.4944869 -0.551881E-07  0.236E-02    4.72       1.0  T
   3    -29.4944869 -0.196033E-07  0.723E-04    4.72      28.2  T
   4    -29.4944869 -0.277343E-08  0.423E-04    4.72      48.2  T
     SCC iter.                  ...        0 min,  0.006 sec
     gradient                   ...        0 min,  0.002 sec
 * total energy  :   -28.9953026 Eh     change       -0.2342041E-04 Eh
   gradient norm :     0.0005615 Eh/α   predicted    -0.8656796E-05 ( -63.04%)
   displ. norm   :     0.0889824 α      lambda       -0.1443123E-04
   maximum displ.:     0.0784351 α      in ANC's #2, #3, #5, ...

........................................................................
.............................. CYCLE   11 ..............................
........................................................................
   1    -29.4944853 -0.294945E+02  0.385E-02    4.72       0.0  T
   2    -29.4944854 -0.479189E-07  0.226E-02    4.72       1.0  T
   3    -29.4944854 -0.141553E-07  0.769E-04    4.72      26.6  T
   4    -29.4944854 -0.543859E-08  0.412E-04    4.72      49.6  T
     SCC iter.                  ...        0 min,  0.006 sec
     gradient                   ...        0 min,  0.001 sec
 * total energy  :   -28.9953224 Eh     change       -0.1977378E-04 Eh
   gradient norm :     0.0003595 Eh/α   predicted    -0.7242727E-05 ( -63.37%)
   displ. norm   :     0.0736208 α      lambda       -0.1085089E-04
   maximum displ.:     0.0667591 α      in ANC's #2, #3, #5, ...

........................................................................
.............................. CYCLE   12 ..............................
........................................................................
   1    -29.4945147 -0.294945E+02  0.322E-02    4.72       0.0  T
   2    -29.4945147 -0.305657E-07  0.189E-02    4.72       1.1  T
   3    -29.4945147 -0.103904E-07  0.641E-04    4.72      31.9  T
   4    -29.4945147 -0.396163E-08  0.349E-04    4.72      58.5  T
     SCC iter.                  ...        0 min,  0.006 sec
     gradient                   ...        0 min,  0.001 sec
 * total energy  :   -28.9953377 Eh     change       -0.1526718E-04 Eh
   gradient norm :     0.0005743 Eh/α   predicted    -0.5439789E-05 ( -64.37%)
   displ. norm   :     0.0572092 α      lambda       -0.8430215E-05
   maximum displ.:     0.0534136 α      in ANC's #2, #3, #5, ...

........................................................................
.............................. CYCLE   13 ..............................
........................................................................
   1    -29.4945677 -0.294946E+02  0.257E-02    4.72       0.0  T
   2    -29.4945677 -0.157883E-07  0.150E-02    4.72       1.4  T
   3    -29.4945677 -0.675823E-08  0.449E-04    4.72      45.5  T
   4    -29.4945677 -0.141552E-08  0.253E-04    4.72      80.7  T
     SCC iter.                  ...        0 min,  0.006 sec
     gradient                   ...        0 min,  0.001 sec
 * total energy  :   -28.9953497 Eh     change       -0.1204907E-04 Eh
   gradient norm :     0.0006359 Eh/α   predicted    -0.4225236E-05 ( -64.93%)
   displ. norm   :     0.0479454 α      lambda       -0.7302130E-05
   maximum displ.:     0.0459440 α      in ANC's #2, #5, #4, ...

........................................................................
.............................. CYCLE   14 ..............................
........................................................................
   1    -29.4945868 -0.294946E+02  0.218E-02    4.72       0.0  T
   2    -29.4945869 -0.138890E-07  0.128E-02    4.72       1.6  T
   3    -29.4945869 -0.571871E-08  0.375E-04    4.72      54.5  T
   4    -29.4945869 -0.676632E-09  0.222E-04    4.72      92.1  T
     SCC iter.                  ...        0 min,  0.006 sec
     gradient                   ...        0 min,  0.001 sec
 * total energy  :   -28.9953603 Eh     change       -0.1060795E-04 Eh
   gradient norm :     0.0005202 Eh/α   predicted    -0.3657922E-05 ( -65.52%)
   displ. norm   :     0.0442869 α      lambda       -0.6945565E-05
   maximum displ.:     0.0430091 α      in ANC's #2, #5, #7, ...

........................................................................
.............................. CYCLE   15 ..............................
........................................................................
   1    -29.4945901 -0.294946E+02  0.205E-02    4.72       0.0  T
   2    -29.4945901 -0.137639E-07  0.120E-02    4.72       1.7  T
   3    -29.4945901 -0.471005E-08  0.358E-04    4.72      57.0  T
   4    -29.4945901 -0.780474E-09  0.203E-04    4.72     100.7  T
     SCC iter.                  ...        0 min,  0.005 sec
     gradient                   ...        0 min,  0.001 sec
 * total energy  :   -28.9953704 Eh     change       -0.1003183E-04 Eh
   gradient norm :     0.0003945 Eh/α   predicted    -0.3477730E-05 ( -65.33%)
   displ. norm   :     0.0453335 α      lambda       -0.6986197E-05
   maximum displ.:     0.0434033 α      in ANC's #2, #3, #7, ...

........................................................................
.............................. CYCLE   16 ..............................
........................................................................
   1    -29.4946106 -0.294946E+02  0.207E-02    4.72       0.0  T
   2    -29.4946106 -0.144609E-07  0.121E-02    4.72       1.7  T
   3    -29.4946106 -0.521225E-08  0.386E-04    4.72      52.9  T
   4    -29.4946106 -0.975124E-09  0.220E-04    4.72      92.7  T
     SCC iter.                  ...        0 min,  0.005 sec
     gradient                   ...        0 min,  0.001 sec
 * total energy  :   -28.9953804 Eh     change       -0.1003377E-04 Eh
   gradient norm :     0.0002766 Eh/α   predicted    -0.3497009E-05 ( -65.15%)
   displ. norm   :     0.0479511 α      lambda       -0.6956005E-05
   maximum displ.:     0.0449316 α      in ANC's #2, #3, #7, ...

........................................................................
.............................. CYCLE   17 ..............................
........................................................................
   1    -29.4945945 -0.294946E+02  0.217E-02    4.72       0.0  T
   2    -29.4945945 -0.163642E-07  0.127E-02    4.72       1.6  T
   3    -29.4945945 -0.641687E-08  0.359E-04    4.72      56.8  T
   4    -29.4945945 -0.522817E-09  0.210E-04    4.72      97.3  T
     SCC iter.                  ...        0 min,  0.006 sec
     gradient                   ...        0 min,  0.001 sec
 * total energy  :   -28.9953905 Eh     change       -0.1006807E-04 Eh
   gradient norm :     0.0002581 Eh/α   predicted    -0.3484790E-05 ( -65.39%)
   displ. norm   :     0.0508345 α      lambda       -0.6871613E-05
   maximum displ.:     0.0463914 α      in ANC's #2, #3, #4, ...

........................................................................
.............................. CYCLE   18 ..............................
........................................................................
   1    -29.4945974 -0.294946E+02  0.226E-02    4.72       0.0  T
   2    -29.4945975 -0.178604E-07  0.132E-02    4.72       1.5  T
   3    -29.4945975 -0.657974E-08  0.423E-04    4.72      48.3  T
   4    -29.4945975 -0.145417E-08  0.240E-04    4.72      85.1  T
     SCC iter.                  ...        0 min,  0.005 sec
     gradient                   ...        0 min,  0.001 sec
 * total energy  :   -28.9954004 Eh     change       -0.9924083E-05 Eh
   gradient norm :     0.0002813 Eh/α   predicted    -0.3440879E-05 ( -65.33%)
   displ. norm   :     0.0527146 α      lambda       -0.6676315E-05
   maximum displ.:     0.0474037 α      in ANC's #2, #3, #4, ...

........................................................................
.............................. CYCLE   19 ..............................
........................................................................
   1    -29.4945947 -0.294946E+02  0.231E-02    4.72       0.0  T
   2    -29.4945947 -0.185795E-07  0.135E-02    4.72       1.5  T
   3    -29.4945947 -0.798597E-08  0.424E-04    4.72      48.1  T
   4    -29.4945947 -0.778840E-09  0.257E-04    4.72      79.3  T
     SCC iter.                  ...        0 min,  0.005 sec
     gradient                   ...        0 min,  0.001 sec
 * total energy  :   -28.9954099 Eh     change       -0.9543322E-05 Eh
   gradient norm :     0.0002920 Eh/α   predicted    -0.3343066E-05 ( -64.97%)
   displ. norm   :     0.0523276 α      lambda       -0.6186239E-05
   maximum displ.:     0.0469026 α      in ANC's #2, #3, #4, ...

........................................................................
.............................. CYCLE   20 ..............................
........................................................................
   1    -29.4945824 -0.294946E+02  0.228E-02    4.72       0.0  T
   2    -29.4945824 -0.189983E-07  0.134E-02    4.72       1.5  T
   3    -29.4945824 -0.729378E-08  0.438E-04    4.72      46.6  T
   4    -29.4945824 -0.157794E-08  0.250E-04    4.72      81.6  T
     SCC iter.                  ...        0 min,  0.005 sec
     gradient                   ...        0 min,  0.001 sec
 * total energy  :   -28.9954188 Eh     change       -0.8837479E-05 Eh
   gradient norm :     0.0002514 Eh/α   predicted    -0.3098470E-05 ( -64.94%)
   displ. norm   :     0.0492533 α      lambda       -0.5474436E-05
   maximum displ.:     0.0444902 α      in ANC's #2, #3, #1, ...
 * RMSD in coord.:     0.2405235 α      energy gain  -0.2774155E-02 Eh

generating ANC from model Hessian ...
Using Lindh-Hessian (1995)
 Shifting diagonal of input Hessian by    8.9937927570683269E-003
 Lowest  eigenvalues of input Hessian
    0.000000    0.000000    0.000000    0.000000    0.000000    0.000000
    0.010000    0.010375    0.011471    0.014735    0.017263    0.020110
    0.022999    0.024433    0.027442    0.029920    0.034157    0.036589
 Highest eigenvalues
    1.449298    1.580935    1.609804    1.895802    1.999143    2.023702


........................................................................
.............................. CYCLE   21 ..............................
........................................................................
   1    -29.4946068 -0.294946E+02  0.213E-02    4.72       0.0  T
   2    -29.4946068 -0.160743E-07  0.125E-02    4.73       1.6  T
   3    -29.4946068 -0.718032E-08  0.386E-04    4.72      52.9  T
   4    -29.4946068 -0.535167E-09  0.237E-04    4.73      86.3  T
     SCC iter.                  ...        0 min,  0.006 sec
     gradient                   ...        0 min,  0.002 sec
 * total energy  :   -28.9954266 Eh     change       -0.7869942E-05 Eh
   gradient norm :     0.0002099 Eh/α   predicted     0.0000000E+00 (-100.00%)
   displ. norm   :     0.0255196 α      lambda       -0.7562635E-07
   maximum displ.:     0.0246654 α      in ANC's #2, #1, #3, ...

........................................................................
.............................. CYCLE   22 ..............................
........................................................................
   1    -29.4946481 -0.294946E+02  0.113E-02    4.73       0.0  T
   2    -29.4946482 -0.359424E-08  0.666E-03    4.73       3.1  T
   3    -29.4946482 -0.156093E-08  0.188E-04    4.73     108.7  T
   4    -29.4946482 -0.191559E-09  0.109E-04    4.73     186.8  T
     SCC iter.                  ...        0 min,  0.006 sec
     gradient                   ...        0 min,  0.002 sec
 * total energy  :   -28.9954311 Eh     change       -0.4429931E-05 Eh
   gradient norm :     0.0002007 Eh/α   predicted    -0.1524655E-05 ( -65.58%)
   displ. norm   :     0.0318904 α      lambda       -0.3637062E-05
   maximum displ.:     0.0286745 α      in ANC's #2, #1, #3, ...

   *** GEOMETRY OPTIMIZATION CONVERGED AFTER 22 ITERATIONS ***

------------------------------------------------------------------------
 total energy gain   :        -0.0027865 Eh       -1.7485 kcal/mol
 total RMSD          :         0.2454573 a0        0.1299 Å
 total power (kW/mol):        -0.3325380 (step)  -30.8655 (real)
------------------------------------------------------------------------

 ANCopt (total)                0 d,  0 h,  0 min,  0.237 sec
 optimizer setup                ...        0 min,  0.000 sec (  0.064%)
 model hessian                  ...        0 min,  0.017 sec (  7.140%)
 ANC generation                 ...        0 min,  0.004 sec (  1.707%)
 coordinate transformation      ...        0 min,  0.001 sec (  0.221%)
 single point calculation       ...        0 min,  0.208 sec ( 87.913%)
 optimization log               ...        0 min,  0.003 sec (  1.083%)
 hessian update                 ...        0 min,  0.001 sec (  0.233%)
 rational function              ...        0 min,  0.001 sec (  0.584%)

================
 final structure:
================
24
 xtb: 6.5.1 (fef0646)
N            1.00204642283953       -1.63069784547271       -1.74291574273145
C            2.48505256094720       -1.60875782891593       -1.73105805049724
C            2.99853957684395       -0.21975216270401       -1.36949700677398
C            4.53154396989862       -0.18803726679570       -1.38486339195040
C            5.08868081540895       -0.48662301489894       -2.75059349792755
C            4.90205641342967        0.41099211420989       -3.79634051263467
C            5.39915402535027        0.13977843987867       -5.05822412898773
C            6.09530108797455       -1.03482043762613       -5.29320888221216
C            6.29142969151866       -1.93321207810333       -4.25833413573485
C            5.78771320582480       -1.66127967091831       -2.99761562055085
H            0.65334829688301       -2.56383605592252       -1.98952637981975
H            0.64570946511882       -0.95431938718078       -2.42836515435482
H            0.63658923870106       -1.37502614838827       -0.81777747760968
H            2.85870270444890       -1.88802362753568       -2.71661884107266
H            2.84898115853054       -2.33629359071533       -1.00584757226224
H            2.65981345168818        0.06306214194143       -0.37256040522692
H            2.62756891034503        0.51487678379274       -2.08450247390603
H            4.92217007067096       -0.91094103977237       -0.66780969207464
H            4.86650297759677        0.80361627223092       -1.07519410184212
H            4.37698116643072        1.33861136170106       -3.62129644770626
H            5.25102888531299        0.84712175079004       -5.86117525298888
H            6.48936712863202       -1.24477574442461       -6.27680207669834
H            6.84126206439436       -2.84626938443434       -4.43442909056971
H            5.95235671121049       -2.36715358073551       -2.19657406386699

 Bond Distances (Angstroems)
 ---------------------------
N1-C2=1.4832         N1-H11=1.0262        N1-H12=1.0268        N1-H13=1.0270        C2-N1=1.4832         C2-C3=1.5244         
C2-H14=1.0904        C2-H15=1.0898        C3-C2=1.5244         C3-C4=1.5334         C3-H16=1.0902        C3-H17=1.0902        
C4-C3=1.5334         C4-C5=1.5049         C4-H18=1.0906        C4-H19=1.0915        C5-C4=1.5049         C5-C6=1.3907         
C5-C10=1.3891        C6-C5=1.3907         C6-C7=1.3831         C6-H20=1.0802        C7-C6=1.3831         C7-C8=1.3855         
C7-H21=1.0803        C8-C7=1.3855         C8-C9=1.3844         C8-H22=1.0802        C9-C8=1.3844         C9-C10=1.3846        
C9-H23=1.0803        C10-C5=1.3891        C10-C9=1.3846        C10-H24=1.0803       H11-N1=1.0262        H12-N1=1.0268        
H13-N1=1.0270        H14-C2=1.0904        H15-C2=1.0898        H16-C3=1.0902        H17-C3=1.0902        H18-C4=1.0906        
H19-C4=1.0915        H20-C6=1.0802        H21-C7=1.0803        H22-C8=1.0802        H23-C9=1.0803        H24-C10=1.0803       
 C  H  Rav=1.0858 sigma=0.0051  Rmin=1.0802  Rmax=1.0915    11
 C  C  Rav=1.4311 sigma=0.0639  Rmin=1.3831  Rmax=1.5334     9
 N  H  Rav=1.0267 sigma=0.0003  Rmin=1.0262  Rmax=1.0270     3
 N  C  Rav=1.4832 sigma=0.0000  Rmin=1.4832  Rmax=1.4832     1

 selected bond angles (degree)
 --------------------
H11-N1-C2=110.80               H12-N1-C2=110.03               H12-N1-H11=108.70              H13-N1-C2=110.18               
H13-N1-H11=108.78              H13-N1-H12=108.29              C3-C2-N1=110.62                H14-C2-N1=109.37               
H14-C2-C3=109.41               H15-C2-N1=109.23               H15-C2-C3=109.75               H15-C2-H14=108.43              
C4-C3-C2=110.69                H16-C3-C2=110.40               H16-C3-C4=108.33               H17-C3-C2=110.11               
H17-C3-C4=108.64               H17-C3-H16=108.61              C5-C4-C3=112.03                H18-C4-C3=109.74               
H18-C4-C5=109.42               H19-C4-C3=108.83               H19-C4-C5=108.91               H19-C4-H18=107.80              
C6-C5-C4=120.31                C10-C5-C4=121.03               C10-C5-C6=118.66               C7-C6-C5=120.75                
H20-C6-C5=119.84               H20-C6-C7=119.40               C8-C7-C6=120.10                H21-C7-C6=120.03               
H21-C7-C8=119.86               C9-C8-C7=119.64                H22-C8-C7=120.17               H22-C8-C9=120.19               
C10-C9-C8=120.11               H23-C9-C8=119.92               H23-C9-C10=119.97              C9-C10-C5=120.74               
H24-C10-C5=119.83              H24-C10-C9=119.43              

 selected dihedral angles (degree)
 ---------------------------------
C3-C2-N1-H11=179.79           C3-C2-N1-H12= 59.55           C3-C2-N1-H13=300.21           H14-C2-N1-H11= 59.21          
H14-C2-N1-H12=298.97          H14-C2-N1-H13=179.64          H15-C2-N1-H11=300.70          H15-C2-N1-H12=180.46          
H15-C2-N1-H13= 61.12          C4-C3-C2-N1=181.16            C4-C3-C2-H14=301.71           C4-C3-C2-H15= 60.56           
H16-C3-C2-N1= 61.22           H16-C3-C2-H14=181.77          H16-C3-C2-H15=300.63          H17-C3-C2-N1=301.30           
H17-C3-C2-H14= 61.85          H17-C3-C2-H15=180.70          C5-C4-C3-C2= 62.25            C5-C4-C3-H16=183.42           
C5-C4-C3-H17=301.23           H18-C4-C3-C2=300.49           H18-C4-C3-H16= 61.66          H18-C4-C3-H17=179.47          
H19-C4-C3-C2=182.74           H19-C4-C3-H16=303.91          H19-C4-C3-H17= 61.72          C6-C5-C4-C3= 67.79            
C6-C5-C4-H18=189.73           C6-C5-C4-H19=307.34           C10-C5-C4-C3=248.27           C10-C5-C4-H18= 10.22          
C10-C5-C4-H19=127.83          C7-C6-C5-C4=180.62            C7-C6-C5-C10=  0.14           H20-C6-C5-C4=  1.59           
H20-C6-C5-C10=181.11          C8-C7-C6-C5=359.83            C8-C7-C6-H20=178.87           H21-C7-C6-C5=180.25           
H21-C7-C6-H20=359.29          C9-C8-C7-C6=359.92            C9-C8-C7-H21=179.50           H22-C8-C7-C6=180.39           
H22-C8-C7-H21=359.97          C10-C9-C8-C7=  0.35           C10-C9-C8-H22=179.88          H23-C9-C8-C7=180.55           
H23-C9-C8-H22=  0.08          C9-C10-C5-C4=179.65           C9-C10-C5-C6=  0.13           H24-C10-C5-C4=358.90          
H24-C10-C5-C6=179.38          C5-C10-C9-C8=359.63           C5-C10-C9-H23=179.42          H24-C10-C9-C8=180.37          
H24-C10-C9-H23=  0.17         
           -------------------------------------------------
          |                Final Singlepoint                |
           -------------------------------------------------

          ...................................................
          :                      SETUP                      :
          :.................................................:
          :  # basis functions                  54          :
          :  # atomic orbitals                  54          :
          :  # shells                           34          :
          :  # electrons                        54          :
          :  max. iterations                   250          :
          :  Hamiltonian                  GFN2-xTB          :
          :  restarted?                      false          :
          :  GBSA solvation                   true          :
          :  PC potential                    false          :
          :  electronic temp.          300.0000000     K    :
          :  accuracy                    1.0000000          :
          :  -> integral cutoff          0.2500000E+02      :
          :  -> integral neglect         0.1000000E-07      :
          :  -> SCF convergence          0.1000000E-05 Eh   :
          :  -> wf. convergence          0.1000000E-03 e    :
          :  Broyden damping             0.4000000          :
          ...................................................

 iter      E             dE          RMSdq      gap      omega  full diag
   1    -29.4946482 -0.294946E+02  0.332E-05    4.73       0.0  T
   2    -29.4946482 -0.799005E-11  0.210E-05    4.73     972.3  T
   3    -29.4946482 -0.222400E-11  0.146E-05    4.73    1399.8  T

   *** convergence criteria satisfied after 3 iterations ***

         #    Occupation            Energy/Eh            Energy/eV
      -------------------------------------------------------------
         1        2.0000           -0.6921666             -18.8348
       ...           ...                  ...                  ...
        21        2.0000           -0.4616150             -12.5612
        22        2.0000           -0.4489087             -12.2154
        23        2.0000           -0.4391317             -11.9494
        24        2.0000           -0.4182620             -11.3815
        25        2.0000           -0.4163397             -11.3292
        26        2.0000           -0.4012249             -10.9179
        27        2.0000           -0.3939561             -10.7201 (HOMO)
        28                         -0.2203040              -5.9948 (LUMO)
        29                         -0.2194722              -5.9721
        30                         -0.0917124              -2.4956
        31                         -0.0497654              -1.3542
        32                          0.0531273               1.4457
       ...                                ...                  ...
        54                          0.6659031              18.1201
      -------------------------------------------------------------
                  HL-Gap            0.1736521 Eh            4.7253 eV
             Fermi-level           -0.3071300 Eh           -8.3574 eV

 SCC (total)                   0 d,  0 h,  0 min,  0.007 sec
 SCC setup                      ...        0 min,  0.000 sec (  2.270%)
 Dispersion                     ...        0 min,  0.000 sec (  1.991%)
 classical contributions        ...        0 min,  0.000 sec (  0.425%)
 integral evaluation            ...        0 min,  0.001 sec (  7.431%)
 iterations                     ...        0 min,  0.004 sec ( 60.494%)
 molecular gradient             ...        0 min,  0.002 sec ( 24.499%)
 printout                       ...        0 min,  0.000 sec (  1.237%)

         :::::::::::::::::::::::::::::::::::::::::::::::::::::
         ::                     SUMMARY                     ::
         :::::::::::::::::::::::::::::::::::::::::::::::::::::
         :: total energy             -28.995431062031 Eh    ::
         :: total w/o Gsasa/hb       -28.983643457111 Eh    ::
         :: gradient norm              0.000201183924 Eh/a0 ::
         :: HOMO-LUMO gap              4.725314157615 eV    ::
         ::.................................................::
         :: SCC energy               -29.494648155232 Eh    ::
         :: -> isotropic ES            0.124966383538 Eh    ::
         :: -> anisotropic ES         -0.013528561432 Eh    ::
         :: -> anisotropic XC          0.021591464516 Eh    ::
         :: -> dispersion             -0.017498989146 Eh    ::
         :: -> Gsolv                  -0.118948182516 Eh    ::
         ::    -> Gelec               -0.107160577596 Eh    ::
         ::    -> Gsasa               -0.001607494600 Eh    ::
         ::    -> Ghb                 -0.011260870018 Eh    ::
         ::    -> Gshift               0.001080759698 Eh    ::
         :: repulsion energy           0.499069188111 Eh    ::
         :: add. restraining           0.000000000000 Eh    ::
         :: total charge               1.000000000000 e     ::
         :::::::::::::::::::::::::::::::::::::::::::::::::::::

           -------------------------------------------------
          |                Property Printout                |
           -------------------------------------------------

    * Orbital Energies and Occupations

         #    Occupation            Energy/Eh            Energy/eV
      -------------------------------------------------------------
         1        2.0000           -0.6921666             -18.8348
       ...           ...                  ...                  ...
        15        2.0000           -0.4992780             -13.5860
        16        2.0000           -0.4907419             -13.3538
        17        2.0000           -0.4860562             -13.2263
        18        2.0000           -0.4807538             -13.0820
        19        2.0000           -0.4737209             -12.8906
        20        2.0000           -0.4691570             -12.7664
        21        2.0000           -0.4616150             -12.5612
        22        2.0000           -0.4489087             -12.2154
        23        2.0000           -0.4391317             -11.9494
        24        2.0000           -0.4182620             -11.3815
        25        2.0000           -0.4163397             -11.3292
        26        2.0000           -0.4012249             -10.9179
        27        2.0000           -0.3939561             -10.7201 (HOMO)
        28                         -0.2203040              -5.9948 (LUMO)
        29                         -0.2194722              -5.9721
        30                         -0.0917124              -2.4956
        31                         -0.0497654              -1.3542
        32                          0.0531273               1.4457
        33                          0.0850833               2.3152
        34                          0.0943228               2.5667
        35                          0.1105352               3.0078
        36                          0.1251851               3.4065
        37                          0.1316234               3.5817
        38                          0.1473017               4.0083
       ...                                ...                  ...
        54                          0.6659031              18.1201
      -------------------------------------------------------------
                  HL-Gap            0.1736521 Eh            4.7253 eV
             Fermi-level           -0.3071300 Eh           -8.3574 eV

     #   Z          covCN         q      C6AA      α(0)
     1   7 N        3.485    -0.162    24.499     7.351
     2   6 C        3.732    -0.036    21.300     6.587
     3   6 C        3.803    -0.083    22.080     6.690
     4   6 C        3.809    -0.078    21.989     6.675
     5   6 C        2.969     0.011    27.763     8.643
     6   6 C        2.925    -0.045    29.111     8.848
     7   6 C        2.918    -0.036    28.903     8.816
     8   6 C        2.920    -0.038    28.943     8.822
     9   6 C        2.919    -0.036    28.896     8.815
    10   6 C        2.925    -0.047    29.165     8.856
    11   1 H        0.859     0.316     0.668     1.280
    12   1 H        0.859     0.308     0.690     1.301
    13   1 H        0.859     0.310     0.683     1.295
    14   1 H        0.924     0.101     1.778     2.085
    15   1 H        0.925     0.108     1.710     2.045
    16   1 H        0.924     0.073     2.055     2.242
    17   1 H        0.925     0.069     2.093     2.263
    18   1 H        0.924     0.053     2.279     2.361
    19   1 H        0.924     0.056     2.249     2.345
    20   1 H        0.926     0.044     2.399     2.422
    21   1 H        0.926     0.026     2.644     2.543
    22   1 H        0.926     0.019     2.746     2.592
    23   1 H        0.926     0.025     2.652     2.547
    24   1 H        0.926     0.041     2.439     2.442

 Mol. C6AA /au·bohr⁶  :       4912.190875
 Mol. C8AA /au·bohr⁸  :     113858.511479
 Mol. α(0) /au        :        109.865877


Wiberg/Mayer (AO) data.
largest (>0.10) Wiberg bond orders for each atom

 ---------------------------------------------------------------------------
     #   Z sym  total        # sym  WBO       # sym  WBO       # sym  WBO
 ---------------------------------------------------------------------------
     1   7 N    3.653 --     2 C    0.967    12 H    0.890    13 H    0.889
                            11 H    0.887
     2   6 C    3.927 --     3 C    1.011     1 N    0.967    14 H    0.966
                            15 H    0.966
     3   6 C    3.990 --     2 C    1.011     4 C    0.991    16 H    0.972
                            17 H    0.971
     4   6 C    3.994 --     5 C    1.012     3 C    0.991    18 H    0.974
                            19 H    0.964
     5   6 C    3.988 --    10 C    1.415     6 C    1.408     4 C    1.012
                             8 C    0.110
     6   6 C    3.991 --     7 C    1.449     5 C    1.408    20 H    0.968
                             9 C    0.112
     7   6 C    3.992 --     6 C    1.449     8 C    1.435    21 H    0.971
                            10 C    0.110
     8   6 C    3.993 --     9 C    1.442     7 C    1.435    22 H    0.972
                             5 C    0.110
     9   6 C    3.992 --     8 C    1.442    10 C    1.441    23 H    0.971
                             6 C    0.112
    10   6 C    3.990 --     9 C    1.441     5 C    1.415    24 H    0.968
                             7 C    0.110
    11   1 H    0.900 --     1 N    0.887
    12   1 H    0.905 --     1 N    0.890
    13   1 H    0.904 --     1 N    0.889
    14   1 H    0.990 --     2 C    0.966
    15   1 H    0.988 --     2 C    0.966
    16   1 H    0.994 --     3 C    0.972
    17   1 H    0.995 --     3 C    0.971
    18   1 H    0.997 --     4 C    0.974
    19   1 H    0.997 --     4 C    0.964
    20   1 H    0.998 --     6 C    0.968
    21   1 H    0.999 --     7 C    0.971
    22   1 H    0.999 --     8 C    0.972
    23   1 H    0.999 --     9 C    0.971
    24   1 H    0.998 --    10 C    0.968
 ---------------------------------------------------------------------------

Topologies differ in total number of bonds
Writing topology from bond orders to xtbtopo.mol

molecular dipole:
                 x           y           z       tot (Debye)
 q only:        1.959      -2.904      -2.891
   full:        2.006      -2.906      -3.042      11.846
molecular quadrupole (traceless):
                xx          xy          yy          xz          yz          zz
 q only:       -5.729      -8.095       5.009      -3.787      13.185       0.719
  q+dip:       -8.284     -10.523       4.279      -7.842      12.399       4.005
   full:       -5.911      -8.787       3.451      -7.136      13.071       2.460

           -------------------------------------------------
          |                Geometry Summary                 |
           -------------------------------------------------

      molecular mass/u    :      136.2144968
   center of mass at/Å    :        4.3277134      -0.8436243      -2.9675813
  moments of inertia/u·Å² :        0.2039741E+03   0.7130935E+03   0.7229165E+03
rotational constants/cm⁻¹ :        0.8264595E-01   0.2364014E-01   0.2331892E-01

 * 23 selected distances

     #   Z          #   Z                                           value/Å
     1   7 N        2   6 C                                       1.4832160
     2   6 C        3   6 C                                       1.5243794
     3   6 C        4   6 C                                       1.5334096 (max)
     5   6 C        6   6 C                                       1.3907296
     6   6 C        7   6 C                                       1.3831173
     7   6 C        8   6 C                                       1.3854680
     8   6 C        9   6 C                                       1.3843916
     5   6 C       10   6 C                                       1.3890590
     9   6 C       10   6 C                                       1.3845899
     1   7 N       11   1 H                                       1.0262331 (min)
     1   7 N       12   1 H                                       1.0267935
     1   7 N       13   1 H                                       1.0270384
     2   6 C       14   1 H                                       1.0903826
     2   6 C       15   1 H                                       1.0898086
     3   6 C       16   1 H                                       1.0902303
     3   6 C       17   1 H                                       1.0901981
     4   6 C       18   1 H                                       1.0905709
     4   6 C       19   1 H                                       1.0915446
     6   6 C       20   1 H                                       1.0801954
     7   6 C       21   1 H                                       1.0802807
     8   6 C       22   1 H                                       1.0801968
     9   6 C       23   1 H                                       1.0802772
    10   6 C       24   1 H                                       1.0802931

 * 4 distinct bonds (by element types)

   Z      Z             #   av. dist./Å        max./Å        min./Å
   1 H    6 C          11     1.0858162     1.0915446     1.0801954
   6 C    6 C           8     1.4218930     1.5334096     1.3831173
   1 H    7 N           3     1.0266883     1.0270384     1.0262331
   6 C    7 N           1     1.4832160     1.4832160     1.4832160


optimized geometry written to: xtbopt.xyz


           -------------------------------------------------
          | TOTAL ENERGY              -28.995431062031 Eh   |
          | GRADIENT NORM               0.000201183924 Eh/α |
          | HOMO-LUMO GAP               4.725314157615 eV   |
           -------------------------------------------------

------------------------------------------------------------------------
 * finished run on 2023/01/24 at 14:57:48.646     
------------------------------------------------------------------------
 total:
 * wall-time:     0 d,  0 h,  0 min,  0.293 sec
 *  cpu-time:     0 d,  0 h,  0 min, 31.064 sec
 * ratio c/w:   106.016 speedup
 SCF:
 * wall-time:     0 d,  0 h,  0 min,  0.032 sec
 *  cpu-time:     0 d,  0 h,  0 min,  4.493 sec
 * ratio c/w:   140.966 speedup
 ANC optimizer:
 * wall-time:     0 d,  0 h,  0 min,  0.245 sec
 *  cpu-time:     0 d,  0 h,  0 min, 24.563 sec
 * ratio c/w:   100.157 speedup

