      -----------------------------------------------------------      
     |                   =====================                   |     
     |                           x T B                           |     
     |                   =====================                   |     
     |                         S. Grimme                         |     
     |          Mulliken Center for Theoretical Chemistry        |     
     |                    University of Bonn                     |     
      -----------------------------------------------------------      

   * xtb version 6.5.1 (fef0646) compiled by 'conda@b96dff2e9fd6' on 2023-01-04

   xtb is free software: you can redistribute it and/or modify it under
   the terms of the GNU Lesser General Public License as published by
   the Free Software Foundation, either version 3 of the License, or
   (at your option) any later version.
   
   xtb is distributed in the hope that it will be useful,
   but WITHOUT ANY WARRANTY; without even the implied warranty of
   MERCHANTABILITY or FITNESS FOR A PARTICULAR PURPOSE.  See the
   GNU Lesser General Public License for more details.
   
   Cite this work as:
   * C. Bannwarth, E. Caldeweyher, S. Ehlert, A. Hansen, P. Pracht,
     J. Seibert, S. Spicher, S. Grimme, WIREs Comput. Mol. Sci., 2020, 11,
     e01493. DOI: 10.1002/wcms.1493
   
   for GFN2-xTB:
   * C. Bannwarth, S. Ehlert and S. Grimme., J. Chem. Theory Comput., 2019,
     15, 1652-1671. DOI: 10.1021/acs.jctc.8b01176
   for GFN1-xTB:
   * S. Grimme, C. Bannwarth, P. Shushkov, J. Chem. Theory Comput., 2017,
     13, 1989-2009. DOI: 10.1021/acs.jctc.7b00118
   for GFN0-xTB:
   * P. Pracht, E. Caldeweyher, S. Ehlert, S. Grimme, ChemRxiv, 2019, preprint.
     DOI: 10.26434/chemrxiv.8326202.v1
   for GFN-FF:
   * S. Spicher and S. Grimme, Angew. Chem. Int. Ed., 2020, 59, 15665-15673.
     DOI: 10.1002/anie.202004239
   
   for ALPB and GBSA implicit solvation:
   * S. Ehlert, M. Stahn, S. Spicher, S. Grimme, J. Chem. Theory Comput.,
     2021, 17, 4250-4261. DOI: 10.1021/acs.jctc.1c00471
   
   for DFT-D4:
   * E. Caldeweyher, C. Bannwarth and S. Grimme, J. Chem. Phys., 2017,
     147, 034112. DOI: 10.1063/1.4993215
   * E. Caldeweyher, S. Ehlert, A. Hansen, H. Neugebauer, S. Spicher,
     C. Bannwarth and S. Grimme, J. Chem. Phys., 2019, 150, 154122.
     DOI: 10.1063/1.5090222
   * E. Caldeweyher, J.-M. Mewes, S. Ehlert and S. Grimme, Phys. Chem. Chem. Phys.
     2020, 22, 8499-8512. DOI: 10.1039/D0CP00502A
   
   for sTDA-xTB:
   * S. Grimme and C. Bannwarth, J. Chem. Phys., 2016, 145, 054103.
     DOI: 10.1063/1.4959605
   
   in the mass-spec context:
   * V. Asgeirsson, C. Bauer and S. Grimme, Chem. Sci., 2017, 8, 4879.
     DOI: 10.1039/c7sc00601b
   * J. Koopman and S. Grimme, ACS Omega 2019, 4, 12, 15120-15133.
     DOI: 10.1021/acsomega.9b02011
   
   for metadynamics refer to:
   * S. Grimme, J. Chem. Theory Comput., 2019, 155, 2847-2862
     DOI: 10.1021/acs.jctc.9b00143
   
   for SPH calculations refer to:
   * S. Spicher and S. Grimme, J. Chem. Theory Comput., 2021, 17, 1701-1714
     DOI: 10.1021/acs.jctc.0c01306
   
   with help from (in alphabetical order)
   P. Atkinson, C. Bannwarth, F. Bohle, G. Brandenburg, E. Caldeweyher
   M. Checinski, S. Dohm, S. Ehlert, S. Ehrlich, I. Gerasimov, C. Hölzer
   A. Katbashev, J. Koopman, C. Lavigne, S. Lehtola, F. März, M. Müller,
   F. Musil, H. Neugebauer, J. Pisarek, C. Plett, P. Pracht, F. Pultar,
   J. Seibert, P. Shushkov, S. Spicher, M. Stahn, M. Steiner, T. Strunk,
   J. Stückrath, T. Rose, and J. Unsleber
   
 * started run on 2023/01/23 at 19:01:39.330     

           -------------------------------------------------
          |                Calculation Setup                |
           -------------------------------------------------

          program call               : xtb init.xyz --opt -c 0 -u 0 -P 16 --input xtb.inp
          hostname                   : gpg-woodward
          coordinate file            : init.xyz
          omp threads                :                    16

   ID    Z sym.   atoms
    1    7 N      1, 10, 11
    2    6 C      2-9, 12-17
    3   17 Cl     18
    4    1 H      19-34

molecular fragmentation (1/2 indicates fragments):
1111111111111111121111111111111111
# atoms in fragment 1/2:    33     1
 fragment masses (1/2) :      226.30       35.45
CMA distance (Bohr)    :  15.052
constraining FC (au)   :  0.0500

           -------------------------------------------------
          |                 G F N 2 - x T B                 |
           -------------------------------------------------

        Reference                      10.1021/acs.jctc.8b01176
      * Hamiltonian:
        H0-scaling (s, p, d)           1.850000    2.230000    2.230000
        zeta-weighting                 0.500000
      * Dispersion:
        s8                             2.700000
        a1                             0.520000
        a2                             5.000000
        s9                             5.000000
      * Repulsion:
        kExp                           1.500000    1.000000
        rExp                           1.000000
      * Coulomb:
        alpha                          2.000000
        third order                    shell-resolved
        anisotropic                    true
        a3                             3.000000
        a5                             4.000000
        cn-shift                       1.200000
        cn-exp                         4.000000
        max-rad                        5.000000


          ...................................................
          :                      SETUP                      :
          :.................................................:
          :  # basis functions                  94          :
          :  # atomic orbitals                  93          :
          :  # shells                           53          :
          :  # electrons                        94          :
          :  max. iterations                   250          :
          :  Hamiltonian                  GFN2-xTB          :
          :  restarted?                      false          :
          :  GBSA solvation                  false          :
          :  PC potential                    false          :
          :  electronic temp.          300.0000000     K    :
          :  accuracy                    1.0000000          :
          :  -> integral cutoff          0.2500000E+02      :
          :  -> integral neglect         0.1000000E-07      :
          :  -> SCF convergence          0.1000000E-05 Eh   :
          :  -> wf. convergence          0.1000000E-03 e    :
          :  Broyden damping             0.4000000          :
          ...................................................

 iter      E             dE          RMSdq      gap      omega  full diag
   1    -51.9392491 -0.519392E+02  0.461E+00    1.57       0.0  T
   2    -52.0763928 -0.137144E+00  0.270E+00    1.43       1.0  T
   3    -52.0751884  0.120441E-02  0.130E+00    0.43       1.0  T
   4    -52.0724298  0.275858E-02  0.662E-01    0.44       1.0  T
   5    -52.0877895 -0.153597E-01  0.234E-01    0.27       1.0  T
   6    -52.0880943 -0.304779E-03  0.164E-01    0.44       1.0  T
   7    -52.0883429 -0.248624E-03  0.110E-01    0.39       1.0  T
   8    -52.0884600 -0.117075E-03  0.569E-02    0.32       1.0  T
   9    -52.0885059 -0.458481E-04  0.234E-02    0.33       1.0  T
  10    -52.0885089 -0.306462E-05  0.102E-02    0.34       1.7  T
  11    -52.0885102 -0.127722E-05  0.326E-03    0.34       5.3  T
  12    -52.0885104 -0.190206E-06  0.156E-03    0.34      11.0  T
  13    -52.0885104 -0.125801E-07  0.700E-04    0.34      24.5  T
  14    -52.0885104 -0.793582E-08  0.282E-04    0.34      60.8  T

   *** convergence criteria satisfied after 14 iterations ***

         #    Occupation            Energy/Eh            Energy/eV
      -------------------------------------------------------------
         1        2.0000           -0.9366625             -25.4879
       ...           ...                  ...                  ...
        41        2.0000           -0.4298438             -11.6966
        42        2.0000           -0.4181498             -11.3784
        43        2.0000           -0.4091998             -11.1349
        44        2.0000           -0.3578941              -9.7388
        45        2.0000           -0.3383280              -9.2064
        46        1.9983           -0.3305163              -8.9938
        47        1.9978           -0.3302941              -8.9878 (HOMO)
        48        0.0039           -0.3178774              -8.6499 (LUMO)
        49                         -0.2547036              -6.9308
        50                         -0.2423497              -6.5947
        51                         -0.2415012              -6.5716
        52                         -0.2176320              -5.9221
       ...                                ...                  ...
        93                          0.6172496              16.7962
      -------------------------------------------------------------
                  HL-Gap            0.0124167 Eh            0.3379 eV
             Fermi-level           -0.3238083 Eh           -8.8113 eV

 SCC (total)                   0 d,  0 h,  0 min,  0.121 sec
 SCC setup                      ...        0 min,  0.001 sec (  0.731%)
 Dispersion                     ...        0 min,  0.003 sec (  2.671%)
 classical contributions        ...        0 min,  0.000 sec (  0.078%)
 integral evaluation            ...        0 min,  0.005 sec (  3.782%)
 iterations                     ...        0 min,  0.105 sec ( 86.426%)
 molecular gradient             ...        0 min,  0.007 sec (  5.686%)
 printout                       ...        0 min,  0.001 sec (  0.477%)

         :::::::::::::::::::::::::::::::::::::::::::::::::::::
         ::                     SUMMARY                     ::
         :::::::::::::::::::::::::::::::::::::::::::::::::::::
         :: total energy             -51.345079600079 Eh    ::
         :: gradient norm              0.074920562436 Eh/a0 ::
         :: HOMO-LUMO gap              0.337876498497 eV    ::
         ::.................................................::
         :: SCC energy               -52.088510403154 Eh    ::
         :: -> isotropic ES            0.110241208753 Eh    ::
         :: -> anisotropic ES         -0.022282406602 Eh    ::
         :: -> anisotropic XC          0.033820035911 Eh    ::
         :: -> dispersion             -0.031417490659 Eh    ::
         :: repulsion energy           0.743678598254 Eh    ::
         :: add. restraining           0.000000000000 Eh    ::
         :: total charge               0.000000001696 e     ::
         :::::::::::::::::::::::::::::::::::::::::::::::::::::

      ----------------------------------------------------------- 
     |                   =====================                   |
     |                        A N C O P T                        |
     |                   =====================                   |
     |               Approximate Normal Coordinate               |
     |                Rational Function Optimizer                |
      ----------------------------------------------------------- 

          ...................................................
          :                      SETUP                      :
          :.................................................:
          :   optimization level            normal          :
          :   max. optcycles                   200          :
          :   ANC micro-cycles                  20          :
          :   degrees of freedom                96          :
          :.................................................:
          :   RF solver                   davidson          :
          :   write xtbopt.log                true          :
          :   linear?                        false          :
          :   energy convergence         0.5000000E-05 Eh   :
          :   grad. convergence          0.1000000E-02 Eh/α :
          :   maximium RF displ.         1.0000000          :
          :   Hlow (freq-cutoff)         0.1000000E-01      :
          :   Hmax (freq-cutoff)         5.0000000          :
          :   S6 in model hess.         20.0000000          :
          ...................................................

generating ANC from model Hessian ...
Using Lindh-Hessian (1995)
 Shifting diagonal of input Hessian by    9.8473033216069355E-003
 Lowest  eigenvalues of input Hessian
    0.000000    0.000000    0.000000    0.000000    0.000000    0.000000
    0.010000    0.010108    0.010382    0.010594    0.011027    0.011659
    0.011828    0.013800    0.014807    0.018028    0.020658    0.022124
 Highest eigenvalues
    1.843152    1.880382    1.934847    1.967130    1.992391    2.078635


........................................................................
.............................. CYCLE    1 ..............................
........................................................................
   1    -52.0885104 -0.520885E+02  0.177E-04    0.34       0.0  T
   2    -52.0885104 -0.136232E-09  0.143E-04    0.34     119.7  T
   3    -52.0885104 -0.751967E-10  0.115E-04    0.34     149.0  T
     SCC iter.                  ...        0 min,  0.012 sec
     gradient                   ...        0 min,  0.006 sec
 * total energy  :   -51.3450796 Eh     change       -0.6726779E-09 Eh
   gradient norm :     0.0749208 Eh/α   predicted     0.0000000E+00 (-100.00%)
   displ. norm   :     0.5549385 α      lambda       -0.2303929E-01
   maximum displ.:     0.3495867 α      in ANC's #18, #12, #11, ...

........................................................................
.............................. CYCLE    2 ..............................
........................................................................
   1    -52.1273268 -0.521273E+02  0.344E-01    0.62       0.0  T
   2    -52.1278694 -0.542584E-03  0.202E-01    0.75       1.0  T
   3    -52.1278583  0.111067E-04  0.749E-02    0.82       1.0  T
   4    -52.1278788 -0.204618E-04  0.378E-02    0.87       1.0  T
   5    -52.1279234 -0.445661E-04  0.137E-02    0.87       1.3  T
   6    -52.1279245 -0.117135E-05  0.941E-03    0.87       1.8  T
   7    -52.1279252 -0.630650E-06  0.602E-03    0.86       2.8  T
   8    -52.1279255 -0.360077E-06  0.387E-03    0.86       4.4  T
   9    -52.1279258 -0.233049E-06  0.107E-03    0.87      16.0  T
  10    -52.1279258 -0.163818E-07  0.529E-04    0.87      32.4  T
  11    -52.1279258 -0.287466E-08  0.165E-04    0.87     103.9  T
     SCC iter.                  ...        0 min,  0.048 sec
     gradient                   ...        0 min,  0.007 sec
 * total energy  :   -51.3599982 Eh     change       -0.1491860E-01 Eh
   gradient norm :     0.0516445 Eh/α   predicted    -0.1506844E-01 (   1.00%)
   displ. norm   :     0.4862235 α      lambda       -0.1040482E-01
   maximum displ.:     0.2067072 α      in ANC's #9, #18, #2, ...

........................................................................
.............................. CYCLE    3 ..............................
........................................................................
   1    -52.1539589 -0.521540E+02  0.240E-01    0.82       0.0  T
   2    -52.1542737 -0.314840E-03  0.140E-01    0.83       1.0  T
   3    -52.1542727  0.102849E-05  0.647E-02    0.84       1.0  T
   4    -52.1542994 -0.267139E-04  0.312E-02    0.83       1.0  T
   5    -52.1543186 -0.191861E-04  0.165E-02    0.84       1.0  T
   6    -52.1543204 -0.177161E-05  0.121E-02    0.84       1.4  T
   7    -52.1543216 -0.115847E-05  0.680E-03    0.84       2.5  T
   8    -52.1543222 -0.683251E-06  0.336E-03    0.84       5.1  T
   9    -52.1543223 -0.115031E-06  0.994E-04    0.84      17.3  T
  10    -52.1543224 -0.151114E-07  0.440E-04    0.84      39.0  T
     SCC iter.                  ...        0 min,  0.037 sec
     gradient                   ...        0 min,  0.006 sec
 * total energy  :   -51.3672745 Eh     change       -0.7276314E-02 Eh
   gradient norm :     0.0424895 Eh/α   predicted    -0.6432353E-02 ( -11.60%)
   displ. norm   :     0.5006002 α      lambda       -0.6603574E-02
   maximum displ.:     0.2589176 α      in ANC's #18, #9, #2, ...

........................................................................
.............................. CYCLE    4 ..............................
........................................................................
   1    -52.1534905 -0.521535E+02  0.266E-01    0.77       0.0  T
   2    -52.1539572 -0.466764E-03  0.151E-01    0.76       1.0  T
   3    -52.1539973 -0.401066E-04  0.702E-02    0.77       1.0  T
   4    -52.1540077 -0.104089E-04  0.423E-02    0.77       1.0  T
   5    -52.1540338 -0.260978E-04  0.299E-02    0.77       1.0  T
   6    -52.1540409 -0.706655E-05  0.196E-02    0.77       1.0  T
   7    -52.1540463 -0.534455E-05  0.945E-03    0.77       1.8  T
   8    -52.1540475 -0.128768E-05  0.454E-03    0.77       3.8  T
   9    -52.1540479 -0.357073E-06  0.160E-03    0.77      10.7  T
  10    -52.1540479 -0.201351E-07  0.114E-03    0.77      15.0  T
  11    -52.1540479 -0.136526E-07  0.785E-04    0.77      21.8  T
  12    -52.1540479 -0.476286E-08  0.501E-04    0.77      34.3  T
     SCC iter.                  ...        0 min,  0.044 sec
     gradient                   ...        0 min,  0.005 sec
 * total energy  :   -51.3719601 Eh     change       -0.4685575E-02 Eh
   gradient norm :     0.0403697 Eh/α   predicted    -0.4129221E-02 ( -11.87%)
   displ. norm   :     0.3401494 α      lambda       -0.4104764E-02
   maximum displ.:     0.1539377 α      in ANC's #9, #2, #18, ...

........................................................................
.............................. CYCLE    5 ..............................
........................................................................
   1    -52.1486316 -0.521486E+02  0.198E-01    0.76       0.0  T
   2    -52.1488268 -0.195229E-03  0.107E-01    0.76       1.0  T
   3    -52.1488342 -0.741712E-05  0.444E-02    0.76       1.0  T
   4    -52.1488394 -0.523454E-05  0.261E-02    0.76       1.0  T
   5    -52.1488544 -0.149304E-04  0.138E-02    0.76       1.2  T
   6    -52.1488554 -0.105164E-05  0.984E-03    0.76       1.7  T
   7    -52.1488564 -0.100045E-05  0.619E-03    0.76       2.8  T
   8    -52.1488569 -0.518766E-06  0.281E-03    0.76       6.1  T
   9    -52.1488571 -0.130273E-06  0.106E-03    0.76      16.2  T
  10    -52.1488571 -0.914746E-08  0.676E-04    0.76      25.4  T
  11    -52.1488571 -0.594453E-08  0.456E-04    0.76      37.6  T
     SCC iter.                  ...        0 min,  0.040 sec
     gradient                   ...        0 min,  0.006 sec
 * total energy  :   -51.3747883 Eh     change       -0.2828224E-02 Eh
   gradient norm :     0.0283730 Eh/α   predicted    -0.2289879E-02 ( -19.03%)
   displ. norm   :     0.3640664 α      lambda       -0.3451360E-02
   maximum displ.:     0.1707591 α      in ANC's #9, #18, #5, ...

........................................................................
.............................. CYCLE    6 ..............................
........................................................................
   1    -52.1440228 -0.521440E+02  0.314E-01    0.77       0.0  T
   2    -52.1446727 -0.649861E-03  0.167E-01    0.75       1.0  T
   3    -52.1447196 -0.469590E-04  0.931E-02    0.77       1.0  T
   4    -52.1447639 -0.443146E-04  0.625E-02    0.75       1.0  T
   5    -52.1448222 -0.582831E-04  0.407E-02    0.76       1.0  T
   6    -52.1448381 -0.159298E-04  0.281E-02    0.76       1.0  T
   7    -52.1448513 -0.131520E-04  0.145E-02    0.76       1.2  T
   8    -52.1448553 -0.401057E-05  0.620E-03    0.76       2.8  T
   9    -52.1448560 -0.741826E-06  0.192E-03    0.76       8.9  T
  10    -52.1448561 -0.278895E-07  0.872E-04    0.76      19.7  T
  11    -52.1448561 -0.133368E-07  0.311E-04    0.76      55.1  T
     SCC iter.                  ...        0 min,  0.040 sec
     gradient                   ...        0 min,  0.005 sec
 * total energy  :   -51.3766152 Eh     change       -0.1826898E-02 Eh
   gradient norm :     0.0275028 Eh/α   predicted    -0.1954411E-02 (   6.98%)
   displ. norm   :     0.2897403 α      lambda       -0.2632952E-02
   maximum displ.:     0.1460124 α      in ANC's #9, #7, #5, ...

........................................................................
.............................. CYCLE    7 ..............................
........................................................................
   1    -52.1446059 -0.521446E+02  0.188E-01    0.79       0.0  T
   2    -52.1447819 -0.176001E-03  0.862E-02    0.76       1.0  T
   3    -52.1447843 -0.241956E-05  0.517E-02    0.78       1.0  T
   4    -52.1448269 -0.425725E-04  0.216E-02    0.77       1.0  T
   5    -52.1448324 -0.545998E-05  0.785E-03    0.77       2.2  T
   6    -52.1448328 -0.448382E-06  0.403E-03    0.77       4.3  T
   7    -52.1448330 -0.169294E-06  0.296E-03    0.77       5.8  T
   8    -52.1448331 -0.968082E-07  0.213E-03    0.77       8.0  T
   9    -52.1448331 -0.626359E-07  0.129E-03    0.77      13.3  T
  10    -52.1448332 -0.267077E-07  0.528E-04    0.77      32.5  T
  11    -52.1448332 -0.357178E-08  0.212E-04    0.77      80.8  T
     SCC iter.                  ...        0 min,  0.040 sec
     gradient                   ...        0 min,  0.005 sec
 * total energy  :   -51.3783797 Eh     change       -0.1764465E-02 Eh
   gradient norm :     0.0169908 Eh/α   predicted    -0.1426999E-02 ( -19.13%)
   displ. norm   :     0.2640868 α      lambda       -0.1424793E-02
   maximum displ.:     0.1197689 α      in ANC's #7, #5, #9, ...

........................................................................
.............................. CYCLE    8 ..............................
........................................................................
   1    -52.1496757 -0.521497E+02  0.173E-01    0.79       0.0  T
   2    -52.1498535 -0.177833E-03  0.769E-02    0.77       1.0  T
   3    -52.1498606 -0.712680E-05  0.435E-02    0.78       1.0  T
   4    -52.1498861 -0.254980E-04  0.218E-02    0.78       1.0  T
   5    -52.1498918 -0.564217E-05  0.103E-02    0.78       1.7  T
   6    -52.1498924 -0.678061E-06  0.725E-03    0.78       2.4  T
   7    -52.1498929 -0.405969E-06  0.536E-03    0.78       3.2  T
   8    -52.1498933 -0.410696E-06  0.262E-03    0.78       6.5  T
   9    -52.1498934 -0.103485E-06  0.118E-03    0.78      14.6  T
  10    -52.1498934 -0.201329E-07  0.696E-04    0.78      24.6  T
  11    -52.1498934 -0.598441E-08  0.483E-04    0.78      35.5  T
     SCC iter.                  ...        0 min,  0.040 sec
     gradient                   ...        0 min,  0.004 sec
 * total energy  :   -51.3793508 Eh     change       -0.9711277E-03 Eh
   gradient norm :     0.0104122 Eh/α   predicted    -0.7620815E-03 ( -21.53%)
   displ. norm   :     0.2293417 α      lambda       -0.6523623E-03
   maximum displ.:     0.1085136 α      in ANC's #5, #7, #6, ...

........................................................................
.............................. CYCLE    9 ..............................
........................................................................
   1    -52.1518009 -0.521518E+02  0.985E-02    0.78       0.0  T
   2    -52.1518336 -0.326484E-04  0.521E-02    0.77       1.0  T
   3    -52.1518334  0.146803E-06  0.242E-02    0.77       1.0  T
   4    -52.1518384 -0.497494E-05  0.132E-02    0.77       1.3  T
   5    -52.1518406 -0.218185E-05  0.675E-03    0.77       2.5  T
   6    -52.1518409 -0.271226E-06  0.500E-03    0.77       3.4  T
   7    -52.1518411 -0.226640E-06  0.312E-03    0.77       5.5  T
   8    -52.1518412 -0.145086E-06  0.137E-03    0.77      12.5  T
   9    -52.1518413 -0.283702E-07  0.638E-04    0.77      26.9  T
  10    -52.1518413 -0.459976E-08  0.433E-04    0.77      39.6  T
     SCC iter.                  ...        0 min,  0.037 sec
     gradient                   ...        0 min,  0.004 sec
 * total energy  :   -51.3797293 Eh     change       -0.3785308E-03 Eh
   gradient norm :     0.0070191 Eh/α   predicted    -0.3433400E-03 (  -9.30%)
   displ. norm   :     0.2032913 α      lambda       -0.4099649E-03
   maximum displ.:     0.1112083 α      in ANC's #7, #5, #6, ...

........................................................................
.............................. CYCLE   10 ..............................
........................................................................
   1    -52.1564649 -0.521565E+02  0.733E-02    0.76       0.0  T
   2    -52.1564692 -0.430194E-05  0.426E-02    0.76       1.0  T
   3    -52.1564686  0.580323E-06  0.116E-02    0.76       1.5  T
   4    -52.1564706 -0.198164E-05  0.696E-03    0.76       2.5  T
   5    -52.1564712 -0.530517E-06  0.462E-03    0.76       3.7  T
   6    -52.1564713 -0.143756E-06  0.303E-03    0.76       5.7  T
   7    -52.1564714 -0.113453E-06  0.139E-03    0.76      12.3  T
   8    -52.1564714 -0.279579E-07  0.510E-04    0.76      33.6  T
   9    -52.1564714 -0.221568E-08  0.307E-04    0.76      55.9  T
     SCC iter.                  ...        0 min,  0.033 sec
     gradient                   ...        0 min,  0.004 sec
 * total energy  :   -51.3798645 Eh     change       -0.1351876E-03 Eh
   gradient norm :     0.0125595 Eh/α   predicted    -0.2134589E-03 (  57.90%)
   displ. norm   :     0.1503863 α      lambda       -0.2887807E-03
   maximum displ.:     0.0892317 α      in ANC's #7, #5, #6, ...

........................................................................
.............................. CYCLE   11 ..............................
........................................................................
   1    -52.1542120 -0.521542E+02  0.571E-02    0.75       0.0  T
   2    -52.1542211 -0.907295E-05  0.323E-02    0.75       1.0  T
   3    -52.1542220 -0.898946E-06  0.126E-02    0.76       1.4  T
   4    -52.1542227 -0.730864E-06  0.846E-03    0.75       2.0  T
   5    -52.1542238 -0.106838E-05  0.573E-03    0.75       3.0  T
   6    -52.1542242 -0.365571E-06  0.385E-03    0.75       4.5  T
   7    -52.1542244 -0.255826E-06  0.188E-03    0.75       9.1  T
   8    -52.1542245 -0.741696E-07  0.910E-04    0.75      18.8  T
   9    -52.1542245 -0.163539E-07  0.398E-04    0.75      43.1  T
     SCC iter.                  ...        0 min,  0.033 sec
     gradient                   ...        0 min,  0.004 sec
 * total energy  :   -51.3800592 Eh     change       -0.1946931E-03 Eh
   gradient norm :     0.0073189 Eh/α   predicted    -0.1476571E-03 ( -24.16%)
   displ. norm   :     0.2232644 α      lambda       -0.2917891E-03
   maximum displ.:     0.1214908 α      in ANC's #7, #5, #6, ...

........................................................................
.............................. CYCLE   12 ..............................
........................................................................
   1    -52.1516815 -0.521517E+02  0.680E-02    0.74       0.0  T
   2    -52.1516831 -0.156754E-05  0.400E-02    0.75       1.0  T
   3    -52.1516808  0.226969E-05  0.103E-02    0.74       1.7  T
   4    -52.1516838 -0.294569E-05  0.335E-03    0.75       5.1  T
   5    -52.1516839 -0.874500E-07  0.249E-03    0.75       6.9  T
   6    -52.1516839 -0.397404E-07  0.169E-03    0.75      10.2  T
   7    -52.1516839 -0.324110E-07  0.768E-04    0.75      22.3  T
   8    -52.1516839 -0.874024E-08  0.348E-04    0.75      49.3  T
     SCC iter.                  ...        0 min,  0.030 sec
     gradient                   ...        0 min,  0.005 sec
 * total energy  :   -51.3802813 Eh     change       -0.2221259E-03 Eh
   gradient norm :     0.0040974 Eh/α   predicted    -0.1531694E-03 ( -31.04%)
   displ. norm   :     0.4224286 α      lambda       -0.3836636E-03
   maximum displ.:     0.2200440 α      in ANC's #7, #5, #2, ...

........................................................................
.............................. CYCLE   13 ..............................
........................................................................
   1    -52.1494886 -0.521495E+02  0.125E-01    0.74       0.0  T
   2    -52.1494942 -0.558629E-05  0.729E-02    0.74       1.0  T
   3    -52.1494938  0.345324E-06  0.120E-02    0.74       1.4  T
   4    -52.1494958 -0.195553E-05  0.744E-03    0.74       2.3  T
   5    -52.1494963 -0.579885E-06  0.497E-03    0.74       3.5  T
   6    -52.1494965 -0.167842E-06  0.338E-03    0.74       5.1  T
   7    -52.1494966 -0.114125E-06  0.150E-03    0.74      11.4  T
   8    -52.1494967 -0.407218E-07  0.618E-04    0.74      27.8  T
   9    -52.1494967 -0.397716E-08  0.300E-04    0.74      57.1  T
     SCC iter.                  ...        0 min,  0.038 sec
     gradient                   ...        0 min,  0.004 sec
 * total energy  :   -51.3805745 Eh     change       -0.2931091E-03 Eh
   gradient norm :     0.0073111 Eh/α   predicted    -0.2260654E-03 ( -22.87%)
   displ. norm   :     0.4497944 α      lambda       -0.3611853E-03
   maximum displ.:     0.2135842 α      in ANC's #7, #2, #5, ...

........................................................................
.............................. CYCLE   14 ..............................
........................................................................
   1    -52.1492492 -0.521492E+02  0.133E-01    0.74       0.0  T
   2    -52.1492583 -0.914506E-05  0.773E-02    0.74       1.0  T
   3    -52.1492582  0.938634E-07  0.138E-02    0.74       1.2  T
   4    -52.1492601 -0.188609E-05  0.924E-03    0.74       1.9  T
   5    -52.1492613 -0.118210E-05  0.581E-03    0.74       3.0  T
   6    -52.1492616 -0.246956E-06  0.408E-03    0.74       4.2  T
   7    -52.1492617 -0.187778E-06  0.184E-03    0.74       9.3  T
   8    -52.1492618 -0.600020E-07  0.893E-04    0.74      19.2  T
   9    -52.1492618 -0.124407E-07  0.507E-04    0.74      33.9  T
     SCC iter.                  ...        0 min,  0.033 sec
     gradient                   ...        0 min,  0.004 sec
 * total energy  :   -51.3808534 Eh     change       -0.2789716E-03 Eh
   gradient norm :     0.0090498 Eh/α   predicted    -0.2171430E-03 ( -22.16%)
   displ. norm   :     0.4348002 α      lambda       -0.3768254E-03
   maximum displ.:     0.2047223 α      in ANC's #2, #7, #6, ...

........................................................................
.............................. CYCLE   15 ..............................
........................................................................
   1    -52.1514271 -0.521514E+02  0.127E-01    0.75       0.0  T
   2    -52.1514375 -0.104155E-04  0.731E-02    0.75       1.0  T
   3    -52.1514343  0.316174E-05  0.170E-02    0.75       1.0  T
   4    -52.1514386 -0.426241E-05  0.936E-03    0.75       1.8  T
   5    -52.1514402 -0.161412E-05  0.438E-03    0.75       3.9  T
   6    -52.1514403 -0.117902E-06  0.336E-03    0.75       5.1  T
   7    -52.1514404 -0.917937E-07  0.192E-03    0.75       9.0  T
   8    -52.1514405 -0.687406E-07  0.746E-04    0.75      23.0  T
   9    -52.1514405 -0.634540E-08  0.400E-04    0.75      42.8  T
     SCC iter.                  ...        0 min,  0.033 sec
     gradient                   ...        0 min,  0.004 sec
 * total energy  :   -51.3811479 Eh     change       -0.2944889E-03 Eh
   gradient norm :     0.0076073 Eh/α   predicted    -0.2240360E-03 ( -23.92%)
   displ. norm   :     0.4180824 α      lambda       -0.3326333E-03
   maximum displ.:     0.1998948 α      in ANC's #2, #6, #7, ...

........................................................................
.............................. CYCLE   16 ..............................
........................................................................
   1    -52.1541404 -0.521541E+02  0.123E-01    0.76       0.0  T
   2    -52.1541497 -0.927312E-05  0.700E-02    0.76       1.0  T
   3    -52.1541468  0.282229E-05  0.161E-02    0.77       1.1  T
   4    -52.1541505 -0.369827E-05  0.842E-03    0.76       2.0  T
   5    -52.1541519 -0.131841E-05  0.323E-03    0.76       5.3  T
   6    -52.1541519 -0.672493E-07  0.248E-03    0.76       6.9  T
   7    -52.1541520 -0.385701E-07  0.154E-03    0.76      11.1  T
   8    -52.1541520 -0.402903E-07  0.544E-04    0.76      31.5  T
   9    -52.1541520 -0.213075E-08  0.259E-04    0.76      66.2  T
     SCC iter.                  ...        0 min,  0.033 sec
     gradient                   ...        0 min,  0.004 sec
 * total energy  :   -51.3813927 Eh     change       -0.2448092E-03 Eh
   gradient norm :     0.0045023 Eh/α   predicted    -0.1953896E-03 ( -20.19%)
   displ. norm   :     0.4220517 α      lambda       -0.2029258E-03
   maximum displ.:     0.2252446 α      in ANC's #2, #6, #1, ...

........................................................................
.............................. CYCLE   17 ..............................
........................................................................
   1    -52.1545297 -0.521545E+02  0.124E-01    0.77       0.0  T
   2    -52.1545356 -0.581048E-05  0.720E-02    0.77       1.0  T
   3    -52.1545360 -0.450079E-06  0.115E-02    0.77       1.5  T
   4    -52.1545370 -0.102482E-05  0.772E-03    0.77       2.2  T
   5    -52.1545378 -0.745516E-06  0.479E-03    0.77       3.6  T
   6    -52.1545379 -0.149888E-06  0.348E-03    0.77       4.9  T
   7    -52.1545381 -0.142484E-06  0.137E-03    0.77      12.5  T
   8    -52.1545381 -0.358421E-07  0.645E-04    0.77      26.6  T
   9    -52.1545381 -0.362274E-08  0.361E-04    0.77      47.5  T
     SCC iter.                  ...        0 min,  0.033 sec
     gradient                   ...        0 min,  0.004 sec
 * total energy  :   -51.3815442 Eh     change       -0.1514849E-03 Eh
   gradient norm :     0.0047213 Eh/α   predicted    -0.1195391E-03 ( -21.09%)
   displ. norm   :     0.3496602 α      lambda       -0.2004308E-03
   maximum displ.:     0.1975796 α      in ANC's #2, #6, #1, ...

........................................................................
.............................. CYCLE   18 ..............................
........................................................................
   1    -52.1581216 -0.521581E+02  0.993E-02    0.77       0.0  T
   2    -52.1581250 -0.335998E-05  0.581E-02    0.77       1.0  T
   3    -52.1581250 -0.453633E-07  0.929E-03    0.77       1.8  T
   4    -52.1581261 -0.103887E-05  0.580E-03    0.77       3.0  T
   5    -52.1581264 -0.371242E-06  0.382E-03    0.77       4.5  T
   6    -52.1581265 -0.873699E-07  0.278E-03    0.77       6.2  T
   7    -52.1581266 -0.972998E-07  0.988E-04    0.77      17.4  T
   8    -52.1581266 -0.126181E-07  0.411E-04    0.77      41.8  T
     SCC iter.                  ...        0 min,  0.030 sec
     gradient                   ...        0 min,  0.004 sec
 * total energy  :   -51.3816764 Eh     change       -0.1321691E-03 Eh
   gradient norm :     0.0051868 Eh/α   predicted    -0.1124695E-03 ( -14.90%)
   displ. norm   :     0.5044704 α      lambda       -0.2004134E-03
   maximum displ.:     0.2729533 α      in ANC's #2, #6, #1, ...

........................................................................
.............................. CYCLE   19 ..............................
........................................................................
   1    -52.1534270 -0.521534E+02  0.157E-01    0.77       0.0  T
   2    -52.1534424 -0.154033E-04  0.894E-02    0.77       1.0  T
   3    -52.1534379  0.444671E-05  0.207E-02    0.78       1.0  T
   4    -52.1534441 -0.615853E-05  0.119E-02    0.77       1.4  T
   5    -52.1534469 -0.287741E-05  0.593E-03    0.77       2.9  T
   6    -52.1534472 -0.214835E-06  0.452E-03    0.77       3.8  T
   7    -52.1534473 -0.183932E-06  0.228E-03    0.77       7.5  T
   8    -52.1534474 -0.938716E-07  0.827E-04    0.77      20.7  T
   9    -52.1534474 -0.542532E-08  0.444E-04    0.77      38.6  T
     SCC iter.                  ...        0 min,  0.033 sec
     gradient                   ...        0 min,  0.004 sec
 * total energy  :   -51.3817858 Eh     change       -0.1094011E-03 Eh
   gradient norm :     0.0061093 Eh/α   predicted    -0.1257099E-03 (  14.91%)
   displ. norm   :     0.2135762 α      lambda       -0.2001759E-03
   maximum displ.:     0.1073593 α      in ANC's #2, #5, #1, ...

........................................................................
.............................. CYCLE   20 ..............................
........................................................................
   1    -52.1551579 -0.521552E+02  0.498E-02    0.77       0.0  T
   2    -52.1551597 -0.178619E-05  0.289E-02    0.77       1.0  T
   3    -52.1551580  0.173523E-05  0.932E-03    0.77       1.8  T
   4    -52.1551604 -0.237340E-05  0.434E-03    0.77       3.9  T
   5    -52.1551606 -0.261323E-06  0.269E-03    0.77       6.4  T
   6    -52.1551607 -0.455614E-07  0.201E-03    0.77       8.6  T
   7    -52.1551607 -0.390386E-07  0.909E-04    0.77      18.9  T
   8    -52.1551607 -0.146217E-07  0.272E-04    0.77      63.0  T
     SCC iter.                  ...        0 min,  0.030 sec
     gradient                   ...        0 min,  0.005 sec
 * total energy  :   -51.3819422 Eh     change       -0.1564002E-03 Eh
   gradient norm :     0.0044819 Eh/α   predicted    -0.1046578E-03 ( -33.08%)
   displ. norm   :     0.3699694 α      lambda       -0.2306603E-03
   maximum displ.:     0.1875982 α      in ANC's #2, #5, #6, ...
 * RMSD in coord.:     0.8135096 α      energy gain  -0.3686258E-01 Eh

generating ANC from model Hessian ...
Using Lindh-Hessian (1995)
 Shifting diagonal of input Hessian by    1.0097772586592151E-002
 Lowest  eigenvalues of input Hessian
    0.010000    0.000000    0.000000    0.000000    0.000000    0.000000
    0.000000    0.010319    0.010594    0.011186    0.011590    0.011769
    0.012303    0.013470    0.015066    0.018220    0.020887    0.022112
 Highest eigenvalues
    1.904401    1.928611    1.996038    2.030242    2.079320    2.161002


........................................................................
.............................. CYCLE   21 ..............................
........................................................................
   1    -52.1556164 -0.521556E+02  0.856E-02    0.76       0.0  T
   2    -52.1556215 -0.510663E-05  0.495E-02    0.76       1.0  T
   3    -52.1556181  0.344182E-05  0.141E-02    0.77       1.2  T
   4    -52.1556228 -0.468473E-05  0.675E-03    0.76       2.5  T
   5    -52.1556235 -0.695679E-06  0.390E-03    0.76       4.4  T
   6    -52.1556236 -0.964352E-07  0.300E-03    0.76       5.7  T
   7    -52.1556237 -0.952021E-07  0.152E-03    0.76      11.3  T
   8    -52.1556237 -0.363560E-07  0.589E-04    0.76      29.1  T
   9    -52.1556237 -0.446476E-08  0.348E-04    0.76      49.2  T
     SCC iter.                  ...        0 min,  0.066 sec
     gradient                   ...        0 min,  0.007 sec
 * total energy  :   -51.3820941 Eh     change       -0.1519300E-03 Eh
   gradient norm :     0.0044422 Eh/α   predicted     0.0000000E+00 (-100.00%)
   displ. norm   :     0.0548583 α      lambda       -0.1021656E-03
   maximum displ.:     0.0276940 α      in ANC's #23, #4, #7, ...

........................................................................
.............................. CYCLE   22 ..............................
........................................................................
   1    -52.1557667 -0.521558E+02  0.236E-02    0.76       0.0  T
   2    -52.1557681 -0.144624E-05  0.119E-02    0.76       1.4  T
   3    -52.1557681  0.699490E-07  0.632E-03    0.76       2.7  T
   4    -52.1557685 -0.425117E-06  0.337E-03    0.76       5.1  T
   5    -52.1557686 -0.125126E-06  0.191E-03    0.76       9.0  T
   6    -52.1557686 -0.242289E-07  0.141E-03    0.76      12.2  T
   7    -52.1557686 -0.149806E-07  0.771E-04    0.76      22.2  T
   8    -52.1557687 -0.107377E-07  0.194E-04    0.76      88.2  T
     SCC iter.                  ...        0 min,  0.041 sec
     gradient                   ...        0 min,  0.005 sec
 * total energy  :   -51.3821644 Eh     change       -0.7032939E-04 Eh
   gradient norm :     0.0018868 Eh/α   predicted    -0.5129769E-04 ( -27.06%)
   displ. norm   :     0.1822266 α      lambda       -0.1167416E-03
   maximum displ.:     0.1156419 α      in ANC's #1, #2, #23, ...

........................................................................
.............................. CYCLE   23 ..............................
........................................................................
   1    -52.1555579 -0.521556E+02  0.809E-02    0.76       0.0  T
   2    -52.1555759 -0.179663E-04  0.398E-02    0.75       1.0  T
   3    -52.1555738  0.205716E-05  0.216E-02    0.76       1.0  T
   4    -52.1555801 -0.632697E-05  0.105E-02    0.76       1.6  T
   5    -52.1555815 -0.139601E-05  0.536E-03    0.76       3.2  T
   6    -52.1555817 -0.184338E-06  0.398E-03    0.76       4.3  T
   7    -52.1555818 -0.104710E-06  0.245E-03    0.76       7.0  T
   8    -52.1555819 -0.971077E-07  0.432E-04    0.76      39.7  T
   9    -52.1555819 -0.286418E-08  0.212E-04    0.76      80.8  T
     SCC iter.                  ...        0 min,  0.034 sec
     gradient                   ...        0 min,  0.005 sec
 * total energy  :   -51.3822272 Eh     change       -0.6274691E-04 Eh
   gradient norm :     0.0044328 Eh/α   predicted    -0.5923284E-04 (  -5.60%)
   displ. norm   :     0.0368166 α      lambda       -0.3958407E-04
   maximum displ.:     0.0213282 α      in ANC's #4, #1, #2, ...

........................................................................
.............................. CYCLE   24 ..............................
........................................................................
   1    -52.1555115 -0.521555E+02  0.161E-02    0.76       0.0  T
   2    -52.1555123 -0.881066E-06  0.735E-03    0.75       2.3  T
   3    -52.1555123  0.409765E-07  0.418E-03    0.76       4.1  T
   4    -52.1555125 -0.236103E-06  0.216E-03    0.75       7.9  T
   5    -52.1555126 -0.575193E-07  0.108E-03    0.75      15.9  T
   6    -52.1555126 -0.750922E-08  0.767E-04    0.75      22.4  T
   7    -52.1555126 -0.313313E-08  0.482E-04    0.75      35.6  T
     SCC iter.                  ...        0 min,  0.027 sec
     gradient                   ...        0 min,  0.005 sec
 * total energy  :   -51.3822570 Eh     change       -0.2979413E-04 Eh
   gradient norm :     0.0023531 Eh/α   predicted    -0.1984795E-04 ( -33.38%)
   displ. norm   :     0.0767648 α      lambda       -0.4028379E-04
   maximum displ.:     0.0434957 α      in ANC's #4, #1, #2, ...

........................................................................
.............................. CYCLE   25 ..............................
........................................................................
   1    -52.1553923 -0.521554E+02  0.307E-02    0.75       0.0  T
   2    -52.1553963 -0.398582E-05  0.119E-02    0.75       1.4  T
   3    -52.1553963 -0.759354E-08  0.678E-03    0.75       2.5  T
   4    -52.1553971 -0.806146E-06  0.311E-03    0.75       5.5  T
   5    -52.1553972 -0.105879E-06  0.124E-03    0.75      13.8  T
   6    -52.1553972 -0.983260E-08  0.776E-04    0.75      22.1  T
   7    -52.1553972 -0.345308E-08  0.614E-04    0.75      27.9  T
     SCC iter.                  ...        0 min,  0.026 sec
     gradient                   ...        0 min,  0.005 sec
 * total energy  :   -51.3822838 Eh     change       -0.2681917E-04 Eh
   gradient norm :     0.0010511 Eh/α   predicted    -0.2026191E-04 ( -24.45%)
   displ. norm   :     0.1357181 α      lambda       -0.2289802E-04
   maximum displ.:     0.0790082 α      in ANC's #4, #1, #2, ...

........................................................................
.............................. CYCLE   26 ..............................
........................................................................
   1    -52.1551509 -0.521552E+02  0.523E-02    0.75       0.0  T
   2    -52.1551632 -0.122983E-04  0.191E-02    0.74       1.0  T
   3    -52.1551634 -0.231292E-06  0.110E-02    0.75       1.6  T
   4    -52.1551657 -0.222877E-05  0.503E-03    0.74       3.4  T
   5    -52.1551659 -0.250830E-06  0.220E-03    0.74       7.8  T
   6    -52.1551660 -0.304291E-07  0.141E-03    0.74      12.1  T
   7    -52.1551660 -0.114713E-07  0.110E-03    0.74      15.6  T
   8    -52.1551660 -0.167920E-07  0.338E-04    0.74      50.7  T
   9    -52.1551660 -0.108767E-08  0.181E-04    0.74      94.6  T
     SCC iter.                  ...        0 min,  0.033 sec
     gradient                   ...        0 min,  0.005 sec
 * total energy  :   -51.3823085 Eh     change       -0.2473017E-04 Eh
   gradient norm :     0.0026157 Eh/α   predicted    -0.1156616E-04 ( -53.23%)
   displ. norm   :     0.1142763 α      lambda       -0.2876412E-04
   maximum displ.:     0.0684179 α      in ANC's #4, #1, #2, ...

........................................................................
.............................. CYCLE   27 ..............................
........................................................................
   1    -52.1550351 -0.521550E+02  0.438E-02    0.74       0.0  T
   2    -52.1550436 -0.846946E-05  0.161E-02    0.74       1.1  T
   3    -52.1550437 -0.147826E-06  0.927E-03    0.74       1.8  T
   4    -52.1550453 -0.154559E-05  0.433E-03    0.74       4.0  T
   5    -52.1550455 -0.181002E-06  0.193E-03    0.74       8.9  T
   6    -52.1550455 -0.239780E-07  0.128E-03    0.74      13.4  T
   7    -52.1550455 -0.915679E-08  0.972E-04    0.74      17.7  T
   8    -52.1550455 -0.127576E-07  0.276E-04    0.74      62.2  T
     SCC iter.                  ...        0 min,  0.030 sec
     gradient                   ...        0 min,  0.005 sec
 * total energy  :   -51.3823336 Eh     change       -0.2508799E-04 Eh
   gradient norm :     0.0023277 Eh/α   predicted    -0.1457402E-04 ( -41.91%)
   displ. norm   :     0.2144742 α      lambda       -0.4904576E-04
   maximum displ.:     0.1300604 α      in ANC's #4, #1, #2, ...

........................................................................
.............................. CYCLE   28 ..............................
........................................................................
   1    -52.1547172 -0.521547E+02  0.818E-02    0.74       0.0  T
   2    -52.1547462 -0.289625E-04  0.299E-02    0.73       1.0  T
   3    -52.1547467 -0.471002E-06  0.167E-02    0.73       1.0  T
   4    -52.1547516 -0.492676E-05  0.801E-03    0.73       2.1  T
   5    -52.1547522 -0.625775E-06  0.344E-03    0.73       5.0  T
   6    -52.1547523 -0.751832E-07  0.230E-03    0.73       7.4  T
   7    -52.1547523 -0.297034E-07  0.174E-03    0.73       9.9  T
   8    -52.1547524 -0.396768E-07  0.515E-04    0.73      33.3  T
   9    -52.1547524 -0.229653E-08  0.262E-04    0.73      65.5  T
     SCC iter.                  ...        0 min,  0.033 sec
     gradient                   ...        0 min,  0.005 sec
 * total energy  :   -51.3823697 Eh     change       -0.3612695E-04 Eh
   gradient norm :     0.0016877 Eh/α   predicted    -0.2565124E-04 ( -29.00%)
   displ. norm   :     0.2763289 α      lambda       -0.2588534E-04
   maximum displ.:     0.1666427 α      in ANC's #4, #1, #2, ...

........................................................................
.............................. CYCLE   29 ..............................
........................................................................
   1    -52.1543080 -0.521543E+02  0.102E-01    0.73       0.0  T
   2    -52.1543510 -0.429798E-04  0.369E-02    0.72       1.0  T
   3    -52.1543516 -0.616492E-06  0.198E-02    0.73       1.0  T
   4    -52.1543583 -0.672548E-05  0.991E-03    0.72       1.7  T
   5    -52.1543593 -0.962841E-06  0.407E-03    0.72       4.2  T
   6    -52.1543594 -0.104184E-06  0.278E-03    0.72       6.2  T
   7    -52.1543595 -0.437299E-07  0.209E-03    0.72       8.2  T
   8    -52.1543595 -0.567309E-07  0.637E-04    0.72      26.9  T
   9    -52.1543595 -0.336091E-08  0.328E-04    0.72      52.3  T
     SCC iter.                  ...        0 min,  0.033 sec
     gradient                   ...        0 min,  0.005 sec
 * total energy  :   -51.3823902 Eh     change       -0.2045351E-04 Eh
   gradient norm :     0.0019564 Eh/α   predicted    -0.1338378E-04 ( -34.56%)
   displ. norm   :     0.0382065 α      lambda       -0.7952050E-05
   maximum displ.:     0.0174770 α      in ANC's #1, #4, #2, ...

........................................................................
.............................. CYCLE   30 ..............................
........................................................................
   1    -52.1552000 -0.521552E+02  0.102E-02    0.72       0.0  T
   2    -52.1552001 -0.122682E-06  0.604E-03    0.72       2.8  T
   3    -52.1552000  0.833970E-07  0.226E-03    0.72       7.6  T
   4    -52.1552001 -0.117423E-06  0.762E-04    0.72      22.5  T
   5    -52.1552001 -0.515772E-08  0.447E-04    0.72      38.4  T
     SCC iter.                  ...        0 min,  0.019 sec
     gradient                   ...        0 min,  0.005 sec
 * total energy  :   -51.3823978 Eh     change       -0.7565107E-05 Eh
   gradient norm :     0.0006145 Eh/α   predicted    -0.3987991E-05 ( -47.28%)
   displ. norm   :     0.0390019 α      lambda        0.1573438E-05
   maximum displ.:     0.0179269 α      in ANC's #1, #4, #2, ...

........................................................................
.............................. CYCLE   31 ..............................
........................................................................
   1    -52.1560222 -0.521560E+02  0.104E-02    0.72       0.0  T
   2    -52.1560224 -0.131829E-06  0.620E-03    0.72       2.8  T
   3    -52.1560223  0.809294E-07  0.237E-03    0.72       7.2  T
   4    -52.1560224 -0.123548E-06  0.914E-04    0.72      18.8  T
   5    -52.1560224 -0.682333E-08  0.609E-04    0.72      28.2  T
     SCC iter.                  ...        0 min,  0.019 sec
     gradient                   ...        0 min,  0.005 sec
 * total energy  :   -51.3823967 Eh     change        0.1055108E-05 Eh
   gradient norm :     0.0022286 Eh/α   predicted     0.7866924E-06 ( -25.44%)
   displ. norm   :     0.0279090 α      lambda       -0.5767069E-05
   maximum displ.:     0.0184066 α      in ANC's #1, #2, #4, ...

........................................................................
.............................. CYCLE   32 ..............................
........................................................................
   1    -52.1555315 -0.521555E+02  0.103E-02    0.72       0.0  T
   2    -52.1555319 -0.452603E-06  0.448E-03    0.72       3.8  T
   3    -52.1555319 -0.881278E-08  0.250E-03    0.72       6.9  T
   4    -52.1555320 -0.685313E-07  0.143E-03    0.72      12.0  T
   5    -52.1555320 -0.255531E-07  0.707E-04    0.72      24.3  T
   6    -52.1555320 -0.322171E-08  0.501E-04    0.72      34.2  T
     SCC iter.                  ...        0 min,  0.023 sec
     gradient                   ...        0 min,  0.005 sec
 * total energy  :   -51.3824010 Eh     change       -0.4286488E-05 Eh
   gradient norm :     0.0011494 Eh/α   predicted    -0.2889723E-05 ( -32.59%)
   displ. norm   :     0.0355895 α      lambda       -0.4024187E-05
   maximum displ.:     0.0198483 α      in ANC's #2, #1, #9, ...

........................................................................
.............................. CYCLE   33 ..............................
........................................................................
   1    -52.1548043 -0.521548E+02  0.112E-02    0.72       0.0  T
   2    -52.1548044 -0.121793E-06  0.667E-03    0.72       2.6  T
   3    -52.1548043  0.352047E-07  0.185E-03    0.72       9.3  T
   4    -52.1548044 -0.634745E-07  0.995E-04    0.72      17.2  T
   5    -52.1548044 -0.135440E-07  0.693E-04    0.72      24.8  T
     SCC iter.                  ...        0 min,  0.019 sec
     gradient                   ...        0 min,  0.005 sec
 * total energy  :   -51.3824040 Eh     change       -0.2998277E-05 Eh
   gradient norm :     0.0006987 Eh/α   predicted    -0.2014576E-05 ( -32.81%)
   displ. norm   :     0.0198779 α      lambda       -0.1501549E-05
   maximum displ.:     0.0111049 α      in ANC's #9, #7, #2, ...

   *** GEOMETRY OPTIMIZATION CONVERGED AFTER 33 ITERATIONS ***

------------------------------------------------------------------------
 total energy gain   :        -0.0373244 Eh      -23.4214 kcal/mol
 total RMSD          :         0.8891918 a0        0.4705 Å
 total power (kW/mol):        -2.9695509 (step)  -67.9441 (real)
------------------------------------------------------------------------

 ANCopt (total)                0 d,  0 h,  0 min,  1.442 sec
 optimizer setup                ...        0 min,  0.000 sec (  0.007%)
 model hessian                  ...        0 min,  0.034 sec (  2.356%)
 ANC generation                 ...        0 min,  0.020 sec (  1.372%)
 coordinate transformation      ...        0 min,  0.002 sec (  0.148%)
 single point calculation       ...        0 min,  1.363 sec ( 94.510%)
 optimization log               ...        0 min,  0.007 sec (  0.519%)
 hessian update                 ...        0 min,  0.001 sec (  0.098%)
 rational function              ...        0 min,  0.008 sec (  0.527%)

================
 final structure:
================
34
 xtb: 6.5.1 (fef0646)
N            2.67128126954001       -1.92606132157702        1.83523630002426
C            2.34226224991186       -2.46706523617808        0.51824200061460
C            2.93124948661643       -1.56626751963431       -0.57460113627943
C            4.43010755251537       -1.54394076721386       -0.49098157035234
C            5.18508493595837       -2.56574319964932       -1.06280815658769
C            6.55681019894845       -2.58290662059180       -0.94330137401921
C            5.08364839863605       -0.52620948243136        0.19995753005031
C            6.45793573410168       -0.52233223961518        0.31218955007013
C            7.21259514211931       -1.55953350421794       -0.24599841460579
N            8.58205727666446       -1.46685190673329       -0.12299668111160
N            9.24965031416976       -2.52586170084789       -0.33975437257102
C           10.62462989751884       -2.41891302792492       -0.24141067968509
C           11.29796740346398       -1.28058906592955        0.22051335718555
C           12.67328548479299       -1.28530842942373        0.31066590293916
C           13.39456382556844       -2.41269683418020       -0.05832529129834
C           12.73482857867248       -3.54279788377407       -0.51770165829205
C           11.35755952584940       -3.55246069077973       -0.60594130525591
Cl           1.76775834831553        0.84999712750973        2.03604315811662
H            2.25878536087023       -2.47925294595248        2.57789303408460
H            2.17970189088897       -0.46612714420770        1.93915466365818
H            3.67901930271327       -1.89496055428683        1.96224861057865
H            1.25396713712420       -2.48421643614931        0.42785900436582
H            2.71907424285115       -3.49185042756628        0.39011156158817
H            2.53456824858181       -0.56015592354358       -0.44388694417507
H            2.61431081840044       -1.94908305562705       -1.54564588354673
H            4.68446689307735       -3.35227238744179       -1.61084356295705
H            7.15170263093000       -3.36471390567733       -1.39078944816327
H            4.50260924200007        0.27062396484708        0.64038208317790
H            6.97051488377104        0.26394018547988        0.84441674843332
H           10.71590610066783       -0.41741687411619        0.50602469739801
H           13.19296580833229       -0.40884623896185        0.67039264446703
H           14.47218514814496       -2.41026491336978        0.01554947156656
H           13.29991582599347       -4.41809684866816       -0.80309301768892
H           10.82461084228831       -4.42147419156453       -0.96041082173008

 Bond Distances (Angstroems)
 ---------------------------
N1-C2=1.4613         N1-H19=1.0138        N1-H21=1.0162        C2-N1=1.4613         C2-C3=1.5338         C2-H22=1.0922        
C2-H23=1.0994        C3-C2=1.5338         C3-C4=1.5014         C3-H24=1.0894        C3-H25=1.0908        C4-C3=1.5014         
C4-C5=1.3932         C4-C7=1.3929         C5-C4=1.3932         C5-C6=1.3770         C5-H26=1.0815        C6-C5=1.3770         
C6-C9=1.4013         C6-H27=1.0795        C7-C4=1.3929         C7-C8=1.3789         C7-H28=1.0801        C8-C7=1.3789         
C8-C9=1.3989         C8-H29=1.0790        C9-C6=1.4013         C9-C8=1.3989         C9-N10=1.3781        N10-C9=1.3781        
N10-N11=1.2705       N11-N10=1.2705       N11-C12=1.3826       C12-N11=1.3826       C12-C13=1.4009       C12-C17=1.3982       
C13-C12=1.4009       C13-C14=1.3783       C13-H30=1.0795       C14-C13=1.3783       C14-C15=1.3883       C14-H31=1.0806       
C15-C14=1.3883       C15-C16=1.3869       C15-H32=1.0802       C16-C15=1.3869       C16-C17=1.3801       C16-H33=1.0802       
C17-C12=1.3982       C17-C16=1.3801       C17-H34=1.0793       Cl18-H20=1.3825      H19-N1=1.0138        H20-Cl18=1.3825      
H21-N1=1.0162        H22-C2=1.0922        H23-C2=1.0994        H24-C3=1.0894        H25-C3=1.0908        H26-C5=1.0815        
H27-C6=1.0795        H28-C7=1.0801        H29-C8=1.0790        H30-C13=1.0795       H31-C14=1.0806       H32-C15=1.0802       
H33-C16=1.0802       H34-C17=1.0793       
 C  H  Rav=1.0840 sigma=0.0064  Rmin=1.0790  Rmax=1.0994    13
 C  C  Rav=1.4079 sigma=0.0460  Rmin=1.3770  Rmax=1.5338    14
 N  H  Rav=1.0150 sigma=0.0012  Rmin=1.0138  Rmax=1.0162     2
 N  C  Rav=1.4073 sigma=0.0382  Rmin=1.3781  Rmax=1.4613     3
 N  N  Rav=1.2705 sigma=0.0000  Rmin=1.2705  Rmax=1.2705     1
 Cl H  Rav=1.3825 sigma=0.0000  Rmin=1.3825  Rmax=1.3825     1

 selected bond angles (degree)
 --------------------
H19-N1-C2=111.51               H21-N1-C2=110.32               H21-N1-H19=109.19              C3-C2-N1=109.77                
H22-C2-N1=107.74               H22-C2-C3=109.44               H23-C2-N1=111.90               H23-C2-C3=109.44               
H23-C2-H22=108.50              C4-C3-C2=110.63                H24-C3-C2=108.49               H24-C3-C4=110.07               
H25-C3-C2=108.46               H25-C3-C4=110.17               H25-C3-H24=108.97              C5-C4-C3=120.48                
C7-C4-C3=120.46                C7-C4-C5=119.03                C6-C5-C4=120.89                H26-C5-C4=119.38               
H26-C5-C6=119.74               C9-C6-C5=120.02                H27-C6-C5=121.47               H27-C6-C9=118.51               
C8-C7-C4=120.67                H28-C7-C4=119.27               H28-C7-C8=120.06               C9-C8-C7=120.21                
H29-C8-C7=121.04               H29-C8-C9=118.74               C8-C9-C6=119.18                N10-C9-C6=123.96               
N10-C9-C8=116.78               N11-N10-C9=116.80              

 selected dihedral angles (degree)
 ---------------------------------
C3-C2-N1-H19=177.44           C3-C2-N1-H21=298.95           H22-C2-N1-H19= 58.34          H22-C2-N1-H21=179.85          
H23-C2-N1-H19=299.15          H23-C2-N1-H21= 60.66          C4-C3-C2-N1= 63.01            C4-C3-C2-H22=181.07           
C4-C3-C2-H23=299.84           H24-C3-C2-N1=302.18           H24-C3-C2-H22= 60.24          H24-C3-C2-H23=179.01          
H25-C3-C2-N1=183.95           H25-C3-C2-H22=302.01          H25-C3-C2-H23= 60.78          C5-C4-C3-C2= 82.24            
C5-C4-C3-H24=202.12           C5-C4-C3-H25=322.32           C7-C4-C3-C2=264.51            C7-C4-C3-H24= 24.39           
C7-C4-C3-H25=144.59           C6-C5-C4-C3=182.72            C6-C5-C4-C7=  0.48            H26-C5-C4-C3=  2.98           
H26-C5-C4-C7=180.74           C9-C6-C5-C4=359.62            C9-C6-C5-H26=179.36           H27-C6-C5-C4=180.61           
H27-C6-C5-H26=  0.35          C8-C7-C4-C3=178.12            C8-C7-C4-C5=  0.36            H28-C7-C4-C3=357.44           
H28-C7-C4-C5=179.68           C9-C8-C7-C4=358.70            C9-C8-C7-H28=179.39           H29-C8-C7-C4=179.89           
H29-C8-C7-H28=  0.57          C8-C9-C6-C5=359.45            C8-C9-C6-H27=178.49           N10-C9-C6-C5=182.74           
N10-C9-C6-H27=  1.78          C6-C9-C8-C7=  1.39            C6-C9-C8-H29=180.23           N10-C9-C8-C7=178.33           
N10-C9-C8-H29=357.17          N11-N10-C9-C6=340.90          N11-N10-C9-C8=164.12          

 CMA Distance (Angstroems)
 ---------------------------
R(CMA):  6.8925
           -------------------------------------------------
          |                Final Singlepoint                |
           -------------------------------------------------

          ...................................................
          :                      SETUP                      :
          :.................................................:
          :  # basis functions                  94          :
          :  # atomic orbitals                  93          :
          :  # shells                           53          :
          :  # electrons                        94          :
          :  max. iterations                   250          :
          :  Hamiltonian                  GFN2-xTB          :
          :  restarted?                      false          :
          :  GBSA solvation                  false          :
          :  PC potential                    false          :
          :  electronic temp.          300.0000000     K    :
          :  accuracy                    1.0000000          :
          :  -> integral cutoff          0.2500000E+02      :
          :  -> integral neglect         0.1000000E-07      :
          :  -> SCF convergence          0.1000000E-05 Eh   :
          :  -> wf. convergence          0.1000000E-03 e    :
          :  Broyden damping             0.4000000          :
          ...................................................

 iter      E             dE          RMSdq      gap      omega  full diag
   1    -52.1548044 -0.521548E+02  0.445E-04    0.72       0.0  T
   2    -52.1548044 -0.914099E-09  0.367E-04    0.72      46.8  T
   3    -52.1548044 -0.554635E-09  0.300E-04    0.72      57.2  T

   *** convergence criteria satisfied after 3 iterations ***

         #    Occupation            Energy/Eh            Energy/eV
      -------------------------------------------------------------
         1        2.0000           -1.0186939             -27.7201
       ...           ...                  ...                  ...
        41        2.0000           -0.4142795             -11.2731
        42        2.0000           -0.4126326             -11.2283
        43        2.0000           -0.4016930             -10.9306
        44        2.0000           -0.3956905             -10.7673
        45        2.0000           -0.3955340             -10.7630
        46        2.0000           -0.3894501             -10.5975
        47        2.0000           -0.3338944              -9.0857 (HOMO)
        48        0.0000           -0.3074453              -8.3660 (LUMO)
        49                         -0.2306222              -6.2755
        50                         -0.2294452              -6.2435
        51                         -0.2215286              -6.0281
        52                         -0.1949118              -5.3038
       ...                                ...                  ...
        93                          0.6599074              17.9570
      -------------------------------------------------------------
                  HL-Gap            0.0264491 Eh            0.7197 eV
             Fermi-level           -0.3206698 Eh           -8.7259 eV

 SCC (total)                   0 d,  0 h,  0 min,  0.020 sec
 SCC setup                      ...        0 min,  0.000 sec (  0.652%)
 Dispersion                     ...        0 min,  0.000 sec (  1.611%)
 classical contributions        ...        0 min,  0.000 sec (  0.200%)
 integral evaluation            ...        0 min,  0.002 sec (  9.504%)
 iterations                     ...        0 min,  0.012 sec ( 61.847%)
 molecular gradient             ...        0 min,  0.005 sec ( 24.048%)
 printout                       ...        0 min,  0.000 sec (  1.444%)

         :::::::::::::::::::::::::::::::::::::::::::::::::::::
         ::                     SUMMARY                     ::
         :::::::::::::::::::::::::::::::::::::::::::::::::::::
         :: total energy             -51.382403997934 Eh    ::
         :: gradient norm              0.000696547946 Eh/a0 ::
         :: HOMO-LUMO gap              0.719717294978 eV    ::
         ::.................................................::
         :: SCC energy               -52.154804428951 Eh    ::
         :: -> isotropic ES            0.037297702701 Eh    ::
         :: -> anisotropic ES         -0.007702072706 Eh    ::
         :: -> anisotropic XC          0.038920207668 Eh    ::
         :: -> dispersion             -0.033003280697 Eh    ::
         :: repulsion energy           0.772635510110 Eh    ::
         :: add. restraining           0.000000000000 Eh    ::
         :: total charge              -0.000000000000 e     ::
         :::::::::::::::::::::::::::::::::::::::::::::::::::::

           -------------------------------------------------
          |                Property Printout                |
           -------------------------------------------------

    * Orbital Energies and Occupations

         #    Occupation            Energy/Eh            Energy/eV
      -------------------------------------------------------------
         1        2.0000           -1.0186939             -27.7201
       ...           ...                  ...                  ...
        35        2.0000           -0.4585952             -12.4790
        36        2.0000           -0.4394708             -11.9586
        37        2.0000           -0.4389410             -11.9442
        38        2.0000           -0.4272195             -11.6252
        39        2.0000           -0.4253916             -11.5755
        40        2.0000           -0.4214826             -11.4691
        41        2.0000           -0.4142795             -11.2731
        42        2.0000           -0.4126326             -11.2283
        43        2.0000           -0.4016930             -10.9306
        44        2.0000           -0.3956905             -10.7673
        45        2.0000           -0.3955340             -10.7630
        46        2.0000           -0.3894501             -10.5975
        47        2.0000           -0.3338944              -9.0857 (HOMO)
        48        0.0000           -0.3074453              -8.3660 (LUMO)
        49                         -0.2306222              -6.2755
        50                         -0.2294452              -6.2435
        51                         -0.2215286              -6.0281
        52                         -0.1949118              -5.3038
        53                         -0.0977552              -2.6601
        54                         -0.0870183              -2.3679
        55                         -0.0575375              -1.5657
        56                          0.0180807               0.4920
        57                          0.0657948               1.7904
        58                          0.0664593               1.8085
       ...                                ...                  ...
        93                          0.6599074              17.9570
      -------------------------------------------------------------
                  HL-Gap            0.0264491 Eh            0.7197 eV
             Fermi-level           -0.3206698 Eh           -8.7259 eV

     #   Z          covCN         q      C6AA      α(0)
     1   7 N        2.711    -0.301    27.750     7.824
     2   6 C        3.733     0.011    20.478     6.459
     3   6 C        3.809    -0.082    22.048     6.684
     4   6 C        2.971     0.015    27.675     8.629
     5   6 C        2.921    -0.040    28.984     8.829
     6   6 C        2.917    -0.036    28.896     8.815
     7   6 C        2.921    -0.044    29.102     8.847
     8   6 C        2.925    -0.036    28.885     8.814
     9   6 C        2.942     0.074    26.356     8.420
    10   7 N        1.945    -0.138    24.756     7.378
    11   7 N        1.945    -0.143    24.864     7.394
    12   6 C        2.942     0.077    26.279     8.408
    13   6 C        2.918    -0.033    28.813     8.802
    14   6 C        2.917    -0.028    28.698     8.785
    15   6 C        2.920    -0.025    28.617     8.772
    16   6 C        2.917    -0.029    28.718     8.788
    17   6 C        2.928    -0.033    28.812     8.803
    18  17 Cl       0.836    -0.495   115.502    16.441
    19   1 H        0.860     0.166     1.294     1.782
    20   1 H        0.916     0.333     0.620     1.231
    21   1 H        0.860     0.173     1.255     1.755
    22   1 H        0.924     0.054     2.270     2.356
    23   1 H        0.923     0.029     2.608     2.525
    24   1 H        0.925     0.073     2.052     2.240
    25   1 H        0.924     0.053     2.285     2.364
    26   1 H        0.925     0.033     2.548     2.496
    27   1 H        0.926     0.051     2.305     2.374
    28   1 H        0.926     0.056     2.252     2.347
    29   1 H        0.926     0.051     2.305     2.374
    30   1 H        0.926     0.054     2.265     2.353
    31   1 H        0.926     0.036     2.502     2.474
    32   1 H        0.926     0.037     2.493     2.469
    33   1 H        0.926     0.036     2.497     2.471
    34   1 H        0.926     0.050     2.326     2.385

 Mol. C6AA /au·bohr⁶  :      14870.987296
 Mol. C8AA /au·bohr⁸  :     376242.584793
 Mol. α(0) /au        :        192.888299


Wiberg/Mayer (AO) data.
largest (>0.10) Wiberg bond orders for each atom

 ---------------------------------------------------------------------------
     #   Z sym  total        # sym  WBO       # sym  WBO       # sym  WBO
 ---------------------------------------------------------------------------
     1   7 N    3.253 --     2 C    1.007    19 H    0.958    21 H    0.951
                            20 H    0.219
     2   6 C    3.972 --     1 N    1.007     3 C    0.987    22 H    0.974
                            23 H    0.972
     3   6 C    3.991 --     4 C    1.015     2 C    0.987    24 H    0.968
                            25 H    0.968
     4   6 C    3.970 --     7 C    1.392     5 C    1.389     3 C    1.015
     5   6 C    3.991 --     6 C    1.481     4 C    1.389    26 H    0.968
     6   6 C    3.983 --     5 C    1.481     9 C    1.323    27 H    0.966
     7   6 C    3.989 --     8 C    1.473     4 C    1.392    28 H    0.965
     8   6 C    3.976 --     7 C    1.473     9 C    1.334    29 H    0.968
     9   6 C    3.979 --     8 C    1.334     6 C    1.323    10 N    1.160
    10   7 N    3.058 --    11 N    1.660     9 C    1.160
    11   7 N    3.037 --    10 N    1.660    12 C    1.150
    12   6 C    3.980 --    17 C    1.341    13 C    1.331    11 N    1.150
    13   6 C    3.983 --    14 C    1.475    12 C    1.331    30 H    0.966
                            16 C    0.102
    14   6 C    3.992 --    13 C    1.475    15 C    1.417    31 H    0.970
    15   6 C    3.972 --    16 C    1.427    14 C    1.417    32 H    0.971
    16   6 C    3.992 --    17 C    1.465    15 C    1.427    33 H    0.970
                            13 C    0.102
    17   6 C    3.975 --    16 C    1.465    12 C    1.341    34 H    0.968
    18  17 Cl   0.759 --    20 H    0.665
    19   1 H    0.972 --     1 N    0.958
    20   1 H    0.889 --    18 Cl   0.665     1 N    0.219
    21   1 H    0.970 --     1 N    0.951
    22   1 H    0.996 --     2 C    0.974
    23   1 H    0.999 --     2 C    0.972
    24   1 H    0.994 --     3 C    0.968
    25   1 H    0.996 --     3 C    0.968
    26   1 H    0.999 --     5 C    0.968
    27   1 H    0.997 --     6 C    0.966
    28   1 H    0.996 --     7 C    0.965
    29   1 H    0.997 --     8 C    0.968
    30   1 H    0.997 --    13 C    0.966
    31   1 H    0.999 --    14 C    0.970
    32   1 H    0.999 --    15 C    0.971
    33   1 H    0.998 --    16 C    0.970
    34   1 H    0.998 --    17 C    0.968
 ---------------------------------------------------------------------------

Topologies differ in total number of bonds
Writing topology from bond orders to xtbtopo.mol

molecular dipole:
                 x           y           z       tot (Debye)
 q only:        0.517      -1.781      -0.277
   full:        0.504      -1.684      -0.129       4.479
molecular quadrupole (traceless):
                xx          xy          yy          xz          yz          zz
 q only:       11.297     -11.294      -1.690       2.695      -7.535      -9.607
  q+dip:       14.148     -12.843       1.538       3.660      -2.839     -15.686
   full:       11.525     -12.714      -0.262       3.135      -6.295     -11.262

           -------------------------------------------------
          |                Geometry Summary                 |
           -------------------------------------------------

      molecular mass/u    :      261.7504018
   center of mass at/Å    :        6.8856441      -1.6000837       0.2157188
  moments of inertia/u·Å² :        0.4752036E+03   0.4474476E+04   0.4771986E+04
rotational constants/cm⁻¹ :        0.3547454E-01   0.3767510E-02   0.3532624E-02

 * 31 selected distances

     #   Z          #   Z                                           value/Å
     1   7 N        2   6 C                                       1.4613053
     2   6 C        3   6 C                                       1.5338348 (max)
     4   6 C        5   6 C                                       1.3932182
     5   6 C        6   6 C                                       1.3770283
     4   6 C        7   6 C                                       1.3929429
     7   6 C        8   6 C                                       1.3788680
     6   6 C        9   6 C                                       1.4012773
     8   6 C        9   6 C                                       1.3988822
     9   6 C       10   7 N                                       1.3780951
    10   7 N       11   7 N                                       1.2704985
    12   6 C       13   6 C                                       1.4009065
    13   6 C       14   6 C                                       1.3782779
    14   6 C       15   6 C                                       1.3883090
    15   6 C       16   6 C                                       1.3868691
    12   6 C       17   6 C                                       1.3982128
    16   6 C       17   6 C                                       1.3801268
     1   7 N       19   1 H                                       1.0137618 (min)
     1   7 N       21   1 H                                       1.0161868
     2   6 C       22   1 H                                       1.0921766
     2   6 C       23   1 H                                       1.0993587
     3   6 C       24   1 H                                       1.0893590
     3   6 C       25   1 H                                       1.0908373
     5   6 C       26   1 H                                       1.0814757
     6   6 C       27   1 H                                       1.0795209
     7   6 C       28   1 H                                       1.0800574
     8   6 C       29   1 H                                       1.0789938
    13   6 C       30   1 H                                       1.0795270
    14   6 C       31   1 H                                       1.0805819
    15   6 C       32   1 H                                       1.0801534
    16   6 C       33   1 H                                       1.0802409
    17   6 C       34   1 H                                       1.0792903

 * 5 distinct bonds (by element types)

   Z      Z             #   av. dist./Å        max./Å        min./Å
   1 H    6 C          13     1.0839671     1.0993587     1.0789938
   6 C    6 C          13     1.4006734     1.5338348     1.3770283
   1 H    7 N           2     1.0149743     1.0161868     1.0137618
   6 C    7 N           2     1.4197002     1.4613053     1.3780951
   7 N    7 N           1     1.2704985     1.2704985     1.2704985


optimized geometry written to: xtbopt.xyz


           -------------------------------------------------
          | TOTAL ENERGY              -51.382403997934 Eh   |
          | GRADIENT NORM               0.000696547946 Eh/α |
          | HOMO-LUMO GAP               0.719717294978 eV   |
           -------------------------------------------------

------------------------------------------------------------------------
 * finished run on 2023/01/23 at 19:01:40.953     
------------------------------------------------------------------------
 total:
 * wall-time:     0 d,  0 h,  0 min,  1.623 sec
 *  cpu-time:     0 d,  0 h,  2 min, 58.408 sec
 * ratio c/w:   109.906 speedup
 SCF:
 * wall-time:     0 d,  0 h,  0 min,  0.121 sec
 *  cpu-time:     0 d,  0 h,  0 min, 15.217 sec
 * ratio c/w:   125.307 speedup
 ANC optimizer:
 * wall-time:     0 d,  0 h,  0 min,  1.464 sec
 *  cpu-time:     0 d,  0 h,  2 min, 38.339 sec
 * ratio c/w:   108.173 speedup

