34
 energy: -51.428840687687 gnorm: 0.000335580271 xtb: 6.5.1 (fef0646)
N            1.06142840169757        0.94556663015547       -2.42260304413055
C            2.53046688327651        1.07116689108363       -2.47962843884848
C            3.07877452876106        1.34359821539033       -1.07774810807806
C            4.57863231597878        1.30297666410041       -1.08460103842289
C            5.32458796121088        2.47654940072065       -1.16767940035505
C            6.70062721719498        2.43874970502100       -1.20320891672385
C            5.24546691151555        0.08102314667904       -1.03934402018147
C            6.62186740389305        0.02707855142748       -1.06905041912153
C            7.36955985834288        1.20788840398066       -1.15767633152747
N            8.74225600405664        1.05827675263991       -1.17381989008073
N            9.42971922470255        2.11917476631860       -1.34655046331709
C           10.80385084043055        1.96837977051872       -1.37855039654227
C           11.46429168220761        0.73457705430525       -1.45062330330691
C           12.84099016375832        0.69440183660759       -1.50928604809696
C           13.57700330408932        1.87162571330733       -1.49402622993095
C           12.93007865510125        3.09678245116598       -1.42495420089939
C           11.55204062962983        3.15078898271027       -1.37359829539325
Cl           0.34326929330299       -1.21174495532436       -0.37881004857956
H            0.66792772342701        0.70360329213860       -3.33453751138289
H            0.63513175855021        1.80999802434345       -2.07989774178983
H            0.79858033193740        0.18487819317204       -1.74332688231642
H            2.80767512769819        1.87989491957598       -3.15669232060414
H            2.94846096309206        0.13577360758660       -2.85003022763445
H            2.68965717166388        0.57450537041891       -0.40794295594468
H            2.74023931106252        2.31746854567421       -0.72597679536000
H            4.81900025237926        3.43008010994160       -1.19643349535576
H            7.28877731202918        3.34161998310833       -1.25931835228883
H            4.67280983176297       -0.83178717519618       -0.96556393456112
H            7.14679989240876       -0.91452538170913       -1.02976330484678
H           10.87205437852500       -0.16748947592851       -1.46723367371277
H           13.34823940230953       -0.25700951408936       -1.56800982206809
H           14.65456745556897        1.83256054542706       -1.53960647603609
H           13.50466647101313        4.01037416413379       -1.41498149132732
H           11.02926133747926        4.09262481047688       -1.31819642126445
