17
 energy: -20.582232303745 gnorm: 0.000962138725 xtb: 6.5.1 (fef0646)
N            0.92561117822818       -0.06060190946897        0.08671546840486
C            2.40763624502544       -0.06314099154193        0.07256477192759
C            2.93143303642715        0.12200464346353       -1.34880794465134
C            4.46255981667322        0.12473554365337       -1.35718929463257
C            4.97923391416854        0.30656711502329       -2.77274333025584
I            7.17588855400333        0.31974162874173       -2.85497626307705
H            0.57260218729765       -0.18693907501748        1.04250032155621
H            0.56209236935803       -0.82124314968612       -0.50002710061160
H            0.56652485422925        0.82917060139259       -0.28004951642369
H            2.76791759785596       -1.00917087794813        0.47652643851027
H            2.77317996899278        0.74400314798875        0.70728919920675
H            2.57918446901395        1.06748166267937       -1.76253424537505
H            2.58059494570885       -0.68720295941144       -1.99018028826179
H            4.83986531944572       -0.81556067898754       -0.95147231599033
H            4.83745611314291        0.93340462335964       -0.72738109256906
H            4.66543708660818        1.25610636625534       -3.19845646788173
H            4.66710234382085       -0.50575569049600       -3.42391833987564
