      -----------------------------------------------------------      
     |                   =====================                   |     
     |                           x T B                           |     
     |                   =====================                   |     
     |                         S. Grimme                         |     
     |          Mulliken Center for Theoretical Chemistry        |     
     |                    University of Bonn                     |     
      -----------------------------------------------------------      

   * xtb version 6.5.1 (fef0646) compiled by 'conda@b96dff2e9fd6' on 2023-01-04

   xtb is free software: you can redistribute it and/or modify it under
   the terms of the GNU Lesser General Public License as published by
   the Free Software Foundation, either version 3 of the License, or
   (at your option) any later version.
   
   xtb is distributed in the hope that it will be useful,
   but WITHOUT ANY WARRANTY; without even the implied warranty of
   MERCHANTABILITY or FITNESS FOR A PARTICULAR PURPOSE.  See the
   GNU Lesser General Public License for more details.
   
   Cite this work as:
   * C. Bannwarth, E. Caldeweyher, S. Ehlert, A. Hansen, P. Pracht,
     J. Seibert, S. Spicher, S. Grimme, WIREs Comput. Mol. Sci., 2020, 11,
     e01493. DOI: 10.1002/wcms.1493
   
   for GFN2-xTB:
   * C. Bannwarth, S. Ehlert and S. Grimme., J. Chem. Theory Comput., 2019,
     15, 1652-1671. DOI: 10.1021/acs.jctc.8b01176
   for GFN1-xTB:
   * S. Grimme, C. Bannwarth, P. Shushkov, J. Chem. Theory Comput., 2017,
     13, 1989-2009. DOI: 10.1021/acs.jctc.7b00118
   for GFN0-xTB:
   * P. Pracht, E. Caldeweyher, S. Ehlert, S. Grimme, ChemRxiv, 2019, preprint.
     DOI: 10.26434/chemrxiv.8326202.v1
   for GFN-FF:
   * S. Spicher and S. Grimme, Angew. Chem. Int. Ed., 2020, 59, 15665-15673.
     DOI: 10.1002/anie.202004239
   
   for ALPB and GBSA implicit solvation:
   * S. Ehlert, M. Stahn, S. Spicher, S. Grimme, J. Chem. Theory Comput.,
     2021, 17, 4250-4261. DOI: 10.1021/acs.jctc.1c00471
   
   for DFT-D4:
   * E. Caldeweyher, C. Bannwarth and S. Grimme, J. Chem. Phys., 2017,
     147, 034112. DOI: 10.1063/1.4993215
   * E. Caldeweyher, S. Ehlert, A. Hansen, H. Neugebauer, S. Spicher,
     C. Bannwarth and S. Grimme, J. Chem. Phys., 2019, 150, 154122.
     DOI: 10.1063/1.5090222
   * E. Caldeweyher, J.-M. Mewes, S. Ehlert and S. Grimme, Phys. Chem. Chem. Phys.
     2020, 22, 8499-8512. DOI: 10.1039/D0CP00502A
   
   for sTDA-xTB:
   * S. Grimme and C. Bannwarth, J. Chem. Phys., 2016, 145, 054103.
     DOI: 10.1063/1.4959605
   
   in the mass-spec context:
   * V. Asgeirsson, C. Bauer and S. Grimme, Chem. Sci., 2017, 8, 4879.
     DOI: 10.1039/c7sc00601b
   * J. Koopman and S. Grimme, ACS Omega 2019, 4, 12, 15120-15133.
     DOI: 10.1021/acsomega.9b02011
   
   for metadynamics refer to:
   * S. Grimme, J. Chem. Theory Comput., 2019, 155, 2847-2862
     DOI: 10.1021/acs.jctc.9b00143
   
   for SPH calculations refer to:
   * S. Spicher and S. Grimme, J. Chem. Theory Comput., 2021, 17, 1701-1714
     DOI: 10.1021/acs.jctc.0c01306
   
   with help from (in alphabetical order)
   P. Atkinson, C. Bannwarth, F. Bohle, G. Brandenburg, E. Caldeweyher
   M. Checinski, S. Dohm, S. Ehlert, S. Ehrlich, I. Gerasimov, C. Hölzer
   A. Katbashev, J. Koopman, C. Lavigne, S. Lehtola, F. März, M. Müller,
   F. Musil, H. Neugebauer, J. Pisarek, C. Plett, P. Pracht, F. Pultar,
   J. Seibert, P. Shushkov, S. Spicher, M. Stahn, M. Steiner, T. Strunk,
   J. Stückrath, T. Rose, and J. Unsleber
   
 * started run on 2023/01/24 at 14:58:06.049     

           -------------------------------------------------
          |                Calculation Setup                |
           -------------------------------------------------

          program call               : xtb init.xyz --opt -c 1 -u 0 -P 16 --alpb water
          hostname                   : gpg-woodward
          coordinate file            : init.xyz
          omp threads                :                    16

   ID    Z sym.   atoms
    1    7 N      1
    2    6 C      2, 3, 5-20
    3    8 O      4
    4    1 H      21-36

           -------------------------------------------------
          |                 G F N 2 - x T B                 |
           -------------------------------------------------

        Reference                      10.1021/acs.jctc.8b01176
      * Hamiltonian:
        H0-scaling (s, p, d)           1.850000    2.230000    2.230000
        zeta-weighting                 0.500000
      * Dispersion:
        s8                             2.700000
        a1                             0.520000
        a2                             5.000000
        s9                             5.000000
      * Repulsion:
        kExp                           1.500000    1.000000
        rExp                           1.000000
      * Coulomb:
        alpha                          2.000000
        third order                    shell-resolved
        anisotropic                    true
        a3                             3.000000
        a5                             4.000000
        cn-shift                       1.200000
        cn-exp                         4.000000
        max-rad                        5.000000

      * Solvation model:               ALPB
        Solvent                        water
        Parameter file                 internal GFN2-xTB/ALPB
        Dielectric constant                8.0200E+01
        Reference state                gsolv [1 M gas/solution]
        Free energy shift                  1.0808E-03 Eh       6.7819E-01 kcal/mol
        Temperature                        2.9815E+02 K
        Density                            1.0000E+00 kg/L
        Solvent mass                       1.8000E+01 g/mol
        Interaction kernel             P16
        Born radius scaling (c1)           1.4744E+00
        Born radii integrator          GBOBC
        Born offset                        0.0000E+00 a0       0.0000E+00 AA
        H-bond correction              true
        Ion screening                  false
        Surface tension                    1.0000E-05 Eh       1.5569E+01 dyn/cm
        Grid points                               230 per atom

          ...................................................
          :                      SETUP                      :
          :.................................................:
          :  # basis functions                  96          :
          :  # atomic orbitals                  96          :
          :  # shells                           56          :
          :  # electrons                        98          :
          :  max. iterations                   250          :
          :  Hamiltonian                  GFN2-xTB          :
          :  restarted?                      false          :
          :  GBSA solvation                   true          :
          :  PC potential                    false          :
          :  electronic temp.          300.0000000     K    :
          :  accuracy                    1.0000000          :
          :  -> integral cutoff          0.2500000E+02      :
          :  -> integral neglect         0.1000000E-07      :
          :  -> SCF convergence          0.1000000E-05 Eh   :
          :  -> wf. convergence          0.1000000E-03 e    :
          :  Broyden damping             0.4000000          :
          ...................................................

 iter      E             dE          RMSdq      gap      omega  full diag
   1    -54.1810013 -0.541810E+02  0.412E+00    2.07       0.0  T
   2    -54.2657229 -0.847215E-01  0.235E+00    2.06       1.0  T
   3    -54.2619832  0.373968E-02  0.110E+00    2.08       1.0  T
   4    -54.2677845 -0.580132E-02  0.557E-01    2.06       1.0  T
   5    -54.2736459 -0.586140E-02  0.151E-01    2.06       1.0  T
   6    -54.2742015 -0.555575E-03  0.671E-02    2.06       1.0  T
   7    -54.2742227 -0.212406E-04  0.298E-02    2.06       1.0  T
   8    -54.2742322 -0.944942E-05  0.118E-02    2.06       1.4  T
   9    -54.2742332 -0.106053E-05  0.720E-03    2.06       2.3  T
  10    -54.2742337 -0.413967E-06  0.233E-03    2.06       7.2  T
  11    -54.2742337 -0.562978E-07  0.114E-03    2.06      14.6  T
  12    -54.2742337 -0.203726E-07  0.493E-04    2.06      33.8  T
  13    -54.2742337 -0.205264E-08  0.229E-04    2.06      72.7  T

   *** convergence criteria satisfied after 13 iterations ***

         #    Occupation            Energy/Eh            Energy/eV
      -------------------------------------------------------------
         1        2.0000           -0.7255580             -19.7434
       ...           ...                  ...                  ...
        43        2.0000           -0.4276220             -11.6362
        44        2.0000           -0.4108670             -11.1803
        45        2.0000           -0.4098448             -11.1524
        46        2.0000           -0.4072097             -11.0807
        47        2.0000           -0.4011458             -10.9157
        48        2.0000           -0.3925338             -10.6814
        49        2.0000           -0.3550426              -9.6612 (HOMO)
        50                         -0.2795010              -7.6056 (LUMO)
        51                         -0.2402824              -6.5384
        52                         -0.2278497              -6.2001
        53                         -0.1983967              -5.3986
        54                         -0.1838327              -5.0023
       ...                                ...                  ...
        96                          0.7225592              19.6618
      -------------------------------------------------------------
                  HL-Gap            0.0755416 Eh            2.0556 eV
             Fermi-level           -0.3172718 Eh           -8.6334 eV

 SCC (total)                   0 d,  0 h,  0 min,  0.099 sec
 SCC setup                      ...        0 min,  0.001 sec (  0.548%)
 Dispersion                     ...        0 min,  0.001 sec (  0.959%)
 classical contributions        ...        0 min,  0.000 sec (  0.062%)
 integral evaluation            ...        0 min,  0.003 sec (  2.724%)
 iterations                     ...        0 min,  0.088 sec ( 88.757%)
 molecular gradient             ...        0 min,  0.006 sec (  5.848%)
 printout                       ...        0 min,  0.001 sec (  0.727%)

         :::::::::::::::::::::::::::::::::::::::::::::::::::::
         ::                     SUMMARY                     ::
         :::::::::::::::::::::::::::::::::::::::::::::::::::::
         :: total energy             -53.386952550116 Eh    ::
         :: total w/o Gsasa/hb       -53.373870978989 Eh    ::
         :: gradient norm              0.098753792631 Eh/a0 ::
         :: HOMO-LUMO gap              2.055590656707 eV    ::
         ::.................................................::
         :: SCC energy               -54.274233734454 Eh    ::
         :: -> isotropic ES            0.144124765926 Eh    ::
         :: -> anisotropic ES         -0.012786723213 Eh    ::
         :: -> anisotropic XC          0.028491936538 Eh    ::
         :: -> dispersion             -0.039275488904 Eh    ::
         :: -> Gsolv                  -0.125506472492 Eh    ::
         ::    -> Gelec               -0.112424901364 Eh    ::
         ::    -> Gsasa               -0.002892138855 Eh    ::
         ::    -> Ghb                 -0.011270191971 Eh    ::
         ::    -> Gshift               0.001080759698 Eh    ::
         :: repulsion energy           0.887312635628 Eh    ::
         :: add. restraining           0.000000000000 Eh    ::
         :: total charge               1.000000000000 e     ::
         :::::::::::::::::::::::::::::::::::::::::::::::::::::

      ----------------------------------------------------------- 
     |                   =====================                   |
     |                        A N C O P T                        |
     |                   =====================                   |
     |               Approximate Normal Coordinate               |
     |                Rational Function Optimizer                |
      ----------------------------------------------------------- 

          ...................................................
          :                      SETUP                      :
          :.................................................:
          :   optimization level            normal          :
          :   max. optcycles                   200          :
          :   ANC micro-cycles                  20          :
          :   degrees of freedom               102          :
          :.................................................:
          :   RF solver                   davidson          :
          :   write xtbopt.log                true          :
          :   linear?                        false          :
          :   energy convergence         0.5000000E-05 Eh   :
          :   grad. convergence          0.1000000E-02 Eh/α :
          :   maximium RF displ.         1.0000000          :
          :   Hlow (freq-cutoff)         0.1000000E-01      :
          :   Hmax (freq-cutoff)         5.0000000          :
          :   S6 in model hess.         20.0000000          :
          ...................................................

generating ANC from model Hessian ...
Using Lindh-Hessian (1995)
 Shifting diagonal of input Hessian by    9.4130282743000119E-003
 Lowest  eigenvalues of input Hessian
    0.000000    0.000000    0.000000    0.000000    0.000000    0.000000
    0.010000    0.010184    0.011064    0.012260    0.012925    0.015689
    0.017273    0.017649    0.020563    0.021662    0.023565    0.025671
 Highest eigenvalues
    1.864270    1.922944    1.960228    2.024453    2.111849    2.137114


........................................................................
.............................. CYCLE    1 ..............................
........................................................................
   1    -54.2742337 -0.542742E+02  0.112E-04    2.06       0.0  T
   2    -54.2742337 -0.646097E-10  0.742E-05    2.06     224.7  T
   3    -54.2742337 -0.154898E-10  0.512E-05    2.06     325.8  T
     SCC iter.                  ...        0 min,  0.020 sec
     gradient                   ...        0 min,  0.005 sec
 * total energy  :   -53.3869526 Eh     change       -0.4587903E-09 Eh
   gradient norm :     0.0987539 Eh/α   predicted     0.0000000E+00 (-100.00%)
   displ. norm   :     0.1873458 α      lambda       -0.8901255E-02
   maximum displ.:     0.0672453 α      in ANC's #24, #11, #13, ...

........................................................................
.............................. CYCLE    2 ..............................
........................................................................
   1    -54.3020107 -0.543020E+02  0.139E-01    2.20       0.0  T
   2    -54.3020548 -0.440438E-04  0.891E-02    2.20       1.0  T
   3    -54.3020385  0.162245E-04  0.397E-02    2.20       1.0  T
   4    -54.3020704 -0.318082E-04  0.772E-03    2.20       2.2  T
   5    -54.3020717 -0.136555E-05  0.304E-03    2.20       5.5  T
   6    -54.3020718 -0.770812E-07  0.160E-03    2.20      10.4  T
   7    -54.3020718 -0.138173E-07  0.557E-04    2.20      29.9  T
   8    -54.3020718 -0.343937E-08  0.232E-04    2.20      71.9  T
     SCC iter.                  ...        0 min,  0.050 sec
     gradient                   ...        0 min,  0.005 sec
 * total energy  :   -53.3930362 Eh     change       -0.6083639E-02 Eh
   gradient norm :     0.0406205 Eh/α   predicted    -0.4607671E-02 ( -24.26%)
   displ. norm   :     0.1726136 α      lambda       -0.2361201E-02
   maximum displ.:     0.0887949 α      in ANC's #3, #11, #7, ...

........................................................................
.............................. CYCLE    3 ..............................
........................................................................
   1    -54.3152769 -0.543153E+02  0.910E-02    2.31       0.0  T
   2    -54.3152992 -0.222250E-04  0.564E-02    2.31       1.0  T
   3    -54.3152955  0.363500E-05  0.279E-02    2.31       1.0  T
   4    -54.3153074 -0.118958E-04  0.445E-03    2.31       3.7  T
   5    -54.3153078 -0.387499E-06  0.189E-03    2.31       8.8  T
   6    -54.3153079 -0.478590E-07  0.941E-04    2.31      17.7  T
   7    -54.3153079 -0.337560E-08  0.408E-04    2.31      40.8  T
     SCC iter.                  ...        0 min,  0.043 sec
     gradient                   ...        0 min,  0.004 sec
 * total energy  :   -53.3943481 Eh     change       -0.1311914E-02 Eh
   gradient norm :     0.0076551 Eh/α   predicted    -0.1216001E-02 (  -7.31%)
   displ. norm   :     0.1240790 α      lambda       -0.2740310E-03
   maximum displ.:     0.0867106 α      in ANC's #3, #5, #4, ...

........................................................................
.............................. CYCLE    4 ..............................
........................................................................
   1    -54.3147124 -0.543147E+02  0.331E-02    2.32       0.0  T
   2    -54.3147136 -0.118225E-05  0.197E-02    2.32       1.0  T
   3    -54.3147126  0.102503E-05  0.828E-03    2.32       2.0  T
   4    -54.3147140 -0.145830E-05  0.112E-03    2.32      14.9  T
   5    -54.3147140 -0.133221E-07  0.632E-04    2.32      26.4  T
   6    -54.3147140 -0.753892E-08  0.268E-04    2.32      62.1  T
     SCC iter.                  ...        0 min,  0.033 sec
     gradient                   ...        0 min,  0.004 sec
 * total energy  :   -53.3945613 Eh     change       -0.2132106E-03 Eh
   gradient norm :     0.0043185 Eh/α   predicted    -0.1391326E-03 ( -34.74%)
   displ. norm   :     0.2115591 α      lambda       -0.2701417E-03
   maximum displ.:     0.1473792 α      in ANC's #3, #5, #4, ...

........................................................................
.............................. CYCLE    5 ..............................
........................................................................
   1    -54.3128600 -0.543129E+02  0.412E-02    2.32       0.0  T
   2    -54.3128610 -0.984225E-06  0.246E-02    2.33       1.0  T
   3    -54.3128599  0.106300E-05  0.735E-03    2.33       2.3  T
   4    -54.3128613 -0.138220E-05  0.118E-03    2.32      14.1  T
   5    -54.3128613 -0.111823E-07  0.677E-04    2.32      24.6  T
   6    -54.3128613 -0.669311E-08  0.334E-04    2.32      49.9  T
     SCC iter.                  ...        0 min,  0.033 sec
     gradient                   ...        0 min,  0.005 sec
 * total energy  :   -53.3947462 Eh     change       -0.1849156E-03 Eh
   gradient norm :     0.0042702 Eh/α   predicted    -0.1411349E-03 ( -23.68%)
   displ. norm   :     0.1578651 α      lambda       -0.1125627E-03
   maximum displ.:     0.1085785 α      in ANC's #3, #5, #4, ...

........................................................................
.............................. CYCLE    6 ..............................
........................................................................
   1    -54.3124984 -0.543125E+02  0.234E-02    2.32       0.0  T
   2    -54.3124986 -0.156684E-06  0.139E-02    2.32       1.2  T
   3    -54.3124985  0.106673E-06  0.217E-03    2.32       7.7  T
   4    -54.3124986 -0.153087E-06  0.583E-04    2.32      28.6  T
   5    -54.3124986 -0.284691E-08  0.327E-04    2.32      50.9  T
     SCC iter.                  ...        0 min,  0.027 sec
     gradient                   ...        0 min,  0.004 sec
 * total energy  :   -53.3948357 Eh     change       -0.8949684E-04 Eh
   gradient norm :     0.0046216 Eh/α   predicted    -0.5772266E-04 ( -35.50%)
   displ. norm   :     0.1743787 α      lambda       -0.1132697E-03
   maximum displ.:     0.1164881 α      in ANC's #3, #4, #5, ...

........................................................................
.............................. CYCLE    7 ..............................
........................................................................
   1    -54.3130190 -0.543130E+02  0.256E-02    2.32       0.0  T
   2    -54.3130192 -0.195413E-06  0.152E-02    2.32       1.1  T
   3    -54.3130191  0.723998E-07  0.213E-03    2.32       7.8  T
   4    -54.3130192 -0.116437E-06  0.617E-04    2.32      27.0  T
   5    -54.3130192 -0.432378E-08  0.343E-04    2.32      48.6  T
     SCC iter.                  ...        0 min,  0.027 sec
     gradient                   ...        0 min,  0.004 sec
 * total energy  :   -53.3949243 Eh     change       -0.8861448E-04 Eh
   gradient norm :     0.0034841 Eh/α   predicted    -0.5835804E-04 ( -34.14%)
   displ. norm   :     0.1893031 α      lambda       -0.9109441E-04
   maximum displ.:     0.1274692 α      in ANC's #3, #4, #5, ...

........................................................................
.............................. CYCLE    8 ..............................
........................................................................
   1    -54.3137490 -0.543137E+02  0.291E-02    2.31       0.0  T
   2    -54.3137492 -0.229853E-06  0.173E-02    2.31       1.0  T
   3    -54.3137491  0.113067E-06  0.246E-03    2.31       6.8  T
   4    -54.3137493 -0.172604E-06  0.704E-04    2.31      23.7  T
   5    -54.3137493 -0.485836E-08  0.374E-04    2.31      44.6  T
     SCC iter.                  ...        0 min,  0.027 sec
     gradient                   ...        0 min,  0.004 sec
 * total energy  :   -53.3949854 Eh     change       -0.6105303E-04 Eh
   gradient norm :     0.0025301 Eh/α   predicted    -0.4718628E-04 ( -22.71%)
   displ. norm   :     0.0954213 α      lambda       -0.3068478E-04
   maximum displ.:     0.0674887 α      in ANC's #3, #4, #2, ...

........................................................................
.............................. CYCLE    9 ..............................
........................................................................
   1    -54.3144696 -0.543145E+02  0.164E-02    2.31       0.0  T
   2    -54.3144696 -0.666642E-07  0.972E-03    2.31       1.7  T
   3    -54.3144696  0.458364E-07  0.134E-03    2.31      12.4  T
   4    -54.3144696 -0.671208E-07  0.380E-04    2.31      43.9  T
   5    -54.3144696 -0.112464E-08  0.193E-04    2.31      86.5  T
     SCC iter.                  ...        0 min,  0.027 sec
     gradient                   ...        0 min,  0.004 sec
 * total energy  :   -53.3950066 Eh     change       -0.2124096E-04 Eh
   gradient norm :     0.0016196 Eh/α   predicted    -0.1548318E-04 ( -27.11%)
   displ. norm   :     0.1009057 α      lambda       -0.1768525E-04
   maximum displ.:     0.0685862 α      in ANC's #3, #4, #11, ...

........................................................................
.............................. CYCLE   10 ..............................
........................................................................
   1    -54.3149114 -0.543149E+02  0.210E-02    2.31       0.0  T
   2    -54.3149115 -0.656271E-07  0.124E-02    2.31       1.3  T
   3    -54.3149114  0.482010E-07  0.137E-03    2.31      12.2  T
   4    -54.3149115 -0.739884E-07  0.418E-04    2.31      39.9  T
   5    -54.3149115 -0.548305E-09  0.201E-04    2.31      82.8  T
     SCC iter.                  ...        0 min,  0.031 sec
     gradient                   ...        0 min,  0.005 sec
 * total energy  :   -53.3950241 Eh     change       -0.1745951E-04 Eh
   gradient norm :     0.0013657 Eh/α   predicted    -0.8883591E-05 ( -49.12%)
   displ. norm   :     0.0748013 α      lambda       -0.1419761E-04
   maximum displ.:     0.0354425 α      in ANC's #11, #3, #1, ...

........................................................................
.............................. CYCLE   11 ..............................
........................................................................
   1    -54.3148477 -0.543148E+02  0.205E-02    2.31       0.0  T
   2    -54.3148478 -0.437190E-07  0.121E-02    2.31       1.4  T
   3    -54.3148478  0.316409E-07  0.137E-03    2.31      12.1  T
   4    -54.3148478 -0.501109E-07  0.426E-04    2.31      39.1  T
   5    -54.3148478 -0.775003E-09  0.213E-04    2.31      78.3  T
     SCC iter.                  ...        0 min,  0.027 sec
     gradient                   ...        0 min,  0.004 sec
 * total energy  :   -53.3950408 Eh     change       -0.1670139E-04 Eh
   gradient norm :     0.0012616 Eh/α   predicted    -0.7117267E-05 ( -57.39%)
   displ. norm   :     0.1254216 α      lambda       -0.1671689E-04
   maximum displ.:     0.0601811 α      in ANC's #11, #1, #3, ...

........................................................................
.............................. CYCLE   12 ..............................
........................................................................
   1    -54.3142576 -0.543143E+02  0.333E-02    2.31       0.0  T
   2    -54.3142577 -0.120727E-06  0.197E-02    2.31       1.0  T
   3    -54.3142575  0.221698E-06  0.308E-03    2.31       5.4  T
   4    -54.3142578 -0.287449E-06  0.695E-04    2.31      24.0  T
   5    -54.3142578 -0.778108E-09  0.368E-04    2.31      45.2  T
     SCC iter.                  ...        0 min,  0.027 sec
     gradient                   ...        0 min,  0.004 sec
 * total energy  :   -53.3950551 Eh     change       -0.1425623E-04 Eh
   gradient norm :     0.0013467 Eh/α   predicted    -0.8417977E-05 ( -40.95%)
   displ. norm   :     0.0660128 α      lambda       -0.8157685E-05
   maximum displ.:     0.0368727 α      in ANC's #5, #1, #4, ...

........................................................................
.............................. CYCLE   13 ..............................
........................................................................
   1    -54.3151459 -0.543151E+02  0.189E-02    2.31       0.0  T
   2    -54.3151460 -0.123174E-06  0.111E-02    2.31       1.5  T
   3    -54.3151459  0.146897E-06  0.249E-03    2.31       6.7  T
   4    -54.3151461 -0.187874E-06  0.558E-04    2.31      29.9  T
   5    -54.3151461 -0.241506E-08  0.288E-04    2.31      57.8  T
     SCC iter.                  ...        0 min,  0.027 sec
     gradient                   ...        0 min,  0.004 sec
 * total energy  :   -53.3950541 Eh     change        0.9210868E-06 Eh
   gradient norm :     0.0018636 Eh/α   predicted    -0.4091358E-05 (-544.19%)
   displ. norm   :     0.0375082 α      lambda       -0.6862870E-05
   maximum displ.:     0.0212344 α      in ANC's #5, #3, #2, ...

........................................................................
.............................. CYCLE   14 ..............................
........................................................................
   1    -54.3146225 -0.543146E+02  0.689E-03    2.31       0.0  T
   2    -54.3146225 -0.231213E-07  0.407E-03    2.31       4.1  T
   3    -54.3146225  0.764035E-08  0.722E-04    2.31      23.1  T
   4    -54.3146225 -0.132146E-07  0.281E-04    2.31      59.4  T
     SCC iter.                  ...        0 min,  0.022 sec
     gradient                   ...        0 min,  0.004 sec
 * total energy  :   -53.3950600 Eh     change       -0.5848646E-05 Eh
   gradient norm :     0.0001959 Eh/α   predicted    -0.3434753E-05 ( -41.27%)
   displ. norm   :     0.0158832 α      lambda       -0.9562783E-06
   maximum displ.:     0.0085424 α      in ANC's #1, #5, #2, ...

........................................................................
.............................. CYCLE   15 ..............................
........................................................................
   1    -54.3145784 -0.543146E+02  0.481E-03    2.31       0.0  T
   2    -54.3145784 -0.171921E-08  0.282E-03    2.31       5.9  T
   3    -54.3145784  0.100694E-08  0.266E-04    2.31      62.5  T
   4    -54.3145784 -0.182759E-08  0.851E-05    2.31     195.9  T
     SCC iter.                  ...        0 min,  0.022 sec
     gradient                   ...        0 min,  0.004 sec
 * total energy  :   -53.3950612 Eh     change       -0.1204967E-05 Eh
   gradient norm :     0.0002358 Eh/α   predicted    -0.4790882E-06 ( -60.24%)
   displ. norm   :     0.0322064 α      lambda       -0.1591960E-05
   maximum displ.:     0.0195434 α      in ANC's #1, #5, #4, ...

   *** GEOMETRY OPTIMIZATION CONVERGED AFTER 15 ITERATIONS ***

------------------------------------------------------------------------
 total energy gain   :        -0.0081086 Eh       -5.0882 kcal/mol
 total RMSD          :         0.2246746 a0        0.1189 Å
 total power (kW/mol):        -1.4192812 (step)  -36.6064 (real)
------------------------------------------------------------------------

 ANCopt (total)                0 d,  0 h,  0 min,  0.582 sec
 optimizer setup                ...        0 min,  0.000 sec (  0.025%)
 model hessian                  ...        0 min,  0.010 sec (  1.739%)
 ANC generation                 ...        0 min,  0.005 sec (  0.889%)
 coordinate transformation      ...        0 min,  0.001 sec (  0.142%)
 single point calculation       ...        0 min,  0.559 sec ( 96.135%)
 optimization log               ...        0 min,  0.002 sec (  0.327%)
 hessian update                 ...        0 min,  0.001 sec (  0.126%)
 rational function              ...        0 min,  0.002 sec (  0.287%)

================
 final structure:
================
36
 xtb: 6.5.1 (fef0646)
N            3.87053171479280        0.46578154291948       -1.59212177768826
C            2.82921012061755       -0.26466365152213       -0.83409940594266
C            3.33502212004920       -1.66532879178013       -0.50820885511553
O            4.50545643004735       -1.47796177057543        0.28462976800713
C            5.16081283302878       -2.56041844921147        0.78380189200177
C            6.25250045424451       -2.28419339241246        1.63245895205751
C            6.60768764860440       -0.95439970449519        2.00101196260490
C            7.66728907863960       -0.70804605006985        2.80618376573134
C            7.01510505211730       -3.36048310111321        2.14100749452736
C            6.67182660285657       -4.69662875547876        1.81636017082886
C            5.56904690505435       -4.92281031234426        0.99556031308113
C            4.82642813631703       -3.87471095723261        0.48436410768793
C            7.46454659339854       -5.75873097521200        2.34117647749722
C            8.53170742662515       -5.51059076241602        3.13475143490145
C            8.90176078345269       -4.17664650653435        3.48109177629117
C            9.99866917837484       -3.89855167987459        4.29747152542585
C           10.32884350898890       -2.59347472159484        4.61760158229014
C            9.57666792814243       -1.53828135235018        4.13646683748245
C            8.47140577771912       -1.76871889353237        3.31459223899522
C            8.12779433296781       -3.10136451474499        2.97804492326899
H            3.63158920613828        1.45898960822814       -1.68968110031853
H            3.99931532472800        0.05970219154256       -2.52680462375202
H            4.75784770658770        0.37905634405508       -1.07839807532484
H            1.90973147960770       -0.32889394809157       -1.41335235363413
H            2.63315831914921        0.26125340450375        0.10034206922033
H            3.58262985680784       -2.22094043185938       -1.41975330562017
H            2.57485990979860       -2.21960209451621        0.05027004733364
H            5.99776185662211       -0.14372250346614        1.63828876722700
H            7.92755737463402        0.30214952871471        3.08612904043857
H            5.29510258633622       -5.93837517941661        0.75075241717461
H            3.98512554673154       -4.10306431623287       -0.14936990234422
H            7.19107594693215       -6.77301741572695        2.08683871478582
H            9.12955483197498       -6.32094066106717        3.52741933541491
H           10.59178110149054       -4.71686275735462        4.68034798020960
H           11.18232846455530       -2.39905151106451        5.25097724378486
H            9.84127786186680       -0.52332745867370        4.39544856147078

 Bond Distances (Angstroems)
 ---------------------------
N1-C2=1.4807         N1-H21=1.0262        N1-H22=1.0272        N1-H23=1.0290        C2-N1=1.4807         C2-C3=1.5244         
C2-H24=1.0886        C2-H25=1.0900        C3-C2=1.5244         C3-O4=1.4260         C3-H26=1.0959        C3-H27=1.0941        
O4-C3=1.4260         O4-C5=1.3603         C5-O4=1.3603         C5-C6=1.4101         C5-C12=1.3888        C6-C5=1.4101         
C6-C7=1.4249         C6-C9=1.4137         C7-C6=1.4249         C7-C8=1.3534         C7-H28=1.0774        C8-C7=1.3534         
C8-C19=1.4248        C8-H29=1.0801        C9-C6=1.4137         C9-C10=1.4172        C9-C20=1.4163        C10-C9=1.4172        
C10-C11=1.3932       C10-C13=1.4254       C11-C10=1.3932       C11-C12=1.3825       C11-H30=1.0800       C12-C5=1.3888        
C12-C11=1.3825       C12-H31=1.0778       C13-C10=1.4254       C13-C14=1.3528       C13-H32=1.0809       C14-C13=1.3528       
C14-C15=1.4270       C14-H33=1.0809       C15-C14=1.4270       C15-C16=1.3954       C15-C20=1.4171       C16-C15=1.3954       
C16-C17=1.3837       C16-H34=1.0807       C17-C16=1.3837       C17-C18=1.3823       C17-H35=1.0805       C18-C17=1.3823       
C18-C19=1.3965       C18-H36=1.0804       C19-C8=1.4248        C19-C18=1.3965       C19-C20=1.4168       C20-C9=1.4163        
C20-C15=1.4171       C20-C19=1.4168       H21-N1=1.0262        H22-N1=1.0272        H23-N1=1.0290        H24-C2=1.0886        
H25-C2=1.0900        H26-C3=1.0959        H27-C3=1.0941        H28-C7=1.0774        H29-C8=1.0801        H30-C11=1.0800       
H31-C12=1.0778       H32-C13=1.0809       H33-C14=1.0809       H34-C16=1.0807       H35-C17=1.0805       H36-C18=1.0804       
 C  H  Rav=1.0836 sigma=0.0060  Rmin=1.0774  Rmax=1.0959    13
 C  C  Rav=1.4073 sigma=0.0346  Rmin=1.3528  Rmax=1.5244    20
 N  H  Rav=1.0274 sigma=0.0011  Rmin=1.0262  Rmax=1.0290     3
 N  C  Rav=1.4807 sigma=0.0000  Rmin=1.4807  Rmax=1.4807     1
 O  C  Rav=1.3932 sigma=0.0329  Rmin=1.3603  Rmax=1.4260     2

 selected bond angles (degree)
 --------------------
H21-N1-C2=111.25               H22-N1-C2=111.04               H22-N1-H21=108.98              H23-N1-C2=108.02               
H23-N1-H21=109.26              H23-N1-H22=108.23              C3-C2-N1=109.23                H24-C2-N1=110.53               
H24-C2-C3=109.86               H25-C2-N1=109.11               H25-C2-C3=108.65               H25-C2-H24=109.43              
O4-C3-C2=105.69                H26-C3-C2=111.28               H26-C3-O4=110.10               H27-C3-C2=110.13               
H27-C3-O4=110.67               H27-C3-H26=108.95              C5-O4-C3=119.66                C6-C5-O4=115.97                
C12-C5-O4=123.91               C12-C5-C6=120.10               C7-C6-C5=122.11                C9-C6-C5=119.01                
C9-C6-C7=118.88                C8-C7-C6=121.26                H28-C7-C6=118.30               H28-C7-C8=120.43               
C19-C8-C7=121.24               H29-C8-C7=120.87               H29-C8-C19=117.89              C10-C9-C6=120.31               
C20-C9-C6=119.81               C20-C9-C10=119.88              C11-C10-C9=118.67              C13-C10-C9=118.91              
C13-C10-C11=122.42             

 selected dihedral angles (degree)
 ---------------------------------
C3-C2-N1-H21=189.68           C3-C2-N1-H22= 68.11           C3-C2-N1-H23=309.58           H24-C2-N1-H21= 68.69          
H24-C2-N1-H22=307.12          H24-C2-N1-H23=188.59          H25-C2-N1-H21=308.31          H25-C2-N1-H22=186.74          
H25-C2-N1-H23= 68.22          O4-C3-C2-N1= 60.58            O4-C3-C2-H24=181.98           O4-C3-C2-H25=301.66           
H26-C3-C2-N1=301.08           H26-C3-C2-H24= 62.47          H26-C3-C2-H25=182.16          H27-C3-C2-N1=180.15           
H27-C3-C2-H24=301.55          H27-C3-C2-H25= 61.23          C5-O4-C3-C2=177.24            C5-O4-C3-H26=297.53           
C5-O4-C3-H27= 58.03           C6-C5-O4-C3=184.25            C12-C5-O4-C3=  5.40           C7-C6-C5-O4=  3.09            
C7-C6-C5-C12=181.98           C9-C6-C5-O4=182.70            C9-C6-C5-C12=  1.60           C8-C7-C6-C5=180.67            
C8-C7-C6-C9=  1.05            H28-C7-C6-C5=  1.90           H28-C7-C6-C9=182.28           C19-C8-C7-C6=  0.15           
C19-C8-C7-H28=178.89          H29-C8-C7-C6=180.35           H29-C8-C7-H28=359.09          C10-C9-C6-C5=359.06           
C10-C9-C6-C7=178.69           C20-C9-C6-C5=179.02           C20-C9-C6-C7=358.65           C11-C10-C9-C6=359.69          
C11-C10-C9-C20=179.73         C13-C10-C9-C6=179.75          C13-C10-C9-C20=359.79         
           -------------------------------------------------
          |                Final Singlepoint                |
           -------------------------------------------------

          ...................................................
          :                      SETUP                      :
          :.................................................:
          :  # basis functions                  96          :
          :  # atomic orbitals                  96          :
          :  # shells                           56          :
          :  # electrons                        98          :
          :  max. iterations                   250          :
          :  Hamiltonian                  GFN2-xTB          :
          :  restarted?                      false          :
          :  GBSA solvation                   true          :
          :  PC potential                    false          :
          :  electronic temp.          300.0000000     K    :
          :  accuracy                    1.0000000          :
          :  -> integral cutoff          0.2500000E+02      :
          :  -> integral neglect         0.1000000E-07      :
          :  -> SCF convergence          0.1000000E-05 Eh   :
          :  -> wf. convergence          0.1000000E-03 e    :
          :  Broyden damping             0.4000000          :
          ...................................................

 iter      E             dE          RMSdq      gap      omega  full diag
   1    -54.3145784 -0.543146E+02  0.392E-05    2.31       0.0  T
   2    -54.3145784 -0.827782E-11  0.258E-05    2.31     644.8  T
   3    -54.3145784 -0.228084E-11  0.172E-05    2.31     970.5  T

   *** convergence criteria satisfied after 3 iterations ***

         #    Occupation            Energy/Eh            Energy/eV
      -------------------------------------------------------------
         1        2.0000           -0.7294929             -19.8505
       ...           ...                  ...                  ...
        43        2.0000           -0.4286156             -11.6632
        44        2.0000           -0.4101275             -11.1601
        45        2.0000           -0.4089833             -11.1290
        46        2.0000           -0.4049604             -11.0195
        47        2.0000           -0.4044365             -11.0053
        48        2.0000           -0.3907635             -10.6332
        49        2.0000           -0.3584607              -9.7542 (HOMO)
        50                         -0.2734159              -7.4400 (LUMO)
        51                         -0.2411200              -6.5612
        52                         -0.2201733              -5.9912
        53                         -0.1997426              -5.4353
        54                         -0.1794065              -4.8819
       ...                                ...                  ...
        96                          0.7326075              19.9353
      -------------------------------------------------------------
                  HL-Gap            0.0850447 Eh            2.3142 eV
             Fermi-level           -0.3159383 Eh           -8.5971 eV

 SCC (total)                   0 d,  0 h,  0 min,  0.024 sec
 SCC setup                      ...        0 min,  0.000 sec (  1.141%)
 Dispersion                     ...        0 min,  0.000 sec (  1.788%)
 classical contributions        ...        0 min,  0.000 sec (  0.165%)
 integral evaluation            ...        0 min,  0.002 sec (  6.372%)
 iterations                     ...        0 min,  0.017 sec ( 70.289%)
 molecular gradient             ...        0 min,  0.004 sec ( 16.939%)
 printout                       ...        0 min,  0.001 sec (  2.395%)

         :::::::::::::::::::::::::::::::::::::::::::::::::::::
         ::                     SUMMARY                     ::
         :::::::::::::::::::::::::::::::::::::::::::::::::::::
         :: total energy             -53.395061185000 Eh    ::
         :: total w/o Gsasa/hb       -53.381919159021 Eh    ::
         :: gradient norm              0.000235807560 Eh/a0 ::
         :: HOMO-LUMO gap              2.314185059780 eV    ::
         ::.................................................::
         :: SCC energy               -54.314578426173 Eh    ::
         :: -> isotropic ES            0.144628585542 Eh    ::
         :: -> anisotropic ES         -0.014621851725 Eh    ::
         :: -> anisotropic XC          0.027370037519 Eh    ::
         :: -> dispersion             -0.039508301724 Eh    ::
         :: -> Gsolv                  -0.126339242157 Eh    ::
         ::    -> Gelec               -0.113197216177 Eh    ::
         ::    -> Gsasa               -0.002959736257 Eh    ::
         ::    -> Ghb                 -0.011263049420 Eh    ::
         ::    -> Gshift               0.001080759698 Eh    ::
         :: repulsion energy           0.919536748932 Eh    ::
         :: add. restraining           0.000000000000 Eh    ::
         :: total charge               1.000000000000 e     ::
         :::::::::::::::::::::::::::::::::::::::::::::::::::::

           -------------------------------------------------
          |                Property Printout                |
           -------------------------------------------------

    * Orbital Energies and Occupations

         #    Occupation            Energy/Eh            Energy/eV
      -------------------------------------------------------------
         1        2.0000           -0.7294929             -19.8505
       ...           ...                  ...                  ...
        37        2.0000           -0.4628732             -12.5954
        38        2.0000           -0.4589202             -12.4879
        39        2.0000           -0.4567298             -12.4282
        40        2.0000           -0.4516756             -12.2907
        41        2.0000           -0.4404797             -11.9861
        42        2.0000           -0.4352821             -11.8446
        43        2.0000           -0.4286156             -11.6632
        44        2.0000           -0.4101275             -11.1601
        45        2.0000           -0.4089833             -11.1290
        46        2.0000           -0.4049604             -11.0195
        47        2.0000           -0.4044365             -11.0053
        48        2.0000           -0.3907635             -10.6332
        49        2.0000           -0.3584607              -9.7542 (HOMO)
        50                         -0.2734159              -7.4400 (LUMO)
        51                         -0.2411200              -6.5612
        52                         -0.2201733              -5.9912
        53                         -0.1997426              -5.4353
        54                         -0.1794065              -4.8819
        55                         -0.1248061              -3.3961
        56                         -0.0986047              -2.6832
        57                         -0.0545807              -1.4852
        58                         -0.0252120              -0.6861
        59                          0.0035927               0.0978
        60                          0.0538970               1.4666
       ...                                ...                  ...
        96                          0.7326075              19.9353
      -------------------------------------------------------------
                  HL-Gap            0.0850447 Eh            2.3142 eV
             Fermi-level           -0.3159383 Eh           -8.5971 eV

     #   Z          covCN         q      C6AA      α(0)
     1   7 N        3.486    -0.154    24.329     7.326
     2   6 C        3.731    -0.045    21.472     6.614
     3   6 C        3.689     0.049    19.937     6.391
     4   8 O        1.705    -0.271    18.490     5.806
     5   6 C        2.859     0.129    25.169     8.223
     6   6 C        2.982    -0.013    28.338     8.732
     7   6 C        2.913    -0.042    29.035     8.836
     8   6 C        2.914    -0.044    29.091     8.844
     9   6 C        2.997    -0.001    28.037     8.686
    10   6 C        2.981    -0.001    28.055     8.688
    11   6 C        2.921    -0.043    29.072     8.842
    12   6 C        2.911    -0.076    29.901     8.967
    13   6 C        2.913    -0.041    29.018     8.833
    14   6 C        2.913    -0.043    29.068     8.841
    15   6 C        2.982     0.007    27.853     8.657
    16   6 C        2.920    -0.043    29.071     8.842
    17   6 C        2.914    -0.036    28.888     8.813
    18   6 C        2.920    -0.045    29.108     8.847
    19   6 C        2.982     0.008    27.825     8.653
    20   6 C        2.998     0.001    27.998     8.680
    21   1 H        0.859     0.323     0.648     1.261
    22   1 H        0.859     0.314     0.674     1.287
    23   1 H        0.859     0.307     0.692     1.304
    24   1 H        0.925     0.131     1.528     1.933
    25   1 H        0.925     0.132     1.523     1.930
    26   1 H        0.924     0.079     1.992     2.207
    27   1 H        0.924     0.076     2.023     2.224
    28   1 H        0.926     0.068     2.106     2.269
    29   1 H        0.926     0.041     2.440     2.443
    30   1 H        0.926     0.037     2.495     2.470
    31   1 H        0.926     0.055     2.254     2.348
    32   1 H        0.926     0.031     2.579     2.511
    33   1 H        0.926     0.025     2.661     2.551
    34   1 H        0.926     0.025     2.656     2.549
    35   1 H        0.926     0.027     2.630     2.536
    36   1 H        0.926     0.034     2.525     2.485

 Mol. C6AA /au·bohr⁶  :      15746.398709
 Mol. C8AA /au·bohr⁸  :     391979.328741
 Mol. α(0) /au        :        200.429533


Wiberg/Mayer (AO) data.
largest (>0.10) Wiberg bond orders for each atom

 ---------------------------------------------------------------------------
     #   Z sym  total        # sym  WBO       # sym  WBO       # sym  WBO
 ---------------------------------------------------------------------------
     1   7 N    3.654 --     2 C    0.976    22 H    0.887    23 H    0.887
                            21 H    0.883
     2   6 C    3.927 --     3 C    1.008     1 N    0.976    24 H    0.961
                            25 H    0.960
     3   6 C    3.931 --     2 C    1.008    27 H    0.962    26 H    0.961
                             4 O    0.954
     4   8 O    2.215 --     5 C    1.071     3 C    0.954
     5   6 C    3.917 --    12 C    1.379     6 C    1.276     4 O    1.071
     6   6 C    3.987 --     5 C    1.276     9 C    1.267     7 C    1.212
     7   6 C    3.988 --     8 C    1.645     6 C    1.212    28 H    0.964
     8   6 C    3.989 --     7 C    1.645    19 C    1.204    29 H    0.967
     9   6 C    3.990 --     6 C    1.267    20 C    1.251    10 C    1.244
    10   6 C    3.990 --    11 C    1.359     9 C    1.244    13 C    1.200
    11   6 C    3.956 --    12 C    1.443    10 C    1.359    30 H    0.969
    12   6 C    3.979 --    11 C    1.443     5 C    1.379    31 H    0.963
    13   6 C    3.991 --    14 C    1.655    10 C    1.200    32 H    0.968
    14   6 C    3.983 --    13 C    1.655    15 C    1.198    33 H    0.968
    15   6 C    3.990 --    16 C    1.360    20 C    1.252    14 C    1.198
    16   6 C    3.954 --    17 C    1.439    15 C    1.360    34 H    0.969
    17   6 C    3.985 --    18 C    1.447    16 C    1.439    35 H    0.971
    18   6 C    3.954 --    17 C    1.447    19 C    1.351    36 H    0.969
    19   6 C    3.989 --    18 C    1.351    20 C    1.255     8 C    1.204
    20   6 C    3.990 --    19 C    1.255    15 C    1.252     9 C    1.251
    21   1 H    0.895 --     1 N    0.883
    22   1 H    0.902 --     1 N    0.887
    23   1 H    0.906 --     1 N    0.887
    24   1 H    0.982 --     2 C    0.961
    25   1 H    0.983 --     2 C    0.960
    26   1 H    0.993 --     3 C    0.961
    27   1 H    0.993 --     3 C    0.962
    28   1 H    0.994 --     7 C    0.964
    29   1 H    0.997 --     8 C    0.967
    30   1 H    0.998 --    11 C    0.969
    31   1 H    0.996 --    12 C    0.963
    32   1 H    0.998 --    13 C    0.968
    33   1 H    0.998 --    14 C    0.968
    34   1 H    0.999 --    16 C    0.969
    35   1 H    0.999 --    17 C    0.971
    36   1 H    0.998 --    18 C    0.969
 ---------------------------------------------------------------------------

Topologies differ in total number of bonds
Writing topology from bond orders to xtbtopo.mol

molecular dipole:
                 x           y           z       tot (Debye)
 q only:        6.176       1.039      -3.538
   full:        6.473       0.685      -3.387      18.649
molecular quadrupole (traceless):
                xx          xy          yy          xz          yz          zz
 q only:       29.776      20.387     -19.155     -41.410       2.281     -10.621
  q+dip:       33.200      12.857     -15.897     -30.894       0.990     -17.302
   full:       33.573      12.974     -18.862     -35.397       0.044     -14.712

           -------------------------------------------------
          |                Geometry Summary                 |
           -------------------------------------------------

      molecular mass/u    :      262.3264063
   center of mass at/Å    :        6.6736709      -2.6487816       1.8127848
  moments of inertia/u·Å² :        0.6775177E+03   0.2361453E+04   0.2989927E+04
rotational constants/cm⁻¹ :        0.2488146E-01   0.7138668E-02   0.5638142E-02

 * 39 selected distances

     #   Z          #   Z                                           value/Å
     1   7 N        2   6 C                                       1.4807090
     2   6 C        3   6 C                                       1.5244388 (max)
     3   6 C        4   8 O                                       1.4260492
     4   8 O        5   6 C                                       1.3602859
     5   6 C        6   6 C                                       1.4100714
     6   6 C        7   6 C                                       1.4249003
     7   6 C        8   6 C                                       1.3534206
     6   6 C        9   6 C                                       1.4137140
     9   6 C       10   6 C                                       1.4172232
    10   6 C       11   6 C                                       1.3931956
     5   6 C       12   6 C                                       1.3888273
    11   6 C       12   6 C                                       1.3825038
    10   6 C       13   6 C                                       1.4254468
    13   6 C       14   6 C                                       1.3528368
    14   6 C       15   6 C                                       1.4269894
    15   6 C       16   6 C                                       1.3953569
    16   6 C       17   6 C                                       1.3837357
    17   6 C       18   6 C                                       1.3822779
     8   6 C       19   6 C                                       1.4248193
    18   6 C       19   6 C                                       1.3964899
     9   6 C       20   6 C                                       1.4162810
    15   6 C       20   6 C                                       1.4171492
    19   6 C       20   6 C                                       1.4167843
     1   7 N       21   1 H                                       1.0261938 (min)
     1   7 N       22   1 H                                       1.0271893
     1   7 N       23   1 H                                       1.0289622
     2   6 C       24   1 H                                       1.0886233
     2   6 C       25   1 H                                       1.0900487
     3   6 C       26   1 H                                       1.0958683
     3   6 C       27   1 H                                       1.0940587
     7   6 C       28   1 H                                       1.0773928
     8   6 C       29   1 H                                       1.0800946
    11   6 C       30   1 H                                       1.0799762
    12   6 C       31   1 H                                       1.0777543
    13   6 C       32   1 H                                       1.0808566
    14   6 C       33   1 H                                       1.0808685
    16   6 C       34   1 H                                       1.0807448
    17   6 C       35   1 H                                       1.0804637
    18   6 C       36   1 H                                       1.0803803

 * 5 distinct bonds (by element types)

   Z      Z             #   av. dist./Å        max./Å        min./Å
   1 H    6 C          13     1.0836255     1.0958683     1.0773928
   6 C    6 C          20     1.4073231     1.5244388     1.3528368
   1 H    7 N           3     1.0274484     1.0289622     1.0261938
   6 C    7 N           1     1.4807090     1.4807090     1.4807090
   6 C    8 O           2     1.3931675     1.4260492     1.3602859


optimized geometry written to: xtbopt.xyz


           -------------------------------------------------
          | TOTAL ENERGY              -53.395061185000 Eh   |
          | GRADIENT NORM               0.000235807560 Eh/α |
          | HOMO-LUMO GAP               2.314185059780 eV   |
           -------------------------------------------------

------------------------------------------------------------------------
 * finished run on 2023/01/24 at 14:58:06.777     
------------------------------------------------------------------------
 total:
 * wall-time:     0 d,  0 h,  0 min,  0.728 sec
 *  cpu-time:     0 d,  0 h,  1 min, 25.953 sec
 * ratio c/w:   118.079 speedup
 SCF:
 * wall-time:     0 d,  0 h,  0 min,  0.099 sec
 *  cpu-time:     0 d,  0 h,  0 min, 14.044 sec
 * ratio c/w:   141.983 speedup
 ANC optimizer:
 * wall-time:     0 d,  0 h,  0 min,  0.607 sec
 *  cpu-time:     0 d,  0 h,  1 min,  9.031 sec
 * ratio c/w:   113.788 speedup

