 Entering Gaussian System
 *********************************************
 Gaussian 98:
 frequency output generated by the xtb code
 *********************************************
                         Standard orientation:
 --------------------------------------------------------------------
  Center     Atomic     Atomic              Coordinates (Angstroms)
  Number     Number      Type              X           Y           Z
 --------------------------------------------------------------------
    1          7             0       -2.869747   -1.629154    0.613463
    2          6             0       -3.169424   -0.457494   -0.261888
    3          6             0       -1.920691    0.310609   -0.687584
    4          6             0       -1.218393    1.020587    0.470863
    5          6             0       -0.055380    1.916191    0.030217
    6          6             0        1.097704    1.172673   -0.651026
    7          6             0        1.807602    0.168721    0.258753
    8          6             0        2.989196   -0.526046   -0.421440
    9          6             0        3.690834   -1.525959    0.486200
   10          1             0       -2.428522   -1.333515    1.491281
   11          1             0       -2.230242   -2.279068    0.143162
   12          1             0       -3.723519   -2.145339    0.853637
   13          1             0       -3.858338    0.217131    0.258413
   14          1             0       -3.713029   -0.809213   -1.147086
   15          1             0       -2.182000    1.051099   -1.452604
   16          1             0       -1.225086   -0.378476   -1.176575
   17          1             0       -0.862174    0.282257    1.195603
   18          1             0       -1.956408    1.619882    1.017274
   19          1             0        0.338156    2.460530    0.896805
   20          1             0       -0.441718    2.689981   -0.643803
   21          1             0        1.834497    1.895089   -1.022420
   22          1             0        0.732498    0.659114   -1.546554
   23          1             0        1.096689   -0.587515    0.607087
   24          1             0        2.153908    0.676861    1.165541
   25          1             0        3.703079    0.230469   -0.768813
   26          1             0        2.638670   -1.027246   -1.331728
   27          1             0        3.005641   -2.308175    0.814524
   28          1             0        4.079430   -1.039879    1.381598
   29          1             0        4.529640   -2.012464   -0.014092
 --------------------------------------------------------------------
     1 basis functions        1 primitive gaussians
     1 alpha electrons        1 beta electrons

 Harmonic frequencies (cm**-1), IR intensities (km*mol⁻¹),
 Raman scattering activities (A**4/amu), Raman depolarization ratios,
 reduced masses (AMU), force constants (mDyne/A) and normal coordinates:
                      1                      2                      3
                        a                      a                      a 
 Frequencies --    40.4344                84.4361                88.9538
 Red. masses --     9.6451                 7.4395                 6.5980
 Frc consts  --     0.0000                 0.0000                 0.0000
 IR Inten    --    11.3946                13.9048                 3.6908
 Raman Activ --     0.0000                 0.0000                 0.0000
 Depolar     --     0.0000                 0.0000                 0.0000
 Atom AN      X      Y      Z        X      Y      Z        X      Y      Z
   1   7    -0.39   0.09  -0.07    -0.35   0.18   0.26     0.22  -0.06  -0.07
   2   6    -0.27   0.18   0.02     0.05  -0.03  -0.16    -0.06   0.07   0.19
   3   6    -0.20   0.05  -0.01     0.24  -0.27  -0.01    -0.19   0.19   0.03
   4   6     0.02  -0.21   0.01     0.03  -0.08   0.01     0.01   0.07  -0.02
   5   6     0.02  -0.21   0.01    -0.01  -0.01   0.06     0.04  -0.02  -0.12
   6   6     0.01  -0.19  -0.02     0.03   0.09   0.03    -0.03  -0.12  -0.12
   7   6     0.20  -0.02   0.02    -0.10  -0.13  -0.10    -0.23  -0.29  -0.16
   8   6     0.23   0.06  -0.00     0.17   0.24   0.01     0.22   0.18   0.14
   9   6     0.41   0.22   0.03    -0.01  -0.02  -0.14    -0.01  -0.01   0.11
  10   1    -0.05  -0.01  -0.04    -0.16   0.10   0.09     0.13  -0.05  -0.04
  11   1    -0.16  -0.01  -0.05    -0.07  -0.01   0.18     0.03   0.01  -0.10
  12   1    -0.12   0.07   0.01    -0.13   0.09   0.03     0.08  -0.03   0.03
  13   1    -0.04   0.07   0.03    -0.01   0.05  -0.15     0.01  -0.01   0.13
  14   1    -0.11   0.09   0.01     0.07  -0.06  -0.06    -0.07   0.05   0.07
  15   1    -0.05   0.05   0.03     0.14  -0.12  -0.07    -0.11   0.08   0.05
  16   1    -0.10   0.00  -0.05     0.08  -0.13   0.09    -0.07   0.08  -0.06
  17   1     0.02  -0.10  -0.05     0.00   0.01   0.04     0.01   0.00  -0.03
  18   1     0.04  -0.07   0.06    -0.03  -0.02  -0.04     0.03   0.03   0.03
  19   1     0.01  -0.07   0.00    -0.01  -0.01   0.03     0.03  -0.00  -0.04
  20   1     0.00  -0.05   0.01    -0.01   0.00   0.03     0.02  -0.01  -0.04
  21   1    -0.03  -0.05  -0.05     0.03   0.04   0.08     0.03  -0.05   0.00
  22   1    -0.01  -0.10   0.02     0.03   0.08  -0.03    -0.01   0.01  -0.06
  23   1     0.09  -0.02   0.05    -0.03  -0.09  -0.16    -0.06  -0.16  -0.21
  24   1     0.06   0.03  -0.02    -0.12  -0.11   0.05    -0.21  -0.15   0.05
  25   1     0.03   0.03  -0.03     0.06   0.12   0.14     0.07   0.13   0.21
  26   1     0.06  -0.02   0.02     0.14   0.15  -0.08     0.21   0.12  -0.06
  27   1     0.15   0.05   0.05    -0.01  -0.06  -0.19     0.00  -0.08  -0.15
  28   1     0.13   0.10  -0.01    -0.10  -0.09   0.05    -0.16  -0.07   0.14
  29   1     0.12   0.08   0.00     0.06   0.07  -0.01     0.10   0.10   0.10
                      4                      5                      6
                        a                      a                      a 
 Frequencies --   104.1182               122.9095               160.6249
 Red. masses --     6.8899                 5.7974                 6.9185
 Frc consts  --     0.0000                 0.0000                 0.0000
 IR Inten    --     3.4175                 4.9030                 5.6872
 Raman Activ --     0.0000                 0.0000                 0.0000
 Depolar     --     0.0000                 0.0000                 0.0000
 Atom AN      X      Y      Z        X      Y      Z        X      Y      Z
   1   7    -0.13  -0.16  -0.06    -0.16  -0.17  -0.17     0.19   0.15   0.12
   2   6    -0.06   0.02   0.15     0.09   0.08   0.09    -0.00  -0.05  -0.08
   3   6    -0.01  -0.12   0.03     0.24  -0.14   0.13    -0.08   0.01  -0.20
   4   6     0.08  -0.07  -0.05     0.07   0.11   0.07    -0.23   0.13  -0.19
   5   6    -0.02   0.01  -0.13     0.06   0.10   0.02    -0.07   0.01   0.00
   6   6     0.07   0.09  -0.06     0.00   0.08  -0.04     0.00  -0.10   0.25
   7   6     0.24   0.34   0.08    -0.19  -0.14  -0.14    -0.02  -0.11   0.27
   8   6     0.16   0.19   0.10    -0.14  -0.12  -0.08    -0.05   0.02   0.08
   9   6    -0.28  -0.25  -0.04     0.06   0.20   0.12     0.22  -0.08  -0.25
  10   1     0.19  -0.11  -0.11     0.25  -0.15  -0.16     0.32   0.09  -0.12
  11   1    -0.24  -0.15  -0.14    -0.32  -0.21  -0.20    -0.17  -0.11  -0.05
  12   1    -0.07   0.10   0.16    -0.11   0.17   0.17     0.04   0.20   0.32
  13   1     0.04   0.02   0.10     0.09   0.05   0.08    -0.01  -0.01  -0.04
  14   1    -0.08   0.06   0.06    -0.03   0.11   0.02    -0.01  -0.07   0.01
  15   1    -0.00  -0.04  -0.00     0.13  -0.08  -0.03    -0.04  -0.02  -0.08
  16   1    -0.02  -0.06   0.01     0.08  -0.09   0.12    -0.00   0.01  -0.03
  17   1     0.05  -0.01  -0.02     0.01   0.08   0.08    -0.11   0.06  -0.01
  18   1     0.03  -0.03   0.00    -0.01   0.05  -0.03    -0.09   0.06  -0.11
  19   1    -0.02   0.04  -0.05     0.03   0.02   0.00    -0.06   0.01   0.02
  20   1    -0.03  -0.03  -0.06     0.01   0.03   0.01     0.04   0.00  -0.04
  21   1    -0.01   0.04  -0.06     0.03   0.01   0.03     0.01  -0.04   0.08
  22   1     0.03  -0.04   0.01    -0.00   0.08  -0.04     0.03  -0.04   0.07
  23   1     0.09   0.11   0.10    -0.08  -0.04  -0.10    -0.00  -0.04   0.07
  24   1     0.09   0.16  -0.02    -0.08  -0.09  -0.00     0.00  -0.04   0.08
  25   1     0.12   0.02   0.11    -0.08  -0.03  -0.08    -0.05   0.04   0.02
  26   1     0.04   0.14  -0.02    -0.03  -0.11   0.02    -0.04   0.04   0.01
  27   1    -0.15  -0.06  -0.13     0.05   0.07   0.12     0.11  -0.06  -0.08
  28   1    -0.11  -0.18   0.06     0.03   0.14  -0.02     0.10  -0.06  -0.07
  29   1    -0.08  -0.08   0.00     0.01   0.04   0.05     0.05   0.03  -0.15
                      7                      8                      9
                        a                      a                      a 
 Frequencies --   173.1245               218.8225               245.5009
 Red. masses --     7.2049                 6.8507                 2.6502
 Frc consts  --     0.0000                 0.0000                 0.0000
 IR Inten    --     8.5448                 3.5845                 0.2303
 Raman Activ --     0.0000                 0.0000                 0.0000
 Depolar     --     0.0000                 0.0000                 0.0000
 Atom AN      X      Y      Z        X      Y      Z        X      Y      Z
   1   7     0.18   0.22   0.15    -0.12  -0.14   0.05     0.03   0.03  -0.01
   2   6    -0.00  -0.01  -0.08    -0.12   0.00   0.21     0.02  -0.02  -0.06
   3   6    -0.08   0.04  -0.19    -0.15  -0.07  -0.09     0.02   0.03   0.05
   4   6     0.12  -0.41  -0.04     0.07  -0.05  -0.23    -0.05   0.04   0.08
   5   6    -0.03  -0.11   0.18    -0.01   0.10  -0.17    -0.00  -0.04   0.03
   6   6     0.05   0.20  -0.02     0.35   0.33   0.18    -0.11  -0.12  -0.07
   7   6    -0.03   0.02  -0.18    -0.06  -0.08   0.07    -0.04  -0.06  -0.06
   8   6    -0.03  -0.06  -0.08    -0.03  -0.04   0.05     0.19   0.20   0.07
   9   6    -0.18   0.07   0.18     0.09  -0.04  -0.05    -0.06  -0.04  -0.00
  10   1     0.22   0.12  -0.07    -0.13  -0.08   0.08     0.03   0.02  -0.02
  11   1    -0.08  -0.04   0.00     0.05   0.04   0.02    -0.01  -0.01  -0.01
  12   1     0.05   0.15   0.24    -0.02  -0.11  -0.10     0.01   0.03   0.03
  13   1    -0.01   0.01  -0.05     0.02   0.01   0.12    -0.02  -0.01  -0.04
  14   1    -0.00  -0.06   0.00    -0.11   0.04   0.09     0.03  -0.02  -0.03
  15   1    -0.06   0.08   0.03    -0.09  -0.02  -0.02     0.02   0.01   0.01
  16   1    -0.06   0.05  -0.16    -0.07  -0.02  -0.07     0.02   0.01   0.03
  17   1     0.10  -0.20  -0.13     0.05  -0.02  -0.09    -0.03   0.02   0.04
  18   1     0.05  -0.20   0.11     0.03  -0.03  -0.03    -0.01   0.03   0.00
  19   1    -0.02  -0.09   0.10    -0.10   0.08  -0.04     0.03  -0.03   0.00
  20   1    -0.04   0.01   0.12    -0.00  -0.02  -0.10     0.00   0.00   0.02
  21   1     0.01   0.10   0.06     0.15   0.14   0.23    -0.04  -0.05  -0.06
  22   1     0.03   0.12  -0.05     0.22   0.19  -0.05    -0.06  -0.05   0.00
  23   1    -0.03   0.01  -0.09    -0.08  -0.02  -0.11     0.01  -0.07  -0.07
  24   1    -0.02  -0.03  -0.03    -0.06  -0.13   0.09    -0.08  -0.02   0.01
  25   1     0.00  -0.04  -0.04    -0.02  -0.00   0.01     0.08   0.08   0.12
  26   1     0.00  -0.05  -0.01    -0.02  -0.01   0.01     0.11   0.12  -0.04
  27   1    -0.08   0.06   0.09     0.01   0.07   0.13    -0.19   0.29   0.34
  28   1    -0.05   0.07   0.02     0.19   0.01  -0.10     0.42   0.01  -0.20
  29   1    -0.06  -0.04   0.10    -0.08  -0.11  -0.10    -0.33  -0.40  -0.16
                     10                     11                     12
                        a                      a                      a 
 Frequencies --   265.0322               295.7303               356.0569
 Red. masses --     8.4490                 6.5871                 8.0117
 Frc consts  --     0.0000                 0.0000                 0.0000
 IR Inten    --     3.3841                 1.9464                13.4980
 Raman Activ --     0.0000                 0.0000                 0.0000
 Depolar     --     0.0000                 0.0000                 0.0000
 Atom AN      X      Y      Z        X      Y      Z        X      Y      Z
   1   7    -0.10  -0.14   0.09    -0.17  -0.12   0.07     0.19   0.22  -0.16
   2   6    -0.09  -0.19  -0.02     0.06  -0.27  -0.25    -0.17   0.11  -0.07
   3   6    -0.20   0.06  -0.02    -0.10   0.29   0.23     0.02  -0.13   0.22
   4   6    -0.30   0.30  -0.08     0.14   0.06   0.23    -0.18  -0.04   0.27
   5   6     0.09   0.01   0.22    -0.02   0.09  -0.22    -0.35  -0.06  -0.16
   6   6     0.11   0.15   0.01     0.10   0.05  -0.03     0.01   0.13   0.08
   7   6     0.25  -0.00  -0.25    -0.03  -0.01   0.02     0.14  -0.03  -0.13
   8   6     0.27  -0.13  -0.16    -0.02  -0.05   0.04     0.17  -0.14  -0.08
   9   6    -0.00  -0.05   0.15     0.06  -0.05  -0.02     0.09  -0.11   0.07
  10   1    -0.01  -0.02   0.01     0.02   0.02  -0.03     0.09   0.11  -0.08
  11   1    -0.05  -0.07   0.04    -0.14  -0.15   0.06     0.08   0.12  -0.08
  12   1    -0.04  -0.01   0.05    -0.10   0.09   0.11     0.12  -0.02   0.03
  13   1    -0.07  -0.08  -0.04    -0.14  -0.14  -0.20    -0.06   0.02  -0.02
  14   1     0.02  -0.09  -0.02     0.20  -0.15  -0.15    -0.03   0.03  -0.03
  15   1    -0.10  -0.02  -0.03    -0.13   0.16   0.17     0.14  -0.06  -0.00
  16   1    -0.01   0.05   0.02     0.01   0.21  -0.06     0.02  -0.10   0.17
  17   1    -0.20   0.11   0.06     0.12  -0.01  -0.00    -0.02   0.04   0.12
  18   1    -0.09   0.17  -0.13     0.09  -0.01   0.16    -0.06   0.01   0.04
  19   1     0.03  -0.11   0.13    -0.01   0.15  -0.14    -0.15   0.16  -0.14
  20   1     0.10   0.10   0.13    -0.06  -0.07  -0.15    -0.17  -0.16  -0.17
  21   1     0.01   0.08   0.04     0.04   0.02   0.03    -0.02   0.11   0.12
  22   1     0.02   0.10  -0.03     0.07   0.02  -0.03     0.09   0.08  -0.04
  23   1     0.06   0.01  -0.07    -0.02   0.00  -0.02     0.03  -0.01  -0.05
  24   1     0.09  -0.03  -0.06    -0.02  -0.02   0.02     0.05  -0.04  -0.02
  25   1     0.11  -0.07  -0.04    -0.01  -0.01   0.00     0.07  -0.06  -0.03
  26   1     0.10  -0.06  -0.04    -0.01  -0.02   0.02     0.06  -0.06  -0.01
  27   1    -0.04   0.01   0.03     0.04  -0.03  -0.01     0.01  -0.02   0.02
  28   1    -0.06   0.02   0.05     0.02  -0.02  -0.00     0.00  -0.02   0.02
  29   1     0.03  -0.05   0.13     0.02   0.01  -0.03     0.04  -0.04   0.05
                     13                     14                     15
                        a                      a                      a 
 Frequencies --   399.6870               446.3710               509.5530
 Red. masses --     8.6573                 8.2958                 7.8808
 Frc consts  --     0.0000                 0.0000                 0.0000
 IR Inten    --     0.1166                 5.3873                 2.9718
 Raman Activ --     0.0000                 0.0000                 0.0000
 Depolar     --     0.0000                 0.0000                 0.0000
 Atom AN      X      Y      Z        X      Y      Z        X      Y      Z
   1   7    -0.00  -0.01   0.01     0.08   0.10  -0.09     0.02   0.02  -0.06
   2   6     0.01   0.00   0.01    -0.33  -0.08  -0.10    -0.32  -0.11  -0.07
   3   6     0.01  -0.02  -0.03    -0.14  -0.15   0.23    -0.12  -0.19   0.08
   4   6    -0.01  -0.03  -0.00     0.04   0.01   0.07     0.27   0.06  -0.14
   5   6    -0.07   0.12   0.10     0.32  -0.24  -0.00     0.10   0.50   0.07
   6   6    -0.18   0.23  -0.29     0.29   0.02  -0.22    -0.15   0.00   0.16
   7   6    -0.16   0.21  -0.17    -0.11   0.11   0.07     0.03  -0.09   0.01
   8   6     0.01  -0.16   0.35    -0.19   0.10   0.13     0.08  -0.04  -0.07
   9   6     0.37  -0.33   0.03    -0.05   0.07  -0.07     0.01  -0.02   0.03
  10   1    -0.00  -0.01   0.01     0.08   0.11  -0.08     0.05   0.09  -0.06
  11   1     0.00  -0.00   0.00     0.06   0.08  -0.06     0.04   0.06  -0.04
  12   1    -0.00  -0.00  -0.00     0.11  -0.06   0.08     0.08  -0.08   0.07
  13   1     0.01   0.01   0.01    -0.17  -0.06  -0.07    -0.15  -0.06  -0.06
  14   1    -0.01   0.00   0.01    -0.01  -0.06  -0.07    -0.02  -0.06  -0.05
  15   1     0.00  -0.01  -0.01     0.06  -0.07   0.01     0.03  -0.10  -0.04
  16   1    -0.00  -0.01  -0.01    -0.05  -0.11   0.14    -0.08  -0.15   0.08
  17   1     0.01  -0.02  -0.02    -0.06   0.04   0.10     0.24   0.01  -0.13
  18   1    -0.02  -0.04   0.02     0.06   0.12  -0.05     0.07  -0.11   0.09
  19   1     0.03  -0.06   0.07     0.14  -0.18   0.04     0.00   0.11   0.05
  20   1    -0.05   0.11   0.13     0.10   0.02   0.10     0.07   0.15   0.01
  21   1    -0.07   0.07  -0.11     0.10   0.03   0.01    -0.01  -0.12  -0.12
  22   1    -0.10   0.08  -0.07     0.14   0.02  -0.09    -0.20  -0.05   0.14
  23   1    -0.09   0.10  -0.04    -0.08   0.07  -0.00     0.04  -0.06   0.00
  24   1    -0.10   0.11  -0.06    -0.06   0.05   0.02     0.03  -0.05   0.01
  25   1     0.02  -0.06   0.09    -0.07   0.04   0.02     0.03  -0.01  -0.01
  26   1     0.02  -0.06   0.09    -0.08   0.04   0.04     0.03  -0.01  -0.02
  27   1     0.19  -0.17   0.01     0.02  -0.01  -0.02    -0.01   0.01   0.01
  28   1     0.19  -0.16   0.01     0.01  -0.00  -0.02    -0.01   0.01   0.01
  29   1     0.07   0.00  -0.14    -0.02   0.06  -0.07     0.01  -0.03   0.04
                     16                     17                     18
                        a                      a                      a 
 Frequencies --   755.3564               776.2754               810.9028
 Red. masses --     2.2906                 2.4156                 2.5978
 Frc consts  --     0.0000                 0.0000                 0.0000
 IR Inten    --    12.8884                22.6801                38.5348
 Raman Activ --     0.0000                 0.0000                 0.0000
 Depolar     --     0.0000                 0.0000                 0.0000
 Atom AN      X      Y      Z        X      Y      Z        X      Y      Z
   1   7     0.02  -0.01   0.02     0.05  -0.02   0.04     0.05   0.05   0.10
   2   6     0.04   0.05   0.04     0.06   0.07   0.04     0.03   0.14   0.14
   3   6    -0.03   0.10   0.06    -0.05   0.13   0.02    -0.06   0.09  -0.02
   4   6    -0.07   0.11  -0.08    -0.13   0.08  -0.05    -0.01  -0.07  -0.08
   5   6    -0.12  -0.00  -0.11    -0.09  -0.06  -0.07     0.05  -0.09   0.08
   6   6    -0.09  -0.11  -0.05     0.02  -0.03  -0.04     0.09   0.09   0.06
   7   6    -0.07  -0.13   0.01     0.10   0.08   0.08     0.01   0.05  -0.05
   8   6    -0.02  -0.05  -0.04     0.10   0.12   0.05    -0.10  -0.09  -0.02
   9   6    -0.00  -0.00  -0.00     0.01   0.02   0.00    -0.03  -0.02  -0.01
  10   1     0.01  -0.08   0.03     0.00  -0.12   0.05     0.07  -0.37   0.12
  11   1    -0.02  -0.01  -0.03    -0.04  -0.02  -0.03    -0.09   0.10  -0.24
  12   1    -0.02   0.02  -0.04    -0.04   0.04  -0.07    -0.04   0.02  -0.15
  13   1    -0.06  -0.02  -0.04    -0.08  -0.03  -0.05    -0.25  -0.03  -0.22
  14   1     0.09  -0.03  -0.02     0.11  -0.05  -0.02     0.29  -0.20  -0.04
  15   1     0.08  -0.10  -0.14     0.11  -0.12  -0.19     0.07  -0.06  -0.12
  16   1     0.07  -0.05   0.22     0.05  -0.07   0.25    -0.05  -0.10   0.11
  17   1     0.16  -0.08  -0.23     0.10  -0.11  -0.22    -0.11  -0.08  -0.03
  18   1     0.05  -0.11   0.23     0.05  -0.09   0.22     0.02   0.02  -0.04
  19   1     0.05  -0.19   0.05     0.03  -0.14   0.04    -0.08   0.11  -0.02
  20   1     0.07   0.16   0.10     0.04   0.09   0.07    -0.04  -0.14  -0.08
  21   1     0.07   0.05   0.32    -0.05   0.03  -0.04    -0.04  -0.02  -0.19
  22   1     0.18   0.17  -0.21     0.06  -0.09   0.01    -0.12  -0.09   0.14
  23   1     0.08   0.03   0.34     0.03  -0.12  -0.28    -0.09   0.08  -0.07
  24   1     0.17   0.19  -0.19    -0.21  -0.13   0.19     0.04  -0.07   0.02
  25   1    -0.01   0.08   0.18    -0.01  -0.10  -0.35     0.04   0.02   0.21
  26   1     0.14   0.08  -0.12    -0.23  -0.17   0.22     0.09   0.13  -0.13
  27   1     0.03  -0.00   0.05    -0.11   0.04  -0.13     0.11  -0.06   0.12
  28   1    -0.01   0.06  -0.03     0.01  -0.14   0.08    -0.01   0.13  -0.07
  29   1     0.01   0.00   0.02    -0.03  -0.04  -0.01     0.03   0.06   0.00
                     19                     20                     21
                        a                      a                      a 
 Frequencies --   821.2478               854.3218               893.1898
 Red. masses --     3.6161                 4.7738                 5.5676
 Frc consts  --     0.0000                 0.0000                 0.0000
 IR Inten    --    13.9533                 3.6230                37.4432
 Raman Activ --     0.0000                 0.0000                 0.0000
 Depolar     --     0.0000                 0.0000                 0.0000
 Atom AN      X      Y      Z        X      Y      Z        X      Y      Z
   1   7     0.04  -0.15   0.00     0.00  -0.14   0.13     0.18   0.16  -0.25
   2   6    -0.06  -0.05  -0.14    -0.16   0.05  -0.05     0.17  -0.05   0.09
   3   6    -0.06   0.16  -0.16     0.02   0.15  -0.24    -0.24  -0.05   0.23
   4   6    -0.15   0.07   0.17     0.10   0.01   0.08     0.11  -0.04  -0.20
   5   6     0.08   0.00   0.07     0.21  -0.04   0.20     0.06  -0.12   0.03
   6   6     0.18   0.04  -0.04    -0.07  -0.06   0.06    -0.07   0.04   0.14
   7   6     0.04   0.04  -0.02    -0.10  -0.05  -0.18    -0.04   0.01  -0.12
   8   6    -0.10  -0.08   0.00     0.04   0.10   0.09    -0.01   0.02   0.03
   9   6    -0.05  -0.01  -0.02     0.03   0.07   0.04     0.01   0.02   0.03
  10   1    -0.08   0.20  -0.03     0.03  -0.07   0.03    -0.15   0.10   0.02
  11   1     0.05  -0.18   0.25     0.00   0.01  -0.03    -0.03  -0.28   0.27
  12   1    -0.02   0.04   0.08     0.03  -0.09   0.05    -0.19   0.38  -0.19
  13   1     0.15  -0.02   0.19    -0.07  -0.01  -0.02    -0.03  -0.16   0.12
  14   1    -0.24   0.12   0.05    -0.04  -0.06   0.01     0.10   0.07  -0.04
  15   1     0.15  -0.10  -0.23     0.13  -0.03  -0.17    -0.04  -0.09  -0.01
  16   1     0.09  -0.05   0.23    -0.00  -0.07   0.07    -0.13  -0.12   0.11
  17   1    -0.00  -0.15  -0.14    -0.12  -0.08   0.01    -0.03   0.00  -0.01
  18   1     0.05  -0.05   0.24     0.05   0.05  -0.01     0.08   0.08  -0.08
  19   1     0.01   0.12  -0.05    -0.01   0.30  -0.11    -0.10   0.03   0.02
  20   1    -0.02  -0.09  -0.06    -0.05  -0.26  -0.18     0.03  -0.09  -0.07
  21   1    -0.00  -0.03  -0.19     0.05  -0.02   0.14    -0.02   0.00   0.02
  22   1    -0.05  -0.11   0.10    -0.08   0.19  -0.07    -0.10   0.06   0.04
  23   1    -0.08   0.06  -0.08     0.06   0.01   0.16    -0.00   0.03   0.04
  24   1     0.02  -0.08   0.04     0.02   0.18  -0.17     0.04   0.04  -0.07
  25   1     0.04   0.01   0.19    -0.09   0.03  -0.15    -0.03   0.02  -0.02
  26   1     0.06   0.12  -0.11     0.00  -0.17   0.13     0.04  -0.06   0.03
  27   1     0.10  -0.05   0.11    -0.11   0.05  -0.15    -0.02   0.00  -0.05
  28   1    -0.02   0.13  -0.07     0.07  -0.21   0.10     0.04  -0.08   0.04
  29   1     0.03   0.06  -0.00    -0.07  -0.03  -0.08    -0.03   0.01  -0.05
                     22                     23                     24
                        a                      a                      a 
 Frequencies --   910.0211               929.3525               951.5832
 Red. masses --     7.5494                 5.9321                 4.4638
 Frc consts  --     0.0000                 0.0000                 0.0000
 IR Inten    --    16.2792                16.4761                 3.7150
 Raman Activ --     0.0000                 0.0000                 0.0000
 Depolar     --     0.0000                 0.0000                 0.0000
 Atom AN      X      Y      Z        X      Y      Z        X      Y      Z
   1   7    -0.05  -0.25   0.08     0.13  -0.11   0.06     0.05   0.17  -0.06
   2   6    -0.11   0.14  -0.04    -0.10   0.12  -0.06    -0.01  -0.17   0.02
   3   6     0.13   0.23   0.05    -0.03   0.10  -0.07    -0.10  -0.12  -0.13
   4   6     0.30   0.05  -0.23     0.06  -0.15   0.07     0.06   0.09   0.13
   5   6    -0.06  -0.29  -0.07    -0.04   0.10  -0.05     0.17   0.01   0.10
   6   6    -0.30   0.02   0.20     0.02   0.13  -0.17    -0.19  -0.12  -0.02
   7   6     0.01   0.15  -0.01    -0.20  -0.04   0.32    -0.03   0.17   0.08
   8   6    -0.00  -0.00  -0.05     0.13  -0.01  -0.21     0.06   0.05  -0.07
   9   6    -0.00  -0.09   0.02     0.23  -0.13  -0.05     0.01  -0.18  -0.05
  10   1     0.01   0.16  -0.07    -0.04  -0.05   0.06    -0.02  -0.11   0.05
  11   1     0.07  -0.04   0.10    -0.02  -0.15   0.11    -0.05   0.01  -0.05
  12   1     0.09  -0.15   0.19    -0.06   0.10  -0.05    -0.07   0.13  -0.14
  13   1    -0.10  -0.06   0.02    -0.09  -0.07   0.03     0.06   0.02   0.01
  14   1     0.06   0.10  -0.08    -0.00  -0.00  -0.02    -0.10  -0.10   0.08
  15   1     0.15   0.05  -0.04     0.17   0.06  -0.04    -0.09  -0.06  -0.04
  16   1    -0.03  -0.05   0.06    -0.10  -0.10   0.03     0.01   0.00  -0.03
  17   1     0.01   0.06   0.02    -0.12   0.01   0.13    -0.00  -0.01   0.01
  18   1     0.13   0.14  -0.14    -0.01   0.05  -0.12     0.03   0.02   0.05
  19   1    -0.04  -0.12   0.02     0.05  -0.03  -0.00     0.13   0.14  -0.10
  20   1     0.02  -0.04   0.00    -0.14   0.07   0.11     0.01  -0.10  -0.07
  21   1    -0.16   0.13   0.13     0.06  -0.04  -0.07    -0.00   0.04   0.22
  22   1     0.01   0.02   0.01     0.00  -0.02  -0.01     0.05   0.14  -0.14
  23   1     0.03  -0.04  -0.12    -0.09   0.05   0.13     0.11  -0.12  -0.09
  24   1    -0.08  -0.03   0.07    -0.02   0.02   0.05    -0.26   0.13   0.07
  25   1     0.10  -0.08   0.02    -0.09   0.10  -0.07     0.17  -0.14  -0.05
  26   1    -0.05   0.08  -0.04    -0.01   0.03  -0.06    -0.22   0.17  -0.02
  27   1     0.10  -0.07   0.11    -0.17   0.15  -0.04     0.11  -0.06   0.18
  28   1    -0.02   0.10  -0.06    -0.13   0.05   0.03    -0.10   0.24  -0.12
  29   1     0.05   0.03   0.03     0.12  -0.28   0.33     0.12  -0.03   0.16
                     25                     26                     27
                        a                      a                      a 
 Frequencies --   962.8389               998.0051              1034.0640
 Red. masses --     5.5945                 5.1997                 7.5926
 Frc consts  --     0.0000                 0.0000                 0.0000
 IR Inten    --     4.2861                 7.7755                 6.2962
 Raman Activ --     0.0000                 0.0000                 0.0000
 Depolar     --     0.0000                 0.0000                 0.0000
 Atom AN      X      Y      Z        X      Y      Z        X      Y      Z
   1   7     0.21  -0.13   0.11    -0.12  -0.09  -0.11     0.13  -0.18   0.15
   2   6    -0.18   0.18  -0.13     0.15   0.13   0.21    -0.05   0.30  -0.24
   3   6    -0.01   0.02  -0.09     0.03   0.06   0.10     0.01  -0.15   0.17
   4   6     0.03  -0.11   0.13    -0.19  -0.15  -0.14    -0.25  -0.00  -0.04
   5   6    -0.09   0.22  -0.05    -0.01   0.17   0.17     0.11  -0.01  -0.02
   6   6     0.01  -0.09  -0.09     0.15  -0.08  -0.22     0.13  -0.16   0.19
   7   6     0.22  -0.11  -0.04     0.04  -0.08   0.05    -0.16   0.21  -0.21
   8   6    -0.02  -0.01   0.14     0.05   0.02   0.08    -0.04   0.09  -0.07
   9   6    -0.21   0.11  -0.00    -0.06  -0.02  -0.08     0.10  -0.12   0.04
  10   1    -0.05  -0.15   0.12    -0.00   0.26  -0.14     0.01  -0.10   0.07
  11   1    -0.04  -0.19   0.12     0.08   0.00   0.09     0.00  -0.09   0.06
  12   1    -0.10   0.16  -0.12     0.08  -0.11   0.18    -0.01   0.01  -0.01
  13   1    -0.11  -0.05   0.02    -0.14  -0.10  -0.01     0.01   0.10  -0.05
  14   1    -0.05  -0.03  -0.01     0.29   0.13  -0.13    -0.01   0.08  -0.06
  15   1     0.20   0.14   0.04    -0.04  -0.03  -0.00    -0.00   0.09   0.17
  16   1    -0.15  -0.11  -0.07    -0.06  -0.05   0.01    -0.05   0.01  -0.09
  17   1    -0.00   0.11   0.17    -0.11  -0.09  -0.06     0.16   0.05  -0.06
  18   1    -0.11  -0.02  -0.13    -0.14  -0.12  -0.07    -0.14  -0.17   0.08
  19   1     0.06  -0.04   0.01    -0.09   0.16   0.01    -0.11  -0.00   0.06
  20   1    -0.04   0.14   0.09    -0.07  -0.05  -0.03     0.32  -0.00  -0.16
  21   1     0.06  -0.03   0.08     0.17  -0.12  -0.00     0.06  -0.08   0.03
  22   1     0.08   0.02  -0.08    -0.05   0.11  -0.10    -0.04   0.00   0.06
  23   1     0.14  -0.12  -0.04     0.11  -0.11   0.04    -0.06   0.07  -0.05
  24   1     0.01  -0.03   0.01    -0.14   0.13  -0.01    -0.10   0.13  -0.07
  25   1     0.11  -0.12   0.03     0.08  -0.09  -0.04    -0.01   0.01  -0.04
  26   1    -0.04   0.00   0.05    -0.15   0.07   0.05    -0.05   0.04  -0.02
  27   1     0.13  -0.11   0.05     0.04  -0.01   0.07    -0.00   0.00   0.03
  28   1     0.07   0.02  -0.05    -0.06   0.13  -0.07    -0.02   0.01   0.01
  29   1    -0.08   0.22  -0.22     0.04   0.02   0.04     0.05  -0.08   0.10
                     28                     29                     30
                        a                      a                      a 
 Frequencies --  1062.4668              1081.4046              1089.9750
 Red. masses --     4.7722                 7.7395                 7.0786
 Frc consts  --     0.0000                 0.0000                 0.0000
 IR Inten    --     1.8749                 6.6929                12.5484
 Raman Activ --     0.0000                 0.0000                 0.0000
 Depolar     --     0.0000                 0.0000                 0.0000
 Atom AN      X      Y      Z        X      Y      Z        X      Y      Z
   1   7    -0.04   0.01  -0.15    -0.08   0.12  -0.07     0.01  -0.14   0.07
   2   6    -0.03   0.00   0.30    -0.02  -0.25   0.14     0.21   0.28  -0.17
   3   6     0.10  -0.04  -0.24     0.09   0.22  -0.03    -0.27  -0.19   0.03
   4   6    -0.05   0.07   0.16    -0.06  -0.21   0.03    -0.03  -0.06   0.08
   5   6     0.05   0.07   0.04    -0.01   0.09  -0.17     0.16   0.07  -0.08
   6   6    -0.04  -0.18   0.07     0.12  -0.04   0.16    -0.13   0.11  -0.02
   7   6    -0.01   0.18  -0.06    -0.18   0.10  -0.10    -0.02  -0.02   0.13
   8   6    -0.10   0.00  -0.11    -0.05   0.25  -0.29    -0.05   0.15  -0.26
   9   6     0.08  -0.03   0.10     0.02  -0.19   0.27    -0.01  -0.09   0.25
  10   1    -0.04   0.15  -0.07    -0.00   0.02  -0.02     0.03   0.01  -0.01
  11   1     0.03  -0.05   0.08    -0.01   0.06  -0.05     0.03  -0.00   0.02
  12   1    -0.01   0.04   0.04     0.00  -0.00  -0.01     0.04  -0.08   0.07
  13   1    -0.22  -0.17   0.00    -0.01  -0.09   0.07     0.09   0.14  -0.09
  14   1     0.19  -0.03  -0.03    -0.06  -0.07   0.07     0.11   0.11  -0.09
  15   1     0.03   0.02  -0.03     0.19   0.08  -0.04    -0.23  -0.16  -0.05
  16   1    -0.14  -0.11  -0.16     0.07   0.02   0.11    -0.05  -0.03   0.01
  17   1     0.07   0.03   0.02    -0.09  -0.02   0.08    -0.16  -0.11  -0.00
  18   1    -0.20  -0.18   0.02    -0.00   0.03  -0.07     0.08   0.09   0.03
  19   1     0.27   0.05  -0.13    -0.08  -0.10   0.07     0.23   0.03  -0.11
  20   1     0.06   0.01  -0.03     0.03   0.11   0.05    -0.13   0.01   0.07
  21   1    -0.13   0.14   0.12     0.20  -0.21  -0.02     0.00   0.01   0.03
  22   1     0.27  -0.17  -0.02    -0.04  -0.04   0.08     0.04  -0.01  -0.01
  23   1    -0.14   0.13  -0.12     0.08  -0.06   0.04     0.07  -0.07   0.03
  24   1     0.07  -0.11   0.04    -0.02   0.07  -0.06     0.09  -0.11   0.05
  25   1    -0.08   0.08   0.04     0.06  -0.02  -0.12     0.02   0.02  -0.06
  26   1     0.11  -0.02  -0.07    -0.04   0.04  -0.05     0.03   0.01  -0.07
  27   1    -0.02   0.00  -0.04     0.15  -0.16   0.10     0.12  -0.14   0.05
  28   1     0.05  -0.10   0.06     0.12  -0.10   0.05     0.14  -0.13   0.06
  29   1    -0.01  -0.03  -0.00    -0.01   0.07  -0.08    -0.04   0.08  -0.12
                     31                     32                     33
                        a                      a                      a 
 Frequencies --  1108.1357              1134.5211              1141.2973
 Red. masses --     8.0681                 8.1233                 7.9370
 Frc consts  --     0.0000                 0.0000                 0.0000
 IR Inten    --     2.2359                 1.2910                 3.0543
 Raman Activ --     0.0000                 0.0000                 0.0000
 Depolar     --     0.0000                 0.0000                 0.0000
 Atom AN      X      Y      Z        X      Y      Z        X      Y      Z
   1   7    -0.03  -0.01  -0.01     0.05  -0.01   0.03     0.09   0.03  -0.00
   2   6     0.08   0.01   0.01    -0.07   0.02  -0.08    -0.25  -0.05   0.03
   3   6    -0.07   0.01  -0.02     0.01  -0.04   0.06     0.31   0.02   0.17
   4   6    -0.07  -0.14   0.08     0.24   0.22  -0.15    -0.19   0.03  -0.22
   5   6     0.12   0.07  -0.16    -0.33   0.01   0.36     0.20  -0.10   0.07
   6   6    -0.06  -0.01   0.20     0.24  -0.27  -0.13    -0.14   0.18  -0.20
   7   6    -0.32   0.23   0.08    -0.18   0.16   0.06    -0.06  -0.05   0.33
   8   6     0.38  -0.32   0.01     0.09  -0.02  -0.20     0.12  -0.04  -0.22
   9   6    -0.16   0.21  -0.19    -0.04   0.01   0.09    -0.08   0.04   0.12
  10   1     0.01   0.02  -0.02    -0.00  -0.04   0.03    -0.03  -0.04   0.04
  11   1     0.01   0.02  -0.01    -0.01  -0.03   0.01    -0.03  -0.06   0.03
  12   1     0.02  -0.03   0.03    -0.01   0.03  -0.03    -0.04   0.08  -0.06
  13   1     0.02   0.01  -0.01     0.02   0.03  -0.01    -0.09  -0.06   0.04
  14   1     0.03   0.01  -0.01    -0.05   0.02  -0.01    -0.06   0.00   0.00
  15   1     0.01  -0.02  -0.03    -0.12  -0.07  -0.00     0.04   0.11   0.16
  16   1    -0.01  -0.01   0.04     0.03   0.04  -0.02     0.13   0.12  -0.04
  17   1    -0.10  -0.06   0.04     0.04   0.03  -0.05    -0.00  -0.09  -0.17
  18   1     0.02   0.02   0.00     0.06   0.04  -0.02    -0.12  -0.15   0.01
  19   1     0.10  -0.05  -0.03    -0.16   0.10   0.06     0.04   0.10  -0.06
  20   1     0.06   0.07   0.01    -0.27  -0.09   0.09     0.08  -0.12  -0.11
  21   1     0.07  -0.08   0.06     0.09  -0.07   0.03    -0.09   0.10  -0.05
  22   1     0.04  -0.06   0.06     0.23  -0.18  -0.04    -0.07   0.09  -0.06
  23   1    -0.12   0.10   0.03    -0.10   0.07  -0.02     0.00  -0.04   0.07
  24   1    -0.13   0.09   0.02    -0.09   0.06   0.01     0.01  -0.07   0.11
  25   1     0.24  -0.21   0.02     0.07  -0.04  -0.03     0.07  -0.03  -0.02
  26   1     0.23  -0.21   0.02     0.11  -0.06  -0.06     0.09  -0.05  -0.06
  27   1    -0.02   0.04  -0.07     0.05  -0.06  -0.00     0.07  -0.08  -0.01
  28   1    -0.01   0.05  -0.07     0.07  -0.07   0.02     0.10  -0.08   0.03
  29   1    -0.05   0.09  -0.11    -0.04   0.06  -0.09    -0.06   0.10  -0.13
                     34                     35                     36
                        a                      a                      a 
 Frequencies --  1147.9405              1184.4275              1210.5745
 Red. masses --     7.1244                 5.3003                 4.9965
 Frc consts  --     0.0000                 0.0000                 0.0000
 IR Inten    --     0.4725                11.7766                 0.8416
 Raman Activ --     0.0000                 0.0000                 0.0000
 Depolar     --     0.0000                 0.0000                 0.0000
 Atom AN      X      Y      Z        X      Y      Z        X      Y      Z
   1   7     0.00  -0.06  -0.08    -0.14   0.06   0.08     0.03  -0.06  -0.07
   2   6    -0.02   0.12   0.15     0.31  -0.12  -0.13    -0.07   0.07   0.10
   3   6     0.04  -0.16  -0.30    -0.29   0.10  -0.01     0.04  -0.03  -0.08
   4   6     0.04   0.29   0.26     0.03  -0.01   0.02    -0.01  -0.05   0.08
   5   6    -0.09  -0.28  -0.06     0.00  -0.05   0.12     0.00   0.03  -0.06
   6   6     0.12   0.23  -0.01    -0.00  -0.03  -0.19    -0.05  -0.10  -0.04
   7   6    -0.15  -0.12   0.10     0.02   0.02   0.21     0.18   0.18   0.09
   8   6     0.14   0.06  -0.07     0.01  -0.08  -0.15    -0.23  -0.28  -0.13
   9   6    -0.08  -0.03   0.03    -0.01   0.05   0.08     0.17   0.20   0.10
  10   1    -0.03   0.08  -0.04     0.08  -0.04  -0.02    -0.03   0.06  -0.02
  11   1     0.03  -0.06   0.07     0.00   0.14  -0.10     0.02  -0.06   0.06
  12   1    -0.01   0.03   0.02     0.04  -0.11   0.01    -0.01   0.04   0.02
  13   1    -0.13  -0.01  -0.08     0.15  -0.07   0.11    -0.04   0.10  -0.11
  14   1     0.11  -0.09   0.01    -0.03   0.06   0.00     0.03  -0.11   0.05
  15   1    -0.07  -0.02  -0.04     0.25   0.10  -0.04    -0.07  -0.03  -0.01
  16   1    -0.10  -0.08  -0.19    -0.26  -0.22   0.06     0.10   0.07   0.01
  17   1     0.24   0.15   0.03     0.24   0.23   0.12    -0.03  -0.01   0.03
  18   1     0.05   0.03   0.17    -0.13  -0.11  -0.06     0.12   0.12   0.04
  19   1    -0.13  -0.12   0.06    -0.15   0.05   0.06    -0.18  -0.03   0.09
  20   1     0.05  -0.02   0.00     0.22  -0.05  -0.13     0.06   0.03  -0.02
  21   1     0.07  -0.07  -0.16    -0.07   0.10   0.02     0.15  -0.14   0.07
  22   1    -0.22   0.08   0.09    -0.06   0.10  -0.09    -0.15   0.20  -0.08
  23   1     0.06  -0.07   0.14    -0.04   0.01  -0.02     0.09  -0.09  -0.15
  24   1    -0.02   0.09  -0.04    -0.05  -0.01   0.08    -0.18   0.03   0.11
  25   1     0.08  -0.06  -0.09     0.01   0.01   0.03     0.06  -0.06   0.23
  26   1    -0.03  -0.03   0.03     0.05   0.02  -0.07     0.01   0.17  -0.19
  27   1     0.07  -0.07   0.05     0.01  -0.02  -0.04    -0.14   0.11  -0.20
  28   1     0.03   0.02  -0.03     0.06  -0.08   0.04     0.06  -0.21   0.15
  29   1    -0.01   0.07  -0.05    -0.04   0.03  -0.07    -0.08  -0.08  -0.05
                     37                     38                     39
                        a                      a                      a 
 Frequencies --  1236.1849              1259.3156              1272.6930
 Red. masses --     3.5027                 3.0463                 2.4549
 Frc consts  --     0.0000                 0.0000                 0.0000
 IR Inten    --    10.2713                 5.9784                 0.5276
 Raman Activ --     0.0000                 0.0000                 0.0000
 Depolar     --     0.0000                 0.0000                 0.0000
 Atom AN      X      Y      Z        X      Y      Z        X      Y      Z
   1   7     0.02  -0.12  -0.15     0.02   0.08   0.11    -0.03   0.01  -0.03
   2   6    -0.01   0.09   0.15    -0.08  -0.00  -0.06     0.07  -0.04   0.01
   3   6    -0.10   0.04  -0.02     0.10  -0.05  -0.13     0.05  -0.13   0.04
   4   6     0.02  -0.18   0.01     0.05  -0.07   0.17    -0.12   0.16  -0.05
   5   6     0.01   0.14   0.05    -0.02   0.10  -0.08     0.01   0.00  -0.02
   6   6    -0.03  -0.12  -0.11    -0.03  -0.15  -0.05    -0.08  -0.10  -0.03
   7   6     0.03  -0.05   0.08     0.12   0.00   0.08     0.10   0.12   0.03
   8   6     0.12   0.09  -0.01     0.09   0.03  -0.03     0.02   0.05   0.03
   9   6    -0.11  -0.10  -0.01    -0.08  -0.06   0.01    -0.05  -0.07  -0.04
  10   1    -0.06   0.13  -0.06     0.02  -0.09   0.06     0.00   0.01  -0.01
  11   1     0.06  -0.08   0.10    -0.05   0.03  -0.06     0.01   0.01   0.00
  12   1    -0.01   0.05   0.06     0.01  -0.01  -0.04     0.02  -0.02   0.02
  13   1     0.05   0.32  -0.28    -0.13  -0.30   0.22     0.05   0.02  -0.01
  14   1    -0.02  -0.32   0.19     0.09   0.33  -0.21    -0.00  -0.08   0.05
  15   1     0.02   0.01  -0.02    -0.23  -0.16  -0.09     0.30   0.26   0.19
  16   1     0.15   0.10   0.12     0.11   0.07  -0.03    -0.27  -0.18  -0.19
  17   1     0.00   0.06   0.11    -0.12  -0.07   0.06    -0.15  -0.18  -0.18
  18   1     0.08   0.08  -0.02     0.12   0.11   0.05     0.24   0.18   0.20
  19   1    -0.20   0.04   0.10    -0.24  -0.05   0.14    -0.05   0.01   0.01
  20   1     0.24   0.03  -0.12     0.19   0.08  -0.07    -0.14  -0.01   0.06
  21   1    -0.15   0.15   0.02    -0.05   0.04   0.04     0.20  -0.18   0.12
  22   1     0.07   0.01  -0.08    -0.09   0.16  -0.09    -0.11   0.16  -0.07
  23   1    -0.16   0.14  -0.01    -0.20   0.17  -0.07    -0.12   0.12  -0.11
  24   1     0.04  -0.05   0.02    -0.02  -0.02   0.05     0.12  -0.16   0.08
  25   1    -0.12   0.12  -0.10    -0.15   0.14  -0.06    -0.10   0.09  -0.04
  26   1     0.05  -0.11   0.06     0.05  -0.06   0.02     0.11  -0.12   0.04
  27   1     0.08  -0.07   0.10     0.06  -0.06   0.06     0.03  -0.02   0.06
  28   1    -0.00   0.08  -0.07     0.01   0.05  -0.04    -0.02   0.06  -0.04
  29   1     0.02   0.07  -0.01     0.01   0.06  -0.03     0.03   0.02   0.02
                     40                     41                     42
                        a                      a                      a 
 Frequencies --  1278.3069              1283.4373              1289.8157
 Red. masses --     2.8270                 1.6836                 2.8626
 Frc consts  --     0.0000                 0.0000                 0.0000
 IR Inten    --     0.9893                 0.7955                 2.6458
 Raman Activ --     0.0000                 0.0000                 0.0000
 Depolar     --     0.0000                 0.0000                 0.0000
 Atom AN      X      Y      Z        X      Y      Z        X      Y      Z
   1   7    -0.01   0.01  -0.02     0.01  -0.00  -0.01    -0.00   0.01   0.03
   2   6     0.02  -0.02   0.00    -0.02   0.01  -0.01     0.00   0.00   0.03
   3   6     0.03  -0.05   0.03     0.00   0.09   0.02    -0.02  -0.12  -0.09
   4   6    -0.00   0.04  -0.01     0.06  -0.00  -0.01    -0.07  -0.06   0.03
   5   6    -0.04   0.09  -0.04    -0.02  -0.07   0.00     0.03   0.08   0.11
   6   6     0.10  -0.07   0.07    -0.09  -0.08  -0.04    -0.09   0.07  -0.16
   7   6     0.00  -0.27  -0.04    -0.06   0.03  -0.01    -0.20   0.01  -0.03
   8   6     0.14  -0.05  -0.07     0.06   0.12   0.06    -0.11   0.09   0.06
   9   6     0.03   0.10   0.12     0.04   0.03  -0.01     0.09   0.04  -0.05
  10   1    -0.01  -0.00   0.00    -0.00  -0.00   0.00     0.01  -0.00   0.00
  11   1    -0.00  -0.00  -0.00    -0.00  -0.01   0.01    -0.01   0.02  -0.03
  12   1     0.02  -0.01   0.03     0.00  -0.00  -0.00    -0.01   0.00  -0.01
  13   1     0.02   0.02  -0.01     0.00   0.03  -0.02    -0.04  -0.08   0.06
  14   1     0.00  -0.02   0.01    -0.03  -0.02   0.02     0.07   0.10  -0.07
  15   1     0.11   0.09   0.07    -0.13  -0.10  -0.08     0.10   0.09   0.06
  16   1    -0.11  -0.08  -0.08     0.05   0.03   0.07     0.04   0.03  -0.04
  17   1    -0.18  -0.15  -0.07     0.10   0.10   0.06    -0.04  -0.04  -0.00
  18   1     0.12   0.08   0.09    -0.15  -0.14  -0.07     0.24   0.21   0.11
  19   1     0.03  -0.00  -0.01     0.05  -0.03  -0.02    -0.25   0.06   0.11
  20   1     0.02   0.06   0.02    -0.04  -0.04  -0.00     0.24  -0.01  -0.14
  21   1    -0.24   0.22  -0.04     0.21  -0.21   0.09    -0.04   0.05  -0.01
  22   1    -0.00  -0.02   0.03    -0.16   0.19  -0.08     0.30  -0.25  -0.02
  23   1    -0.29   0.25   0.08    -0.30   0.26  -0.03     0.17  -0.16   0.09
  24   1    -0.11   0.17  -0.10     0.41  -0.35   0.04     0.27  -0.21  -0.02
  25   1     0.15  -0.13  -0.02     0.27  -0.23  -0.04     0.28  -0.26   0.03
  26   1    -0.41   0.36  -0.05    -0.21   0.14   0.04    -0.03   0.01   0.02
  27   1    -0.03   0.01  -0.09    -0.03   0.03  -0.02    -0.04   0.06  -0.03
  28   1     0.07  -0.09   0.06     0.01  -0.02   0.02    -0.02  -0.03   0.03
  29   1    -0.05   0.04  -0.09     0.01  -0.01   0.02     0.02  -0.07   0.06
                     43                     44                     45
                        a                      a                      a 
 Frequencies --  1314.5427              1335.5199              1355.3404
 Red. masses --     3.2865                 3.7115                 4.1171
 Frc consts  --     0.0000                 0.0000                 0.0000
 IR Inten    --    10.4833                25.6424                 0.8431
 Raman Activ --     0.0000                 0.0000                 0.0000
 Depolar     --     0.0000                 0.0000                 0.0000
 Atom AN      X      Y      Z        X      Y      Z        X      Y      Z
   1   7     0.04  -0.06   0.08     0.15  -0.10   0.09     0.02   0.00   0.00
   2   6    -0.06  -0.05   0.13    -0.18  -0.30   0.14    -0.03  -0.04  -0.00
   3   6    -0.21  -0.15  -0.17     0.02   0.11  -0.00     0.06   0.06   0.03
   4   6    -0.15  -0.11  -0.14     0.11   0.08   0.09     0.01  -0.01   0.02
   5   6     0.01  -0.02   0.09    -0.06  -0.01  -0.04    -0.07  -0.06   0.10
   6   6    -0.02  -0.00   0.05     0.04  -0.01  -0.02    -0.24   0.24  -0.06
   7   6     0.05  -0.02  -0.01    -0.01   0.01   0.02     0.02   0.04  -0.07
   8   6     0.06  -0.03  -0.01    -0.05   0.04  -0.00     0.26  -0.23   0.03
   9   6    -0.02  -0.00   0.03     0.01  -0.00  -0.02    -0.06   0.00   0.09
  10   1     0.02   0.08  -0.02    -0.08   0.16   0.01    -0.01  -0.00   0.01
  11   1    -0.01   0.05  -0.08    -0.05   0.04  -0.17    -0.01  -0.01  -0.01
  12   1    -0.07   0.07  -0.09    -0.09   0.14  -0.11     0.00   0.00  -0.00
  13   1    -0.01   0.04  -0.03     0.21   0.42  -0.27     0.03   0.05  -0.03
  14   1     0.18   0.27  -0.19     0.14   0.37  -0.25    -0.00   0.02  -0.01
  15   1     0.25   0.20   0.08     0.03  -0.02  -0.06    -0.05  -0.06  -0.04
  16   1     0.31   0.23   0.11    -0.17  -0.12  -0.04    -0.09  -0.06  -0.03
  17   1     0.30   0.25   0.08    -0.14  -0.12  -0.04    -0.01  -0.01  -0.00
  18   1     0.18   0.14   0.07    -0.12  -0.09  -0.05     0.01   0.02  -0.01
  19   1     0.20   0.07  -0.11    -0.04  -0.04   0.02     0.01   0.00  -0.00
  20   1    -0.16  -0.04   0.07     0.09   0.03  -0.03     0.22  -0.04  -0.13
  21   1     0.05  -0.07  -0.01    -0.02   0.03   0.00     0.31  -0.28   0.03
  22   1    -0.02   0.03  -0.00    -0.05   0.03   0.00     0.26  -0.23   0.02
  23   1    -0.10   0.09  -0.02     0.03  -0.03   0.00     0.03  -0.00   0.01
  24   1    -0.04   0.04  -0.01     0.01  -0.01   0.00     0.01  -0.04   0.01
  25   1    -0.06   0.05  -0.02     0.04  -0.04   0.01    -0.29   0.26  -0.04
  26   1    -0.07   0.06  -0.01     0.06  -0.05   0.01    -0.27   0.25  -0.04
  27   1     0.00  -0.01  -0.01     0.01   0.00   0.01    -0.02  -0.01  -0.05
  28   1     0.01   0.01  -0.00    -0.01  -0.01   0.00     0.02   0.05  -0.03
  29   1    -0.01   0.03  -0.03     0.01  -0.02   0.02    -0.05   0.09  -0.12
                     46                     47                     48
                        a                      a                      a 
 Frequencies --  1363.2615              1370.1625              1379.1477
 Red. masses --     4.3295                 3.1783                 4.9198
 Frc consts  --     0.0000                 0.0000                 0.0000
 IR Inten    --    51.1859               233.1841                19.1946
 Raman Activ --     0.0000                 0.0000                 0.0000
 Depolar     --     0.0000                 0.0000                 0.0000
 Atom AN      X      Y      Z        X      Y      Z        X      Y      Z
   1   7     0.00   0.10  -0.08    -0.01  -0.27   0.18     0.02   0.07   0.01
   2   6    -0.02  -0.02   0.00     0.06   0.09  -0.09    -0.09  -0.09  -0.00
   3   6     0.02   0.00   0.01     0.11   0.04   0.07     0.29   0.24   0.07
   4   6     0.05  -0.08  -0.06    -0.04  -0.07  -0.03    -0.32  -0.24  -0.08
   5   6    -0.45  -0.01   0.18    -0.14   0.02   0.06     0.10   0.06   0.02
   6   6     0.13   0.03  -0.02     0.06  -0.01  -0.00     0.05  -0.07   0.00
   7   6     0.02  -0.01   0.04    -0.01   0.01   0.01    -0.04   0.02   0.00
   8   6    -0.08   0.07  -0.02    -0.01   0.01  -0.00     0.01  -0.01   0.00
   9   6     0.01  -0.00  -0.02     0.00   0.00  -0.00    -0.00   0.00  -0.00
  10   1    -0.06  -0.15   0.08     0.11   0.36  -0.17     0.03  -0.03   0.00
  11   1    -0.05  -0.11   0.09     0.14   0.33  -0.28    -0.10  -0.13   0.05
  12   1     0.11  -0.11   0.13    -0.29   0.32  -0.25     0.06  -0.12  -0.09
  13   1     0.02   0.02   0.00    -0.08  -0.14   0.08     0.08   0.11  -0.05
  14   1     0.02   0.01  -0.02    -0.12  -0.15   0.12    -0.00   0.02  -0.02
  15   1    -0.01   0.01   0.02    -0.09  -0.08  -0.03    -0.24  -0.18  -0.11
  16   1     0.00  -0.01   0.01    -0.07  -0.05  -0.05    -0.28  -0.22  -0.09
  17   1    -0.06  -0.04   0.00     0.00  -0.01  -0.01     0.30   0.23   0.08
  18   1     0.15   0.14  -0.01     0.10   0.10   0.01     0.26   0.24   0.09
  19   1     0.47   0.00  -0.22     0.17   0.00  -0.08     0.03   0.04  -0.01
  20   1     0.42   0.05  -0.20     0.13   0.01  -0.06    -0.14  -0.02   0.06
  21   1     0.07  -0.06  -0.06     0.00  -0.00  -0.02    -0.08   0.09   0.03
  22   1    -0.14   0.11   0.00    -0.05   0.04  -0.00    -0.02   0.00   0.01
  23   1     0.00  -0.01  -0.00    -0.00   0.00  -0.00     0.01  -0.02  -0.01
  24   1    -0.03   0.02   0.01     0.00  -0.00   0.00     0.03   0.00  -0.01
  25   1     0.06  -0.05   0.01     0.01  -0.01  -0.00    -0.00  -0.00  -0.00
  26   1     0.10  -0.09   0.01     0.01  -0.01  -0.00    -0.01   0.01  -0.00
  27   1     0.01  -0.00   0.02     0.00  -0.00   0.00     0.00  -0.00  -0.00
  28   1    -0.01  -0.01   0.01     0.00  -0.00   0.00     0.00  -0.00  -0.00
  29   1     0.01  -0.02   0.03     0.00  -0.00   0.01     0.00  -0.00   0.00
                     49                     50                     51
                        a                      a                      a 
 Frequencies --  1382.4582              1396.5188              1404.0140
 Red. masses --     5.3561                 1.6959                 1.6532
 Frc consts  --     0.0000                 0.0000                 0.0000
 IR Inten    --     4.3778               110.2898               102.5400
 Raman Activ --     0.0000                 0.0000                 0.0000
 Depolar     --     0.0000                 0.0000                 0.0000
 Atom AN      X      Y      Z        X      Y      Z        X      Y      Z
   1   7     0.00  -0.01   0.00    -0.01  -0.09  -0.17     0.19  -0.04  -0.00
   2   6    -0.01  -0.01  -0.01    -0.03  -0.06  -0.02     0.09   0.06  -0.04
   3   6     0.04   0.04   0.02     0.05   0.05   0.01    -0.01  -0.01  -0.00
   4   6    -0.03  -0.01  -0.01    -0.06  -0.04  -0.02    -0.03  -0.01   0.01
   5   6     0.07  -0.05   0.02     0.03   0.01   0.00     0.02  -0.00   0.00
   6   6    -0.25   0.21  -0.01     0.01  -0.01   0.00    -0.00  -0.01   0.00
   7   6     0.31  -0.28   0.04    -0.01   0.01  -0.00    -0.00   0.00  -0.00
   8   6    -0.22   0.21  -0.06     0.01  -0.01   0.00     0.00  -0.00  -0.00
   9   6     0.04  -0.02  -0.04    -0.00   0.00  -0.00     0.00  -0.01   0.00
  10   1    -0.00   0.01  -0.00    -0.20  -0.32   0.19    -0.60   0.26   0.22
  11   1     0.01   0.01  -0.01     0.37   0.33   0.01    -0.38  -0.06  -0.47
  12   1    -0.01   0.01  -0.00    -0.10   0.41   0.55     0.11  -0.04   0.23
  13   1     0.01   0.01  -0.00     0.03   0.01   0.01    -0.04  -0.09   0.05
  14   1    -0.01  -0.00   0.01     0.01   0.06  -0.05    -0.05  -0.07   0.06
  15   1    -0.03  -0.05  -0.04    -0.02  -0.04  -0.04    -0.02   0.01   0.02
  16   1    -0.05  -0.03  -0.03    -0.05  -0.03  -0.04    -0.00  -0.01   0.02
  17   1     0.05   0.05   0.03     0.07   0.06   0.02     0.07   0.02  -0.01
  18   1     0.00  -0.02   0.03     0.04   0.03   0.03     0.00   0.03  -0.03
  19   1    -0.06   0.02   0.02    -0.01   0.01   0.00    -0.01   0.01   0.00
  20   1     0.02  -0.03  -0.02    -0.05  -0.01   0.02    -0.03  -0.01   0.01
  21   1     0.20  -0.20   0.02    -0.02   0.02   0.01    -0.00   0.00   0.00
  22   1     0.22  -0.18   0.02    -0.00   0.00  -0.00     0.00  -0.00  -0.00
  23   1    -0.28   0.25  -0.04     0.01  -0.01  -0.00    -0.00  -0.00  -0.00
  24   1    -0.27   0.25  -0.04     0.01  -0.01  -0.00     0.00   0.00  -0.00
  25   1     0.20  -0.16   0.04    -0.01   0.00  -0.00    -0.00   0.00   0.00
  26   1     0.18  -0.18   0.02    -0.01   0.01  -0.00    -0.00   0.00  -0.00
  27   1     0.02   0.01   0.05     0.00  -0.00  -0.00    -0.01   0.00  -0.00
  28   1    -0.02  -0.04   0.03     0.00  -0.00   0.00    -0.00   0.01  -0.00
  29   1     0.02  -0.04   0.05    -0.00  -0.00   0.00    -0.00   0.01  -0.01
                     52                     53                     54
                        a                      a                      a 
 Frequencies --  1430.9596              1480.3615              1496.7879
 Red. masses --     3.2630                 1.8536                 1.9086
 Frc consts  --     0.0000                 0.0000                 0.0000
 IR Inten    --     0.1891                12.8892                 1.4858
 Raman Activ --     0.0000                 0.0000                 0.0000
 Depolar     --     0.0000                 0.0000                 0.0000
 Atom AN      X      Y      Z        X      Y      Z        X      Y      Z
   1   7    -0.00   0.00  -0.00    -0.01   0.00  -0.00    -0.00  -0.01   0.01
   2   6    -0.00  -0.00   0.00    -0.26   0.07  -0.07    -0.02  -0.00  -0.02
   3   6     0.00   0.00   0.00    -0.01   0.00   0.01     0.09   0.01  -0.26
   4   6    -0.00  -0.00  -0.00     0.01   0.01   0.01     0.01   0.02   0.01
   5   6    -0.00   0.00  -0.00     0.00   0.00  -0.00    -0.00  -0.02  -0.01
   6   6     0.02  -0.01  -0.01    -0.00   0.00   0.00     0.00   0.01  -0.04
   7   6     0.00  -0.01   0.02    -0.00   0.00   0.00     0.02  -0.00  -0.04
   8   6    -0.07   0.07  -0.01     0.00  -0.00  -0.00    -0.01   0.01   0.00
   9   6     0.22  -0.29   0.24     0.00  -0.00  -0.00     0.00  -0.00  -0.00
  10   1     0.01  -0.01  -0.00    -0.01   0.04  -0.01     0.01  -0.00  -0.01
  11   1     0.01   0.00   0.01    -0.01   0.02  -0.03     0.03   0.03  -0.00
  12   1    -0.00   0.00  -0.00    -0.01   0.01  -0.01    -0.02   0.03   0.00
  13   1     0.00   0.00  -0.00     0.44   0.09   0.50     0.05   0.01   0.04
  14   1     0.00   0.00  -0.00     0.52  -0.41  -0.17     0.04  -0.02  -0.03
  15   1     0.00  -0.00  -0.00     0.03  -0.03  -0.05    -0.39   0.31   0.42
  16   1    -0.00   0.00  -0.00     0.01   0.04  -0.05     0.03  -0.37   0.55
  17   1    -0.00   0.00   0.00    -0.00  -0.01  -0.00     0.00  -0.02  -0.03
  18   1     0.00  -0.00   0.00    -0.03  -0.02  -0.01    -0.01   0.00  -0.02
  19   1     0.00   0.00  -0.00    -0.00  -0.01   0.01    -0.02   0.04  -0.02
  20   1     0.00   0.00   0.00    -0.00  -0.01  -0.01     0.01   0.03   0.03
  21   1    -0.02   0.02  -0.01    -0.00  -0.00  -0.01     0.02   0.02   0.09
  22   1    -0.02   0.02  -0.00     0.00   0.01  -0.00    -0.04  -0.07   0.05
  23   1    -0.00  -0.00   0.01    -0.00  -0.00  -0.00     0.00   0.04   0.09
  24   1    -0.00   0.00   0.01     0.00   0.00  -0.00    -0.07  -0.05   0.05
  25   1     0.06  -0.07  -0.04     0.00   0.00   0.00     0.00  -0.01  -0.02
  26   1     0.09  -0.04  -0.02    -0.00  -0.00   0.00     0.01   0.01  -0.01
  27   1    -0.39   0.22  -0.24    -0.00   0.00   0.00     0.00   0.00   0.01
  28   1    -0.21   0.45  -0.14     0.00  -0.00   0.00    -0.01  -0.00   0.00
  29   1    -0.09   0.26  -0.43     0.00   0.00  -0.00    -0.00  -0.00  -0.00
                     55                     56                     57
                        a                      a                      a 
 Frequencies --  1507.9459              1508.4368              1511.2412
 Red. masses --     1.5885                 1.8290                 1.5675
 Frc consts  --     0.0000                 0.0000                 0.0000
 IR Inten    --     1.2411                 0.5671                 1.5436
 Raman Activ --     0.0000                 0.0000                 0.0000
 Depolar     --     0.0000                 0.0000                 0.0000
 Atom AN      X      Y      Z        X      Y      Z        X      Y      Z
   1   7    -0.00   0.00  -0.00    -0.01   0.00  -0.00     0.00  -0.00   0.00
   2   6    -0.00   0.00   0.00    -0.00   0.00  -0.00    -0.00   0.00  -0.00
   3   6    -0.01  -0.00   0.01    -0.02  -0.00   0.03     0.00  -0.00  -0.00
   4   6    -0.01  -0.01   0.06    -0.03  -0.03   0.15     0.01   0.00  -0.04
   5   6    -0.00  -0.09  -0.01    -0.01  -0.20  -0.02     0.00   0.01  -0.00
   6   6     0.00   0.00  -0.02    -0.01  -0.01  -0.01     0.00   0.01  -0.03
   7   6    -0.02  -0.01   0.05    -0.01  -0.01   0.02    -0.02  -0.01   0.06
   8   6     0.00  -0.05   0.01     0.01   0.02   0.01     0.04  -0.02   0.04
   9   6    -0.03  -0.13  -0.14     0.03   0.06   0.05     0.16   0.07  -0.09
  10   1     0.01  -0.01  -0.00     0.02  -0.01  -0.00    -0.00   0.00   0.00
  11   1     0.01   0.00   0.01     0.01   0.00   0.02    -0.00   0.00  -0.00
  12   1    -0.00   0.00  -0.00    -0.00   0.00  -0.00     0.00   0.00   0.00
  13   1     0.00   0.00  -0.00     0.00   0.01  -0.00    -0.00  -0.00   0.00
  14   1    -0.00   0.00  -0.00     0.00  -0.00  -0.00     0.00  -0.00   0.00
  15   1     0.01  -0.01  -0.01     0.02  -0.03  -0.03    -0.00   0.00   0.00
  16   1     0.01   0.01  -0.01     0.01   0.03  -0.03     0.00   0.00   0.00
  17   1     0.08  -0.06  -0.10     0.21  -0.15  -0.26    -0.06   0.04   0.07
  18   1    -0.03   0.07  -0.12    -0.07   0.19  -0.32     0.02  -0.05   0.08
  19   1    -0.06   0.18  -0.09    -0.13   0.42  -0.20     0.01  -0.03   0.01
  20   1     0.07   0.15   0.13     0.15   0.35   0.31    -0.01  -0.02  -0.02
  21   1     0.01   0.01   0.05     0.01  -0.00   0.03     0.01   0.02   0.07
  22   1    -0.03  -0.04   0.03    -0.01  -0.02   0.01    -0.05  -0.04   0.04
  23   1    -0.01  -0.03  -0.10    -0.04   0.01  -0.06    -0.02  -0.04  -0.13
  24   1     0.06   0.07  -0.06     0.05   0.03  -0.04     0.09   0.08  -0.08
  25   1    -0.02  -0.02  -0.07     0.00   0.00  -0.00    -0.05  -0.01  -0.14
  26   1     0.03   0.08  -0.06    -0.00  -0.01   0.01     0.06   0.09  -0.07
  27   1    -0.24   0.37   0.40     0.12  -0.16  -0.14     0.18   0.01   0.38
  28   1     0.06  -0.30   0.13    -0.08   0.12  -0.03    -0.58  -0.10   0.31
  29   1     0.29   0.47   0.03    -0.15  -0.22  -0.04    -0.29  -0.16  -0.33
                     58                     59                     60
                        a                      a                      a 
 Frequencies --  1512.6894              1516.8895              1521.1626
 Red. masses --     1.9622                 1.8435                 1.9809
 Frc consts  --     0.0000                 0.0000                 0.0000
 IR Inten    --     2.3987                 0.4583                 0.1990
 Raman Activ --     0.0000                 0.0000                 0.0000
 Depolar     --     0.0000                 0.0000                 0.0000
 Atom AN      X      Y      Z        X      Y      Z        X      Y      Z
   1   7    -0.01   0.00  -0.00     0.00  -0.00   0.00    -0.00   0.00  -0.00
   2   6     0.01  -0.00   0.00    -0.00   0.00  -0.00    -0.00   0.00   0.00
   3   6    -0.02  -0.01  -0.02     0.01  -0.00  -0.04    -0.01  -0.01   0.02
   4   6    -0.05  -0.00   0.21     0.02   0.01  -0.06    -0.01  -0.00   0.03
   5   6     0.01   0.17   0.03     0.00  -0.01  -0.00     0.00   0.05   0.00
   6   6    -0.02  -0.00   0.06    -0.01   0.02  -0.01     0.03   0.03  -0.13
   7   6    -0.02  -0.03   0.07    -0.07  -0.05   0.24     0.02  -0.03   0.02
   8   6     0.01   0.01  -0.02     0.01  -0.01  -0.01    -0.08  -0.03   0.23
   9   6     0.02   0.00  -0.01    -0.04   0.00   0.04    -0.05   0.02   0.03
  10   1     0.02  -0.02  -0.00    -0.00   0.01   0.00     0.00  -0.00  -0.00
  11   1     0.02   0.00   0.02     0.00   0.01  -0.01     0.00  -0.00   0.00
  12   1    -0.00   0.00   0.00    -0.00   0.01   0.00     0.00  -0.00   0.00
  13   1    -0.00   0.01  -0.01     0.00  -0.00   0.01    -0.00  -0.00   0.00
  14   1    -0.00   0.01  -0.00     0.00  -0.00  -0.00     0.00   0.00  -0.00
  15   1    -0.01   0.04   0.04    -0.05   0.05   0.06     0.04  -0.02  -0.03
  16   1     0.01  -0.03   0.05     0.01  -0.05   0.08     0.02   0.05  -0.04
  17   1     0.29  -0.20  -0.35    -0.10   0.04   0.10     0.04  -0.03  -0.05
  18   1    -0.08   0.27  -0.41     0.02  -0.08   0.12    -0.01   0.04  -0.06
  19   1     0.09  -0.33   0.17     0.00   0.01  -0.01     0.03  -0.09   0.05
  20   1    -0.12  -0.28  -0.25     0.01   0.01   0.01    -0.03  -0.07  -0.07
  21   1    -0.03  -0.04  -0.14     0.02   0.01   0.06     0.06   0.09   0.30
  22   1     0.10   0.08  -0.09    -0.03  -0.05   0.04    -0.19  -0.18   0.18
  23   1    -0.05  -0.02  -0.13    -0.08  -0.19  -0.58    -0.03   0.01  -0.02
  24   1     0.08   0.10  -0.08     0.37   0.37  -0.35    -0.01   0.03  -0.01
  25   1     0.01   0.01   0.04     0.01   0.03   0.08    -0.07  -0.17  -0.52
  26   1    -0.03  -0.03   0.03    -0.06  -0.04   0.05     0.34   0.31  -0.30
  27   1     0.01   0.01   0.04    -0.02  -0.05  -0.15     0.02  -0.07  -0.13
  28   1    -0.05  -0.01   0.03     0.13   0.07  -0.10     0.14   0.05  -0.08
  29   1    -0.02  -0.00  -0.03     0.03  -0.01   0.07     0.02  -0.05   0.10
                     61                     62                     63
                        a                      a                      a 
 Frequencies --  1524.9201              2908.8117              2914.2344
 Red. masses --     1.9537                 1.9095                 1.9233
 Frc consts  --     0.0000                 0.0000                 0.0000
 IR Inten    --     2.1542                63.2594                54.3451
 Raman Activ --     0.0000                 0.0000                 0.0000
 Depolar     --     0.0000                 0.0000                 0.0000
 Atom AN      X      Y      Z        X      Y      Z        X      Y      Z
   1   7     0.00  -0.00   0.00     0.00  -0.00  -0.00     0.00   0.00  -0.00
   2   6     0.00  -0.01  -0.01    -0.00  -0.00  -0.00    -0.00   0.00   0.00
   3   6     0.02   0.01  -0.02    -0.00   0.00  -0.00     0.00   0.00  -0.00
   4   6     0.01   0.01  -0.03     0.00   0.00  -0.00    -0.03   0.04  -0.00
   5   6     0.00  -0.05   0.00     0.01  -0.00   0.01     0.12  -0.04   0.24
   6   6    -0.06  -0.03   0.23     0.02   0.02   0.00    -0.06  -0.07  -0.02
   7   6    -0.02  -0.00   0.04    -0.04  -0.05  -0.03     0.01   0.01   0.00
   8   6    -0.04  -0.03   0.14     0.17   0.20   0.09     0.01   0.01   0.00
   9   6    -0.02   0.01   0.00    -0.01  -0.01  -0.00     0.00  -0.00  -0.00
  10   1    -0.00   0.00   0.00     0.00   0.00   0.00     0.00  -0.00   0.00
  11   1    -0.00  -0.00  -0.00    -0.00   0.00  -0.00    -0.00   0.00   0.00
  12   1     0.00  -0.00   0.00    -0.00  -0.00  -0.00    -0.00  -0.00  -0.00
  13   1     0.01   0.01  -0.00    -0.00   0.00   0.00     0.00  -0.00  -0.00
  14   1     0.00  -0.00  -0.00     0.00   0.00   0.00    -0.00   0.00  -0.00
  15   1    -0.05   0.03   0.04     0.00  -0.00   0.00    -0.00  -0.00  -0.00
  16   1    -0.03  -0.07   0.05     0.00   0.00  -0.00    -0.01   0.00   0.00
  17   1    -0.05   0.03   0.05     0.00  -0.00   0.00     0.04  -0.10   0.09
  18   1     0.01  -0.05   0.07    -0.00   0.00   0.00     0.06  -0.05  -0.05
  19   1    -0.03   0.08  -0.04    -0.01  -0.01  -0.01    -0.22  -0.32  -0.49
  20   1     0.02   0.06   0.07    -0.01   0.02  -0.02    -0.21   0.45  -0.37
  21   1    -0.10  -0.16  -0.52    -0.07  -0.07   0.04     0.16   0.16  -0.09
  22   1     0.34   0.31  -0.32    -0.02  -0.03  -0.05     0.07   0.11   0.19
  23   1     0.00  -0.03  -0.05     0.12   0.12  -0.06    -0.03  -0.03   0.02
  24   1     0.04   0.03  -0.03     0.06   0.10   0.18    -0.01  -0.01  -0.03
  25   1    -0.05  -0.10  -0.33    -0.42  -0.44   0.21    -0.01  -0.01   0.01
  26   1     0.21   0.20  -0.19    -0.20  -0.29  -0.54    -0.01  -0.01  -0.01
  27   1     0.01  -0.02  -0.02     0.02   0.03  -0.02     0.00   0.00  -0.00
  28   1     0.03  -0.00  -0.01     0.01   0.02   0.04     0.00   0.00   0.00
  29   1     0.00  -0.02   0.03    -0.00  -0.00  -0.00    -0.00   0.00   0.00
                     64                     65                     66
                        a                      a                      a 
 Frequencies --  2916.3087              2921.2805              2928.7120
 Red. masses --     1.9025                 1.9088                 1.9807
 Frc consts  --     0.0000                 0.0000                 0.0000
 IR Inten    --    17.4648                52.2706               176.8821
 Raman Activ --     0.0000                 0.0000                 0.0000
 Depolar     --     0.0000                 0.0000                 0.0000
 Atom AN      X      Y      Z        X      Y      Z        X      Y      Z
   1   7     0.00  -0.00  -0.00     0.00  -0.00   0.00    -0.00  -0.00  -0.00
   2   6    -0.00   0.00   0.00     0.00   0.00   0.00     0.00   0.00   0.00
   3   6     0.01  -0.01  -0.00    -0.02   0.04  -0.01    -0.00   0.00   0.00
   4   6    -0.02   0.03  -0.00     0.18  -0.20  -0.02     0.01  -0.01  -0.01
   5   6     0.05  -0.03   0.08     0.03   0.01   0.06    -0.01   0.02  -0.01
   6   6     0.16   0.17   0.03     0.02   0.02   0.00    -0.07  -0.07  -0.01
   7   6    -0.05  -0.06  -0.03     0.01   0.01  -0.00    -0.16  -0.19  -0.11
   8   6    -0.04  -0.05  -0.02    -0.00  -0.00   0.00    -0.04  -0.05  -0.03
   9   6     0.00   0.00   0.00     0.00  -0.00  -0.00     0.00   0.00   0.00
  10   1     0.00  -0.00   0.00     0.00  -0.00  -0.00     0.00   0.00   0.00
  11   1    -0.00   0.00   0.00     0.00  -0.00   0.00     0.00   0.00  -0.00
  12   1     0.00  -0.00  -0.00    -0.00  -0.00  -0.00     0.00   0.00  -0.00
  13   1     0.00  -0.00  -0.00    -0.01   0.00   0.00     0.00  -0.00   0.00
  14   1    -0.00   0.00  -0.00    -0.00  -0.00  -0.01    -0.00  -0.00  -0.00
  15   1    -0.00   0.01  -0.01     0.03  -0.08   0.09    -0.00   0.00  -0.00
  16   1    -0.02   0.02   0.02     0.08  -0.07  -0.06     0.01  -0.00  -0.00
  17   1     0.03  -0.06   0.06    -0.14   0.29  -0.31    -0.00   0.00  -0.01
  18   1     0.06  -0.05  -0.05    -0.53   0.44   0.39    -0.03   0.03   0.02
  19   1    -0.04  -0.07  -0.09    -0.08  -0.10  -0.17    -0.02  -0.01  -0.03
  20   1    -0.11   0.21  -0.19    -0.02   0.04  -0.03     0.04  -0.07   0.07
  21   1    -0.47  -0.47   0.24    -0.06  -0.06   0.03     0.20   0.20  -0.10
  22   1    -0.12  -0.17  -0.34    -0.01  -0.01  -0.03     0.04   0.06   0.11
  23   1     0.12   0.13  -0.07    -0.02  -0.02   0.01     0.34   0.35  -0.18
  24   1     0.07   0.10   0.19     0.00   0.00   0.00     0.22   0.32   0.57
  25   1     0.10   0.11  -0.05     0.01   0.01  -0.00     0.08   0.09  -0.04
  26   1     0.04   0.06   0.11     0.00   0.00   0.00     0.06   0.08   0.14
  27   1    -0.01  -0.01   0.00    -0.00  -0.00   0.00    -0.01  -0.01   0.00
  28   1    -0.00  -0.00  -0.01     0.00   0.00   0.00    -0.01  -0.01  -0.02
  29   1     0.00   0.00   0.00    -0.00   0.00   0.00     0.00   0.00  -0.00
                     67                     68                     69
                        a                      a                      a 
 Frequencies --  2944.9672              2945.8307              2949.6190
 Red. masses --     1.4941                 1.8860                 1.5816
 Frc consts  --     0.0000                 0.0000                 0.0000
 IR Inten    --    49.9199                21.4604               166.4592
 Raman Activ --     0.0000                 0.0000                 0.0000
 Depolar     --     0.0000                 0.0000                 0.0000
 Atom AN      X      Y      Z        X      Y      Z        X      Y      Z
   1   7    -0.00   0.00   0.00    -0.00   0.00  -0.00     0.00  -0.00  -0.00
   2   6    -0.00   0.00   0.00    -0.01   0.01   0.01     0.00  -0.00  -0.01
   3   6     0.01  -0.02   0.01     0.13  -0.22   0.08    -0.04   0.06  -0.03
   4   6     0.01  -0.01  -0.01     0.03  -0.02  -0.03    -0.03   0.05  -0.00
   5   6     0.00  -0.02   0.00     0.00   0.06   0.01     0.01   0.19   0.04
   6   6    -0.00   0.00   0.03     0.00   0.01   0.02     0.02   0.04   0.03
   7   6     0.00  -0.00   0.01     0.01   0.01   0.00     0.01   0.01   0.00
   8   6     0.06   0.04  -0.19    -0.00  -0.00   0.02     0.01   0.01  -0.02
   9   6    -0.02   0.01   0.01     0.00  -0.00  -0.00    -0.00   0.00   0.00
  10   1     0.00   0.00   0.00     0.00   0.00   0.00    -0.00  -0.00   0.00
  11   1     0.00   0.00  -0.00     0.00   0.00  -0.00    -0.00  -0.00   0.00
  12   1    -0.00  -0.00   0.00    -0.00  -0.00   0.00     0.00   0.00  -0.00
  13   1     0.01  -0.01  -0.01     0.07  -0.07  -0.05    -0.02   0.02   0.02
  14   1    -0.00  -0.00  -0.00     0.00   0.01   0.01     0.00  -0.00  -0.00
  15   1    -0.02   0.05  -0.05    -0.17   0.50  -0.52     0.05  -0.15   0.16
  16   1    -0.04   0.03   0.03    -0.31   0.29   0.23     0.08  -0.08  -0.06
  17   1     0.00  -0.01   0.00     0.02  -0.04   0.03     0.03  -0.07   0.07
  18   1    -0.03   0.03   0.02    -0.12   0.10   0.08     0.09  -0.08  -0.07
  19   1     0.02   0.03   0.05    -0.08  -0.10  -0.18    -0.24  -0.29  -0.53
  20   1    -0.03   0.06  -0.05     0.07  -0.12   0.12     0.23  -0.41   0.41
  21   1     0.05   0.05  -0.02     0.01   0.01  -0.00    -0.04  -0.04   0.02
  22   1    -0.05  -0.07  -0.10    -0.03  -0.04  -0.06    -0.06  -0.08  -0.13
  23   1     0.04   0.04  -0.01    -0.02  -0.02   0.01    -0.03  -0.03   0.01
  24   1    -0.02  -0.04  -0.06    -0.00  -0.01  -0.01    -0.01  -0.01  -0.02
  25   1    -0.45  -0.48   0.17     0.03   0.04  -0.01    -0.05  -0.06   0.02
  26   1     0.24   0.33   0.53    -0.02  -0.03  -0.05     0.03   0.04   0.06
  27   1     0.02   0.02  -0.01    -0.00  -0.00   0.00     0.00   0.00  -0.00
  28   1    -0.01  -0.01  -0.02     0.00   0.00   0.00    -0.00  -0.00  -0.00
  29   1     0.05  -0.03  -0.03    -0.00   0.00   0.00     0.01  -0.01  -0.01
                     70                     71                     72
                        a                      a                      a 
 Frequencies --  2957.3640              2958.8635              2961.0367
 Red. masses --     1.5079                 1.8924                 1.5512
 Frc consts  --     0.0000                 0.0000                 0.0000
 IR Inten    --     8.5749                 1.9145                69.0614
 Raman Activ --     0.0000                 0.0000                 0.0000
 Depolar     --     0.0000                 0.0000                 0.0000
 Atom AN      X      Y      Z        X      Y      Z        X      Y      Z
   1   7    -0.00   0.00  -0.00     0.00   0.00  -0.00    -0.00  -0.00   0.00
   2   6    -0.00  -0.03  -0.05    -0.02  -0.15  -0.23     0.00   0.03   0.04
   3   6    -0.02   0.00   0.03    -0.01  -0.01   0.04     0.02  -0.02   0.00
   4   6     0.00   0.02  -0.05    -0.00  -0.01   0.03    -0.01  -0.03   0.09
   5   6    -0.01   0.02  -0.02     0.00  -0.00   0.01    -0.00   0.02  -0.01
   6   6     0.01  -0.01  -0.13     0.00   0.00   0.01     0.01  -0.01  -0.16
   7   6    -0.06  -0.05   0.12     0.02   0.01  -0.04     0.03   0.02  -0.09
   8   6    -0.00  -0.00  -0.01     0.00   0.00  -0.01     0.01   0.01  -0.03
   9   6     0.00   0.00  -0.01    -0.00   0.00   0.01    -0.01   0.00   0.01
  10   1    -0.00  -0.00  -0.00    -0.01  -0.00  -0.02     0.00   0.00   0.00
  11   1     0.00  -0.00  -0.00     0.01  -0.01  -0.00    -0.00   0.00   0.00
  12   1    -0.00   0.00   0.00    -0.00   0.00   0.00     0.00   0.00  -0.00
  13   1    -0.08   0.07   0.05    -0.31   0.29   0.21     0.06  -0.06  -0.05
  14   1     0.08   0.05   0.13     0.37   0.24   0.61    -0.06  -0.04  -0.10
  15   1    -0.03   0.07  -0.06    -0.05   0.12  -0.11    -0.01   0.04  -0.04
  16   1     0.08  -0.08  -0.05     0.09  -0.09  -0.06    -0.05   0.05   0.04
  17   1     0.08  -0.14   0.13    -0.05   0.09  -0.08    -0.13   0.25  -0.23
  18   1    -0.09   0.08   0.05     0.05  -0.05  -0.03     0.16  -0.14  -0.10
  19   1    -0.01  -0.01  -0.02    -0.00  -0.00  -0.00    -0.02  -0.02  -0.04
  20   1     0.04  -0.07   0.06    -0.01   0.01  -0.01     0.03  -0.06   0.05
  21   1    -0.21  -0.22   0.08     0.01   0.01  -0.00    -0.26  -0.26   0.10
  22   1     0.19   0.26   0.41    -0.01  -0.02  -0.03     0.22   0.29   0.46
  23   1     0.35   0.37  -0.14    -0.12  -0.13   0.05    -0.22  -0.24   0.09
  24   1    -0.15  -0.20  -0.31     0.05   0.07   0.12     0.11   0.15   0.24
  25   1    -0.02  -0.02   0.01    -0.01  -0.01   0.00    -0.08  -0.08   0.03
  26   1     0.01   0.02   0.03     0.01   0.01   0.01     0.04   0.06   0.09
  27   1    -0.02  -0.02   0.01     0.01   0.01  -0.00     0.01   0.01  -0.00
  28   1     0.01   0.01   0.01    -0.01  -0.01  -0.01    -0.01  -0.01  -0.02
  29   1    -0.00   0.00   0.00     0.01  -0.01  -0.01     0.03  -0.02  -0.02
                     73                     74                     75
                        a                      a                      a 
 Frequencies --  2962.8538              2975.3671              2987.0370
 Red. masses --     1.5361                 1.5653                 1.5608
 Frc consts  --     0.0000                 0.0000                 0.0000
 IR Inten    --   146.3578                86.5183                21.3675
 Raman Activ --     0.0000                 0.0000                 0.0000
 Depolar     --     0.0000                 0.0000                 0.0000
 Atom AN      X      Y      Z        X      Y      Z        X      Y      Z
   1   7    -0.00  -0.00   0.00     0.00   0.00  -0.00     0.00   0.00  -0.00
   2   6    -0.01  -0.00  -0.01     0.03   0.03   0.07    -0.20   0.09  -0.00
   3   6     0.04  -0.03  -0.03    -0.09   0.03   0.18    -0.03   0.03   0.02
   4   6    -0.00  -0.07   0.16    -0.01  -0.01   0.05    -0.00   0.00   0.00
   5   6     0.01   0.00   0.03     0.00   0.00   0.01    -0.00   0.00  -0.00
   6   6    -0.00  -0.00   0.04     0.00   0.00   0.02     0.00   0.00   0.00
   7   6    -0.04  -0.03   0.09    -0.00  -0.00   0.01    -0.00  -0.00   0.00
   8   6    -0.01  -0.00   0.01    -0.00  -0.00   0.00     0.00  -0.00  -0.00
   9   6     0.01  -0.00  -0.01     0.00  -0.00  -0.00     0.00  -0.00  -0.00
  10   1    -0.00   0.00  -0.00     0.00   0.00   0.01    -0.01  -0.00  -0.01
  11   1     0.00   0.00  -0.00     0.00  -0.00  -0.00    -0.01   0.01   0.01
  12   1     0.00   0.00  -0.00    -0.00  -0.00   0.00    -0.00   0.00  -0.00
  13   1     0.01  -0.01  -0.01     0.01  -0.01   0.00     0.49  -0.51  -0.41
  14   1     0.02   0.01   0.04    -0.13  -0.09  -0.22     0.22   0.17   0.41
  15   1     0.02  -0.03   0.03    -0.14   0.37  -0.34    -0.00  -0.00   0.01
  16   1    -0.14   0.14   0.09     0.48  -0.48  -0.30     0.11  -0.11  -0.07
  17   1    -0.25   0.47  -0.43    -0.06   0.11  -0.10     0.00  -0.00   0.00
  18   1     0.26  -0.23  -0.16     0.09  -0.08  -0.06     0.01  -0.01  -0.01
  19   1    -0.03  -0.04  -0.07    -0.01  -0.01  -0.02     0.00   0.00   0.00
  20   1    -0.01   0.02  -0.02    -0.01   0.01  -0.01     0.00  -0.00   0.00
  21   1     0.07   0.07  -0.02     0.03   0.03  -0.01     0.00   0.00  -0.00
  22   1    -0.05  -0.07  -0.11    -0.03  -0.05  -0.08    -0.00  -0.00  -0.01
  23   1     0.26   0.28  -0.10     0.02   0.02  -0.01     0.00   0.00  -0.00
  24   1    -0.11  -0.15  -0.23    -0.01  -0.01  -0.02    -0.00  -0.00  -0.00
  25   1     0.03   0.03  -0.01     0.00   0.00  -0.00    -0.00  -0.00   0.00
  26   1    -0.01  -0.02  -0.02    -0.00  -0.00  -0.00     0.00   0.00   0.00
  27   1    -0.01  -0.01   0.00    -0.00  -0.00   0.00    -0.00  -0.00   0.00
  28   1     0.01   0.01   0.02     0.00   0.00   0.00     0.00   0.00   0.01
  29   1    -0.02   0.01   0.01    -0.01   0.00   0.00    -0.01   0.01   0.01
                     76                     77                     78
                        a                      a                      a 
 Frequencies --  2991.0355              2995.3547              3014.9308
 Red. masses --     1.9125                 1.9344                 1.2776
 Frc consts  --     0.0000                 0.0000                 0.0000
 IR Inten    --   105.2319                88.9773                53.6558
 Raman Activ --     0.0000                 0.0000                 0.0000
 Depolar     --     0.0000                 0.0000                 0.0000
 Atom AN      X      Y      Z        X      Y      Z        X      Y      Z
   1   7     0.00  -0.00  -0.00    -0.00  -0.00  -0.00     0.00  -0.00  -0.00
   2   6     0.00  -0.00  -0.00     0.00  -0.00  -0.00     0.00  -0.00  -0.00
   3   6     0.00  -0.00  -0.00    -0.00   0.00   0.00    -0.00  -0.00   0.00
   4   6    -0.00   0.00  -0.00     0.00  -0.00  -0.00    -0.00   0.00  -0.00
   5   6    -0.00   0.00  -0.00    -0.00   0.00  -0.00    -0.00  -0.00  -0.00
   6   6     0.00   0.00  -0.00    -0.00  -0.00  -0.00    -0.00  -0.00   0.00
   7   6     0.00   0.00  -0.01    -0.00  -0.00  -0.00     0.00   0.00  -0.01
   8   6     0.01   0.00  -0.03    -0.02  -0.02  -0.01    -0.00   0.00  -0.01
   9   6     0.19  -0.08  -0.19    -0.18  -0.21  -0.09    -0.04   0.08  -0.13
  10   1    -0.00  -0.00   0.00     0.00   0.00   0.00     0.00  -0.00  -0.00
  11   1    -0.00   0.00   0.00     0.00  -0.00  -0.00    -0.00   0.00   0.00
  12   1    -0.00  -0.00  -0.00     0.00   0.00  -0.00    -0.00  -0.00   0.00
  13   1    -0.01   0.01   0.01    -0.00   0.00   0.00    -0.00   0.00   0.00
  14   1    -0.00  -0.00  -0.00     0.00   0.00   0.00    -0.00  -0.00  -0.00
  15   1    -0.00   0.00  -0.00    -0.00   0.00  -0.00    -0.00   0.00  -0.00
  16   1    -0.00   0.00   0.00     0.00  -0.00  -0.00     0.00  -0.00  -0.00
  17   1     0.00  -0.00   0.00     0.00  -0.00  -0.00     0.00  -0.00   0.00
  18   1     0.00  -0.00  -0.00    -0.00   0.00   0.00    -0.00   0.00   0.00
  19   1    -0.00   0.00  -0.00     0.00   0.00   0.00     0.00   0.00   0.00
  20   1     0.00  -0.01   0.01     0.00  -0.00   0.00    -0.00   0.00  -0.00
  21   1    -0.01  -0.01   0.00    -0.00  -0.00   0.00     0.01   0.00  -0.00
  22   1     0.01   0.01   0.01     0.00   0.00   0.00    -0.00  -0.00  -0.01
  23   1    -0.03  -0.03   0.01     0.01   0.00  -0.00    -0.01  -0.01   0.00
  24   1     0.01   0.02   0.03     0.00   0.00   0.00     0.01   0.01   0.02
  25   1    -0.04  -0.04   0.02     0.03   0.03  -0.01    -0.00  -0.00  -0.00
  26   1     0.02   0.03   0.05     0.01   0.02   0.03     0.00   0.00   0.00
  27   1    -0.16  -0.22   0.05     0.44   0.48  -0.22    -0.41  -0.43   0.16
  28   1     0.14   0.14   0.23     0.21   0.29   0.55     0.22   0.31   0.51
  29   1    -0.66   0.38   0.40    -0.02  -0.04  -0.02     0.32  -0.18  -0.22
                     79                     80                     81
                        a                      a                      a 
 Frequencies --  3259.2116              3264.5117              3287.7820
 Red. masses --     2.0483                 2.0519                 1.2835
 Frc consts  --     0.0000                 0.0000                 0.0000
 IR Inten    --   193.1726               163.7659                54.8693
 Raman Activ --     0.0000                 0.0000                 0.0000
 Depolar     --     0.0000                 0.0000                 0.0000
 Atom AN      X      Y      Z        X      Y      Z        X      Y      Z
   1   7    -0.26  -0.11  -0.03     0.09  -0.14  -0.23    -0.05   0.11  -0.08
   2   6    -0.01  -0.00  -0.00     0.00  -0.00  -0.01    -0.01   0.01  -0.01
   3   6    -0.00   0.00   0.00    -0.00  -0.00  -0.00    -0.00  -0.00  -0.00
   4   6     0.00  -0.00  -0.00     0.00  -0.00   0.00    -0.00  -0.00   0.00
   5   6    -0.00  -0.00  -0.00    -0.00  -0.00  -0.00    -0.00   0.00  -0.00
   6   6     0.00   0.00   0.00    -0.00  -0.00  -0.00     0.00   0.00  -0.00
   7   6     0.00   0.00  -0.00     0.00   0.00   0.00     0.00   0.00  -0.00
   8   6     0.00  -0.00   0.00    -0.00  -0.00  -0.00    -0.00   0.00  -0.00
   9   6     0.00   0.00  -0.00    -0.00   0.00   0.00     0.00   0.00  -0.00
  10   1     0.19   0.14   0.42     0.27   0.18   0.50     0.25   0.19   0.50
  11   1     0.11  -0.14  -0.11    -0.46   0.45   0.34     0.37  -0.37  -0.29
  12   1     0.67   0.39  -0.19    -0.14  -0.10   0.02    -0.44  -0.25   0.11
  13   1     0.00  -0.00  -0.00    -0.01   0.01   0.01     0.01  -0.01  -0.01
  14   1     0.01   0.00   0.01     0.01   0.00   0.01     0.01   0.00   0.01
  15   1    -0.00   0.00  -0.00     0.00   0.00   0.00     0.00  -0.00   0.00
  16   1     0.00  -0.00  -0.00    -0.00   0.00   0.00    -0.00   0.00   0.00
  17   1     0.00   0.00   0.00    -0.00   0.00  -0.00    -0.00   0.00   0.00
  18   1    -0.00   0.00   0.00     0.00  -0.00   0.00     0.00  -0.00  -0.00
  19   1     0.00   0.00   0.00     0.00   0.00   0.00    -0.00  -0.00  -0.00
  20   1    -0.00   0.00  -0.00    -0.00   0.00   0.00     0.00  -0.00   0.00
  21   1     0.00   0.00  -0.00     0.00   0.00  -0.00    -0.00  -0.00   0.00
  22   1    -0.00  -0.00  -0.00     0.00   0.00   0.00     0.00  -0.00  -0.00
  23   1    -0.00  -0.00   0.00     0.00   0.00   0.00    -0.00  -0.00   0.00
  24   1    -0.00  -0.00   0.00    -0.00  -0.00  -0.00    -0.00  -0.00  -0.00
  25   1    -0.00   0.00   0.00     0.00   0.00  -0.00    -0.00  -0.00   0.00
  26   1    -0.00  -0.00  -0.00     0.00   0.00   0.00     0.00  -0.00   0.00
  27   1    -0.00  -0.00   0.00     0.00   0.00   0.00    -0.00  -0.00   0.00
  28   1    -0.00   0.00   0.00    -0.00  -0.00  -0.00    -0.00   0.00   0.00
  29   1    -0.00   0.00   0.00     0.00  -0.00  -0.00    -0.00   0.00   0.00
