 Entering Gaussian System
 *********************************************
 Gaussian 98:
 frequency output generated by the xtb code
 *********************************************
                         Standard orientation:
 --------------------------------------------------------------------
  Center     Atomic     Atomic              Coordinates (Angstroms)
  Number     Number      Type              X           Y           Z
 --------------------------------------------------------------------
    1          7             0        3.223009    0.376542   -0.894392
    2          6             0        3.354014    0.282543    0.586478
    3          6             0        3.055258   -1.122044    1.104981
    4          6             0        1.635995   -1.538837    0.858297
    5          6             0        1.301347   -2.313197   -0.244061
    6          6             0       -0.007686   -2.662411   -0.489415
    7          6             0        0.621770   -1.116680    1.706300
    8          6             0       -0.687833   -1.467294    1.467415
    9          6             0       -1.024741   -2.242114    0.362448
   10          7             0       -2.352633   -2.586308    0.107013
   11          7             0       -3.287469   -1.763993    0.057035
   12          6             0       -3.109372   -0.380244    0.100312
   13          6             0       -3.758425    0.387552    1.063873
   14          6             0       -3.565517    1.750061    1.119669
   15          6             0       -2.725427    2.368855    0.214045
   16          6             0       -2.079544    1.620160   -0.750546
   17          6             0       -2.270082    0.257400   -0.808663
   18         17             0        3.791913    3.672577   -1.964100
   19          1             0        3.395293    1.336110   -1.235984
   20          1             0        2.277357    0.103116   -1.194498
   21          1             0        3.891994   -0.251913   -1.366443
   22          1             0        2.671259    0.998938    1.057999
   23          1             0        4.362657    0.594569    0.883424
   24          1             0        3.264962   -1.188563    2.178911
   25          1             0        3.730743   -1.840739    0.629880
   26          1             0        2.079893   -2.640613   -0.911963
   27          1             0       -0.263592   -3.259941   -1.346954
   28          1             0        0.869956   -0.505700    2.557648
   29          1             0       -1.470859   -1.138859    2.128127
   30          1             0       -4.408125   -0.103444    1.767336
   31          1             0       -4.070562    2.334505    1.871490
   32          1             0       -2.575041    3.435164    0.259413
   33          1             0       -1.425994    2.103155   -1.458539
   34          1             0       -1.768227   -0.335053   -1.553493
 --------------------------------------------------------------------
     1 basis functions        1 primitive gaussians
     1 alpha electrons        1 beta electrons

 Harmonic frequencies (cm**-1), IR intensities (km*mol⁻¹),
 Raman scattering activities (A**4/amu), Raman depolarization ratios,
 reduced masses (AMU), force constants (mDyne/A) and normal coordinates:
                      1                      2                      3
                        a                      a                      a 
 Frequencies --   -50.9953               -37.6069               -34.9761
 Red. masses --    10.1207                29.2484                10.5425
 Frc consts  --     0.0000                 0.0000                 0.0000
 IR Inten    --     2.9272                71.3437                 2.4665
 Raman Activ --     0.0000                 0.0000                 0.0000
 Depolar     --     0.0000                 0.0000                 0.0000
 Atom AN      X      Y      Z        X      Y      Z        X      Y      Z
   1   7    -0.06   0.04  -0.09    -0.01   0.25  -0.05     0.11  -0.01  -0.01
   2   6    -0.03   0.04  -0.08    -0.01   0.18  -0.05     0.09  -0.03  -0.01
   3   6     0.01   0.03  -0.07     0.03   0.15  -0.09     0.05  -0.03  -0.04
   4   6     0.01   0.00  -0.03     0.03   0.12  -0.07     0.04   0.01  -0.05
   5   6     0.01  -0.12   0.05     0.03   0.13  -0.08     0.07  -0.29   0.15
   6   6     0.01  -0.13   0.08     0.04   0.09  -0.06     0.06  -0.28   0.17
   7   6     0.00   0.09  -0.08     0.04   0.06  -0.04     0.01   0.32  -0.23
   8   6     0.00   0.08  -0.05     0.05   0.02  -0.01     0.00   0.33  -0.22
   9   6     0.00  -0.02   0.02     0.04   0.04  -0.02     0.03   0.03  -0.02
  10   7     0.01   0.01  -0.02     0.05   0.02  -0.00     0.04   0.02  -0.05
  11   7     0.01   0.02  -0.07     0.04   0.00   0.01     0.02  -0.00  -0.06
  12   6     0.02   0.01  -0.03     0.02   0.01   0.00    -0.05   0.00  -0.02
  13   6    -0.30   0.01  -0.24     0.05   0.01   0.02     0.01  -0.08   0.08
  14   6    -0.28  -0.00  -0.13     0.05   0.01   0.01    -0.06  -0.08   0.15
  15   6     0.05   0.00   0.18     0.02   0.01  -0.02    -0.19   0.02   0.10
  16   6     0.34   0.02   0.36    -0.01   0.01  -0.04    -0.25   0.11  -0.01
  17   6     0.32   0.03   0.26    -0.01   0.01  -0.03    -0.18   0.10  -0.07
  18  17    -0.07  -0.08  -0.03    -0.28  -0.75   0.34     0.09  -0.07   0.09
  19   1    -0.01   0.01  -0.02    -0.00   0.08  -0.00     0.03   0.00   0.00
  20   1    -0.02   0.01  -0.02    -0.00   0.07  -0.02     0.03   0.01  -0.01
  21   1    -0.02   0.01  -0.03    -0.00   0.08  -0.02     0.03  -0.00  -0.00
  22   1    -0.01   0.01  -0.02    -0.01   0.04  -0.01     0.03  -0.01  -0.00
  23   1    -0.01   0.02  -0.03    -0.01   0.06  -0.01     0.03  -0.02   0.00
  24   1     0.01   0.01  -0.02     0.01   0.04  -0.03     0.01  -0.02  -0.01
  25   1     0.00   0.01  -0.02     0.01   0.05  -0.04     0.01  -0.01  -0.01
  26   1     0.00  -0.06   0.03     0.01   0.05  -0.03     0.03  -0.15   0.09
  27   1     0.00  -0.06   0.04     0.01   0.03  -0.02     0.02  -0.15   0.10
  28   1     0.00   0.05  -0.04     0.01   0.01  -0.01    -0.00   0.16  -0.11
  29   1     0.00   0.05  -0.03     0.01  -0.01   0.00    -0.00   0.16  -0.10
  30   1    -0.16   0.00  -0.14     0.02   0.00   0.01     0.03  -0.05   0.04
  31   1    -0.15  -0.00  -0.08     0.02   0.00   0.01    -0.00  -0.04   0.07
  32   1     0.02  -0.00   0.08     0.00   0.00  -0.01    -0.07   0.01   0.04
  33   1     0.17   0.01   0.17    -0.01   0.00  -0.02    -0.10   0.05  -0.01
  34   1     0.16   0.01   0.12    -0.01   0.00  -0.01    -0.06   0.05  -0.04
                      4                      5                      6
                        a                      a                      a 
 Frequencies --    15.4745                32.8377                36.9330
 Red. masses --    14.3138                16.5075                21.4305
 Frc consts  --     0.0000                 0.0000                 0.0000
 IR Inten    --     1.8555                17.9796                21.6368
 Raman Activ --     0.0000                 0.0000                 0.0000
 Depolar     --     0.0000                 0.0000                 0.0000
 Atom AN      X      Y      Z        X      Y      Z        X      Y      Z
   1   7    -0.18   0.08   0.01     0.01   0.09  -0.14     0.13  -0.22   0.08
   2   6    -0.13   0.03   0.00     0.06  -0.04  -0.14     0.17  -0.22   0.07
   3   6    -0.07   0.00  -0.04     0.07  -0.08  -0.25     0.12  -0.22   0.05
   4   6    -0.06  -0.03  -0.02     0.04  -0.03  -0.15     0.10  -0.14   0.04
   5   6    -0.05  -0.19   0.10    -0.07  -0.07  -0.09     0.07  -0.09   0.02
   6   6    -0.05  -0.21   0.12    -0.10  -0.06   0.05     0.05  -0.00  -0.01
   7   6    -0.07   0.10  -0.09     0.12   0.02  -0.08     0.12  -0.09   0.04
   8   6    -0.07   0.08  -0.06     0.09   0.04   0.05     0.10   0.00   0.01
   9   6    -0.06  -0.06   0.03    -0.02  -0.02   0.12     0.07   0.04  -0.01
  10   7    -0.08  -0.03   0.03    -0.05  -0.03   0.30     0.06   0.10  -0.01
  11   7    -0.04   0.02  -0.02    -0.05  -0.03   0.30     0.08   0.12   0.00
  12   6     0.06   0.01  -0.05    -0.04  -0.03   0.10     0.06   0.11  -0.01
  13   6     0.21   0.07  -0.01    -0.09   0.10  -0.03     0.01   0.12  -0.05
  14   6     0.39   0.05   0.01    -0.12   0.11  -0.22    -0.08   0.13  -0.11
  15   6     0.42  -0.04  -0.02    -0.09  -0.00  -0.28    -0.10   0.14  -0.13
  16   6     0.25  -0.10  -0.09    -0.04  -0.13  -0.14    -0.03   0.13  -0.08
  17   6     0.07  -0.08  -0.11    -0.01  -0.14   0.05     0.06   0.12  -0.01
  18  17    -0.32   0.18   0.13     0.18   0.17   0.40    -0.65   0.04   0.07
  19   1    -0.05   0.03   0.01     0.01   0.03  -0.01     0.00  -0.05   0.02
  20   1    -0.05   0.03   0.01    -0.00   0.04  -0.04     0.04  -0.08   0.03
  21   1    -0.05   0.03  -0.01    -0.00   0.03  -0.06     0.04  -0.04   0.01
  22   1    -0.04  -0.00   0.01     0.02  -0.02  -0.02     0.06  -0.06   0.03
  23   1    -0.04   0.02  -0.00     0.02  -0.02  -0.04     0.05  -0.08   0.01
  24   1    -0.01  -0.01  -0.01     0.05  -0.05  -0.08     0.04  -0.07   0.02
  25   1    -0.02   0.01  -0.02     0.00  -0.01  -0.11     0.03  -0.07   0.01
  26   1    -0.01  -0.09   0.05    -0.04  -0.03  -0.04     0.02  -0.04   0.00
  27   1    -0.01  -0.10   0.06    -0.05  -0.03   0.03     0.01   0.01  -0.01
  28   1    -0.02   0.06  -0.05     0.06   0.01  -0.04     0.04  -0.04   0.01
  29   1    -0.02   0.05  -0.03     0.04   0.02   0.03     0.03   0.01   0.00
  30   1     0.06   0.04   0.01    -0.03   0.06   0.00     0.01   0.03  -0.01
  31   1     0.15   0.03   0.02    -0.05   0.06  -0.09    -0.04   0.04  -0.04
  32   1     0.17  -0.02   0.00    -0.03   0.00  -0.12    -0.05   0.04  -0.06
  33   1     0.08  -0.05  -0.04    -0.00  -0.06  -0.05    -0.01   0.04  -0.02
  34   1    -0.02  -0.04  -0.04     0.01  -0.07   0.04     0.03   0.03   0.01
                      7                      8                      9
                        a                      a                      a 
 Frequencies --    80.5182                85.7547               129.0920
 Red. masses --    12.0032                12.4727                10.4557
 Frc consts  --     0.0000                 0.0000                 0.0000
 IR Inten    --    21.0225                28.6898                29.6649
 Raman Activ --     0.0000                 0.0000                 0.0000
 Depolar     --     0.0000                 0.0000                 0.0000
 Atom AN      X      Y      Z        X      Y      Z        X      Y      Z
   1   7    -0.41   0.33   0.21     0.29   0.33   0.39     0.54   0.13  -0.09
   2   6    -0.22   0.07   0.17     0.17  -0.05   0.34    -0.09   0.14  -0.03
   3   6     0.04  -0.07  -0.07     0.02  -0.16  -0.05    -0.14   0.13  -0.07
   4   6     0.07  -0.19  -0.02    -0.01   0.00  -0.14    -0.11   0.01  -0.05
   5   6     0.06  -0.21   0.01    -0.07   0.03  -0.14    -0.08  -0.10   0.02
   6   6     0.05  -0.18   0.01    -0.09   0.05  -0.09    -0.06  -0.22   0.07
   7   6     0.09  -0.19   0.01     0.01   0.06  -0.14    -0.12  -0.11   0.01
   8   6     0.08  -0.14   0.01    -0.00   0.09  -0.10    -0.09  -0.24   0.07
   9   6     0.06  -0.10  -0.01    -0.06   0.05  -0.05    -0.07  -0.23   0.06
  10   7     0.04   0.01  -0.06    -0.07  -0.01   0.07    -0.10  -0.09  -0.05
  11   7     0.11   0.08   0.00    -0.11  -0.05   0.10     0.04   0.06  -0.04
  12   6     0.11   0.07   0.05    -0.10  -0.04   0.02     0.14   0.04   0.08
  13   6     0.08   0.05   0.04    -0.10   0.01  -0.01     0.13   0.03   0.08
  14   6    -0.06   0.08  -0.03     0.00  -0.01  -0.01     0.00   0.06   0.01
  15   6    -0.17   0.12  -0.09     0.10  -0.08   0.03    -0.11   0.10  -0.06
  16   6    -0.08   0.13  -0.04     0.07  -0.12   0.04    -0.01   0.10   0.00
  17   6     0.06   0.11   0.03    -0.04  -0.10   0.03     0.12   0.08   0.08
  18  17     0.13  -0.05  -0.17    -0.06  -0.03  -0.26    -0.06   0.03  -0.03
  19   1    -0.09   0.10   0.08     0.08   0.10   0.15     0.14   0.04  -0.00
  20   1    -0.12   0.12   0.07     0.08   0.11   0.07     0.19  -0.00  -0.14
  21   1    -0.14   0.09   0.01     0.08   0.11   0.08     0.23   0.06   0.05
  22   1    -0.08  -0.03   0.11     0.06  -0.03   0.14    -0.09   0.03  -0.09
  23   1    -0.07   0.05   0.03     0.05  -0.06   0.14    -0.06   0.07   0.10
  24   1     0.04  -0.07  -0.03     0.00  -0.14  -0.02    -0.05   0.04  -0.02
  25   1     0.03   0.03  -0.08    -0.01  -0.03  -0.07    -0.03   0.04  -0.01
  26   1     0.02  -0.06   0.00    -0.03   0.01  -0.05    -0.02  -0.02   0.00
  27   1     0.01  -0.05   0.00    -0.04   0.02  -0.02    -0.01  -0.08   0.03
  28   1     0.03  -0.06   0.00     0.01   0.02  -0.04    -0.04  -0.03   0.00
  29   1     0.03  -0.03   0.00     0.01   0.04  -0.02    -0.03  -0.09   0.03
  30   1     0.04   0.01   0.02    -0.05   0.02  -0.01     0.05   0.00   0.03
  31   1    -0.03   0.02  -0.01     0.01   0.01  -0.01    -0.01   0.01  -0.00
  32   1    -0.09   0.04  -0.05     0.06  -0.03   0.01    -0.07   0.04  -0.04
  33   1    -0.04   0.05  -0.02     0.04  -0.05   0.02    -0.02   0.03  -0.01
  34   1     0.04   0.04   0.02    -0.02  -0.04   0.01     0.05   0.03   0.03
                     10                     11                     12
                        a                      a                      a 
 Frequencies --   152.7901               175.8287               217.5899
 Red. masses --    10.8050                 9.1488                 9.5137
 Frc consts  --     0.0000                 0.0000                 0.0000
 IR Inten    --     2.8336                 1.6423                 5.4245
 Raman Activ --     0.0000                 0.0000                 0.0000
 Depolar     --     0.0000                 0.0000                 0.0000
 Atom AN      X      Y      Z        X      Y      Z        X      Y      Z
   1   7    -0.08  -0.18   0.06    -0.16   0.06   0.05     0.01   0.23  -0.10
   2   6    -0.06   0.01   0.06     0.36  -0.14  -0.01     0.38  -0.01  -0.13
   3   6    -0.09   0.07   0.18    -0.07  -0.06  -0.04     0.04   0.09   0.01
   4   6    -0.05   0.06  -0.04    -0.15   0.21  -0.06     0.01   0.05   0.13
   5   6     0.09   0.03  -0.06    -0.14   0.17  -0.05     0.09  -0.11   0.20
   6   6     0.12  -0.01  -0.20    -0.10  -0.01   0.06     0.12  -0.14   0.07
   7   6    -0.14   0.13  -0.19    -0.14   0.17  -0.03    -0.07  -0.16   0.13
   8   6    -0.08   0.05  -0.29    -0.11  -0.02   0.08    -0.05  -0.21   0.00
   9   6     0.04  -0.04  -0.27    -0.06  -0.14   0.15    -0.01  -0.05  -0.12
  10   7     0.03  -0.05  -0.17    -0.05  -0.15   0.03    -0.02   0.07  -0.30
  11   7     0.03  -0.01   0.26     0.10  -0.01  -0.14    -0.09   0.02  -0.03
  12   6     0.08  -0.03   0.32     0.23  -0.03  -0.02    -0.19   0.03   0.12
  13   6     0.08   0.10   0.22     0.22  -0.11   0.03    -0.16   0.14   0.05
  14   6    -0.01   0.13  -0.05     0.01  -0.08  -0.00    -0.01   0.13  -0.02
  15   6    -0.08   0.03  -0.17    -0.16   0.03  -0.08     0.10   0.01  -0.01
  16   6     0.05  -0.12   0.02     0.02   0.09   0.00    -0.03  -0.09  -0.01
  17   6     0.12  -0.13   0.27     0.24   0.05   0.04    -0.19  -0.06   0.05
  18  17     0.00  -0.01   0.02    -0.01   0.00  -0.00    -0.01   0.01  -0.01
  19   1    -0.02  -0.06  -0.01     0.01   0.01   0.02     0.08   0.06  -0.00
  20   1    -0.02  -0.06   0.03    -0.10   0.11   0.11    -0.05   0.18   0.04
  21   1    -0.02  -0.06   0.04    -0.15  -0.03  -0.08    -0.10   0.01  -0.11
  22   1    -0.02   0.02  -0.01     0.24   0.03   0.08     0.23   0.07   0.03
  23   1    -0.02   0.01   0.01     0.17  -0.18  -0.09     0.17  -0.12  -0.11
  24   1    -0.08   0.05   0.06    -0.03  -0.03  -0.01     0.02   0.07   0.00
  25   1    -0.00   0.01   0.10    -0.07  -0.07  -0.01    -0.02  -0.02   0.03
  26   1     0.05   0.01   0.01    -0.04   0.07  -0.02     0.05  -0.04   0.08
  27   1     0.06  -0.01  -0.06    -0.03  -0.02   0.03     0.07  -0.05   0.02
  28   1    -0.07   0.06  -0.06    -0.04   0.07  -0.02    -0.05  -0.06   0.06
  29   1    -0.05   0.01  -0.11    -0.03  -0.03   0.03    -0.03  -0.08  -0.00
  30   1     0.03   0.06   0.09     0.09  -0.06   0.02    -0.06   0.08   0.03
  31   1    -0.02   0.07  -0.05    -0.02  -0.04   0.00     0.01   0.07  -0.02
  32   1    -0.06   0.02  -0.12    -0.11   0.02  -0.05     0.07  -0.00  -0.00
  33   1     0.01  -0.06  -0.01    -0.01   0.05   0.00     0.00  -0.06  -0.01
  34   1     0.05  -0.07   0.11     0.10   0.03   0.02    -0.08  -0.04   0.02
                     13                     14                     15
                        a                      a                      a 
 Frequencies --   255.7484               312.0888               326.2039
 Red. masses --    11.0008                10.2408                 3.2086
 Frc consts  --     0.0000                 0.0000                 0.0000
 IR Inten    --     3.7366                39.4747                 1.6220
 Raman Activ --     0.0000                 0.0000                 0.0000
 Depolar     --     0.0000                 0.0000                 0.0000
 Atom AN      X      Y      Z        X      Y      Z        X      Y      Z
   1   7    -0.05  -0.10   0.07     0.08   0.24  -0.16    -0.07   0.11  -0.04
   2   6     0.10   0.07   0.06    -0.05  -0.13  -0.13     0.07  -0.10  -0.06
   3   6    -0.06   0.15   0.14    -0.05  -0.10   0.04     0.03  -0.11  -0.08
   4   6    -0.00   0.08  -0.14    -0.06  -0.18   0.27    -0.06   0.06   0.14
   5   6     0.06   0.02  -0.12     0.03  -0.11   0.20     0.02   0.06   0.12
   6   6     0.09  -0.17  -0.09     0.04   0.17  -0.18     0.07   0.02  -0.04
   7   6    -0.04  -0.02  -0.14    -0.13  -0.06   0.12    -0.13   0.08   0.06
   8   6     0.03  -0.23  -0.09    -0.11   0.09  -0.17    -0.08  -0.05  -0.05
   9   6     0.06  -0.26  -0.06    -0.00   0.13  -0.23     0.02  -0.07  -0.07
  10   7    -0.06  -0.14   0.34    -0.04   0.00   0.24    -0.00  -0.07   0.01
  11   7     0.08   0.03   0.34    -0.03   0.01   0.32     0.04  -0.01   0.11
  12   6     0.05   0.05  -0.11     0.12  -0.00  -0.13     0.05  -0.01   0.01
  13   6    -0.13   0.07  -0.22     0.08  -0.10  -0.09    -0.02   0.02  -0.05
  14   6    -0.04   0.04  -0.01     0.02  -0.11   0.04    -0.01   0.01  -0.01
  15   6     0.14   0.09   0.18    -0.07  -0.03   0.01     0.04   0.02   0.04
  16   6    -0.08   0.17  -0.03     0.01   0.06  -0.01    -0.03   0.03  -0.02
  17   6    -0.12   0.16  -0.19     0.17   0.03  -0.06    -0.01   0.03  -0.03
  18  17    -0.00  -0.00   0.01    -0.01   0.01  -0.01     0.04  -0.01  -0.01
  19   1     0.01  -0.05  -0.02     0.18   0.06   0.03    -0.48   0.14   0.07
  20   1    -0.03  -0.00   0.07    -0.01   0.26  -0.10     0.12  -0.45  -0.02
  21   1    -0.05  -0.07   0.02    -0.07  -0.01  -0.07     0.31   0.43  -0.08
  22   1     0.07   0.06   0.01    -0.01  -0.03  -0.03     0.03  -0.05   0.02
  23   1     0.05  -0.02  -0.01    -0.01  -0.06  -0.02     0.03  -0.03  -0.03
  24   1    -0.10   0.07   0.06     0.03   0.03   0.01     0.08  -0.05  -0.04
  25   1     0.02   0.03   0.11    -0.03  -0.05   0.02    -0.05  -0.05  -0.08
  26   1     0.03   0.02  -0.04     0.04  -0.04   0.09     0.03   0.02   0.06
  27   1     0.05  -0.06  -0.02     0.04   0.09  -0.09     0.05   0.02  -0.03
  28   1    -0.03   0.01  -0.05    -0.07  -0.02   0.04    -0.07   0.04   0.02
  29   1    -0.00  -0.09  -0.02    -0.06   0.03  -0.09    -0.04  -0.03  -0.03
  30   1    -0.07   0.01  -0.10     0.03  -0.06  -0.05    -0.02   0.00  -0.02
  31   1    -0.02  -0.01   0.00     0.01  -0.06   0.03    -0.01  -0.00  -0.01
  32   1     0.10   0.01   0.12    -0.05  -0.00   0.00     0.02   0.00   0.02
  33   1    -0.04   0.06  -0.01    -0.01   0.05   0.00    -0.02   0.01  -0.01
  34   1    -0.05   0.08  -0.09     0.07   0.03  -0.02    -0.01   0.02  -0.02
                     16                     17                     18
                        a                      a                      a 
 Frequencies --   345.6273               355.0344               358.3626
 Red. masses --     9.3712                 8.9603                 8.9009
 Frc consts  --     0.0000                 0.0000                 0.0000
 IR Inten    --    10.0658                 1.6242                 2.6035
 Raman Activ --     0.0000                 0.0000                 0.0000
 Depolar     --     0.0000                 0.0000                 0.0000
 Atom AN      X      Y      Z        X      Y      Z        X      Y      Z
   1   7     0.04   0.01  -0.03     0.00  -0.03   0.02     0.01  -0.03   0.02
   2   6    -0.20  -0.17  -0.01    -0.04  -0.01   0.02    -0.04   0.00   0.02
   3   6    -0.06  -0.23  -0.17     0.00  -0.04  -0.06     0.05  -0.03  -0.06
   4   6    -0.15   0.06   0.12    -0.02   0.04   0.00     0.02   0.02   0.01
   5   6    -0.01   0.23  -0.02    -0.00   0.03   0.01     0.06  -0.29   0.23
   6   6     0.10  -0.06   0.02     0.02   0.00   0.01    -0.03   0.34  -0.19
   7   6    -0.11   0.14   0.13    -0.02   0.06   0.00    -0.05   0.38  -0.24
   8   6    -0.07   0.08   0.01    -0.00  -0.02   0.04     0.06  -0.36   0.25
   9   6     0.14  -0.13   0.08     0.02  -0.02   0.03     0.01  -0.06   0.05
  10   7     0.23  -0.12  -0.14     0.04   0.01  -0.09    -0.01  -0.02  -0.03
  11   7     0.27  -0.06   0.03     0.04   0.02  -0.01     0.01  -0.00  -0.06
  12   6     0.11  -0.04   0.18     0.02  -0.00   0.06    -0.01  -0.00   0.03
  13   6    -0.05   0.08  -0.00    -0.36   0.07  -0.23    -0.00   0.02   0.02
  14   6    -0.13   0.10  -0.13     0.30  -0.05   0.24    -0.03   0.03  -0.03
  15   6     0.18   0.05   0.11     0.04  -0.02   0.01     0.03   0.01   0.01
  16   6    -0.04   0.01  -0.00    -0.33   0.04  -0.28     0.01  -0.00   0.01
  17   6    -0.21   0.04  -0.07     0.29  -0.07   0.27    -0.06   0.01  -0.02
  18  17    -0.01   0.00  -0.00    -0.00  -0.00   0.00    -0.00   0.00   0.00
  19   1     0.18  -0.02   0.02     0.03  -0.02  -0.00     0.05  -0.02  -0.01
  20   1    -0.02   0.18  -0.07    -0.01   0.02  -0.00    -0.01   0.04   0.00
  21   1    -0.07  -0.10   0.01    -0.02  -0.04   0.02    -0.03  -0.06   0.02
  22   1    -0.11  -0.09  -0.01    -0.03  -0.02   0.00    -0.03  -0.02   0.00
  23   1    -0.08  -0.01   0.04    -0.02   0.01   0.01    -0.02   0.02   0.02
  24   1     0.09  -0.14  -0.07     0.03  -0.04  -0.02     0.05  -0.04  -0.03
  25   1    -0.09  -0.06  -0.16    -0.02  -0.00  -0.05    -0.01   0.00  -0.06
  26   1     0.02   0.14  -0.01     0.00   0.01   0.00     0.03  -0.18   0.13
  27   1     0.03  -0.02   0.01     0.00   0.00   0.00    -0.02   0.22  -0.14
  28   1    -0.04   0.04   0.03    -0.00   0.03  -0.00    -0.04   0.24  -0.15
  29   1    -0.06   0.02  -0.04    -0.01  -0.01   0.01     0.03  -0.21   0.14
  30   1    -0.03   0.05  -0.00    -0.22   0.04  -0.16     0.00   0.01   0.01
  31   1    -0.09   0.04  -0.08     0.19  -0.02   0.14    -0.02   0.01  -0.02
  32   1     0.11   0.00   0.07     0.02  -0.01   0.01     0.02   0.00   0.01
  33   1    -0.02  -0.01  -0.02    -0.21   0.03  -0.18     0.01  -0.01   0.01
  34   1    -0.11   0.02  -0.06     0.17  -0.04   0.16    -0.03   0.00  -0.02
                     19                     20                     21
                        a                      a                      a 
 Frequencies --   396.3167               418.2667               456.8424
 Red. masses --     8.0614                10.9589                10.4077
 Frc consts  --     0.0000                 0.0000                 0.0000
 IR Inten    --     4.6760                13.5673                 2.2883
 Raman Activ --     0.0000                 0.0000                 0.0000
 Depolar     --     0.0000                 0.0000                 0.0000
 Atom AN      X      Y      Z        X      Y      Z        X      Y      Z
   1   7     0.00   0.23  -0.12    -0.01  -0.09   0.08    -0.00   0.04  -0.03
   2   6    -0.03  -0.19  -0.11     0.04   0.06   0.06    -0.10  -0.17  -0.02
   3   6    -0.22  -0.03   0.34    -0.25   0.07  -0.16    -0.18  -0.11   0.01
   4   6    -0.05  -0.22  -0.11    -0.23   0.16  -0.20    -0.15   0.15  -0.10
   5   6    -0.02  -0.14  -0.17    -0.04  -0.20  -0.01     0.09   0.03  -0.07
   6   6    -0.10   0.08  -0.03    -0.03  -0.08  -0.03     0.16  -0.15  -0.04
   7   6     0.06   0.02  -0.10    -0.05  -0.05   0.11    -0.03   0.11   0.04
   8   6     0.02   0.10   0.14    -0.04  -0.03   0.17     0.05  -0.12   0.11
   9   6     0.07   0.04   0.18     0.10   0.36  -0.13     0.21   0.06  -0.05
  10   7     0.18  -0.00  -0.05     0.24   0.28  -0.08     0.21   0.08   0.16
  11   7     0.18  -0.02  -0.09     0.14   0.15   0.22    -0.01  -0.17  -0.02
  12   6     0.09  -0.02   0.13     0.16   0.07   0.04    -0.41  -0.02  -0.26
  13   6    -0.06   0.02   0.00    -0.01  -0.09   0.02    -0.01   0.05  -0.03
  14   6    -0.03   0.02  -0.04    -0.10  -0.11  -0.01     0.20   0.04   0.09
  15   6     0.09  -0.01   0.05     0.02  -0.19   0.05    -0.18   0.17  -0.17
  16   6    -0.07  -0.01  -0.05     0.01  -0.06  -0.07     0.12   0.02   0.15
  17   6    -0.04  -0.01   0.02     0.06  -0.05  -0.13    -0.07   0.04   0.09
  18  17     0.00   0.00  -0.01     0.00  -0.00   0.00     0.00  -0.00  -0.00
  19   1    -0.05   0.11   0.08    -0.04  -0.04  -0.02     0.01   0.03   0.05
  20   1     0.02   0.04  -0.09     0.00  -0.08   0.05     0.01   0.03  -0.05
  21   1     0.05   0.17  -0.10     0.01  -0.03   0.04     0.01   0.04  -0.03
  22   1     0.03  -0.02  -0.02     0.06   0.06   0.02    -0.03  -0.05  -0.00
  23   1     0.01  -0.11  -0.03     0.04  -0.06   0.01    -0.03  -0.06   0.02
  24   1    -0.25   0.20   0.14    -0.07  -0.05  -0.05    -0.08  -0.01   0.01
  25   1     0.04  -0.07   0.34    -0.09   0.02  -0.08    -0.06  -0.06   0.04
  26   1    -0.02  -0.04  -0.06     0.02  -0.13   0.07     0.07   0.01   0.03
  27   1    -0.11   0.06  -0.01    -0.05  -0.09   0.05     0.04  -0.09   0.02
  28   1     0.08   0.03  -0.07     0.04  -0.09   0.07     0.01   0.01   0.02
  29   1     0.02   0.05   0.04    -0.02  -0.11   0.08    -0.02  -0.11   0.03
  30   1    -0.05   0.02  -0.02    -0.00  -0.07  -0.03     0.07   0.04   0.07
  31   1    -0.03   0.02  -0.03    -0.05  -0.02  -0.03     0.15  -0.02   0.11
  32   1     0.05  -0.01   0.03     0.01  -0.06   0.03    -0.07   0.05  -0.07
  33   1    -0.05  -0.01  -0.04    -0.02   0.02  -0.02     0.13  -0.04   0.10
  34   1    -0.03  -0.01  -0.00    -0.02  -0.03  -0.05     0.07   0.01   0.09
                     22                     23                     24
                        a                      a                      a 
 Frequencies --   482.7059               533.7273               577.3971
 Red. masses --    11.2698                 9.3956                11.2188
 Frc consts  --     0.0000                 0.0000                 0.0000
 IR Inten    --     1.4238                 1.2285                 1.2160
 Raman Activ --     0.0000                 0.0000                 0.0000
 Depolar     --     0.0000                 0.0000                 0.0000
 Atom AN      X      Y      Z        X      Y      Z        X      Y      Z
   1   7    -0.01   0.07  -0.06    -0.02   0.05  -0.05    -0.00   0.01  -0.00
   2   6    -0.11  -0.17  -0.04    -0.10  -0.18  -0.03    -0.02  -0.03  -0.00
   3   6     0.09  -0.14   0.13     0.16  -0.14   0.13    -0.01  -0.01   0.02
   4   6     0.07   0.10   0.02     0.10   0.31  -0.17    -0.03   0.13  -0.01
   5   6     0.04   0.22  -0.04     0.04   0.10   0.03    -0.08  -0.01   0.08
   6   6     0.10  -0.15   0.09     0.03  -0.01   0.21    -0.04  -0.06  -0.14
   7   6     0.02   0.16  -0.09     0.05   0.02  -0.09     0.07   0.03   0.10
   8   6     0.09  -0.18   0.01     0.03  -0.10   0.07     0.13  -0.03  -0.12
   9   6     0.00  -0.17   0.02    -0.16   0.29  -0.17     0.02   0.05  -0.12
  10   7    -0.15   0.26  -0.02    -0.13  -0.08  -0.12    -0.07  -0.02   0.26
  11   7    -0.03   0.41   0.04    -0.22  -0.16   0.10    -0.00   0.01  -0.23
  12   6     0.00   0.26  -0.02     0.14  -0.15   0.03    -0.05   0.02   0.18
  13   6    -0.10  -0.06   0.13     0.17   0.00  -0.10    -0.16  -0.24   0.27
  14   6    -0.10  -0.10   0.12    -0.04   0.04  -0.09     0.07  -0.26  -0.26
  15   6    -0.08  -0.33  -0.03     0.09   0.13   0.11     0.18  -0.04  -0.07
  16   6     0.11  -0.12  -0.09    -0.13   0.04   0.03     0.15   0.25  -0.25
  17   6     0.07  -0.07  -0.17     0.06  -0.01   0.03    -0.10   0.25   0.26
  18  17    -0.00   0.00  -0.00    -0.00   0.00  -0.00    -0.00  -0.00  -0.00
  19   1     0.03   0.04   0.06     0.03   0.03   0.06     0.01   0.01   0.01
  20   1     0.00   0.07  -0.07    -0.00   0.07  -0.06    -0.00   0.01  -0.01
  21   1    -0.00   0.04  -0.04    -0.01   0.03  -0.04    -0.00   0.00  -0.01
  22   1    -0.09  -0.10  -0.01    -0.12  -0.13  -0.01    -0.02  -0.02  -0.00
  23   1    -0.06   0.03   0.01    -0.07   0.07   0.02    -0.01   0.01   0.00
  24   1    -0.01   0.02   0.05    -0.03   0.02   0.05    -0.02   0.01   0.01
  25   1     0.03  -0.07   0.09     0.05  -0.08   0.11    -0.01  -0.02   0.02
  26   1     0.01   0.10  -0.03     0.01  -0.11   0.07     0.01  -0.04   0.08
  27   1     0.07  -0.05   0.02     0.05  -0.15   0.15     0.03  -0.07  -0.01
  28   1    -0.03   0.08  -0.04     0.02  -0.13   0.07     0.00  -0.04   0.07
  29   1     0.02  -0.05  -0.00     0.06  -0.17   0.15     0.03  -0.07  -0.01
  30   1     0.00  -0.09   0.01     0.00   0.02  -0.06    -0.09  -0.01   0.07
  31   1     0.01   0.02   0.02    -0.09  -0.02  -0.05     0.00  -0.01  -0.13
  32   1    -0.03  -0.09  -0.01     0.02   0.04   0.02    -0.03  -0.00   0.07
  33   1     0.04   0.02   0.02    -0.09   0.01  -0.04     0.01   0.02  -0.12
  34   1    -0.00  -0.08  -0.01    -0.01   0.05  -0.06    -0.08   0.02   0.07
                     25                     26                     27
                        a                      a                      a 
 Frequencies --   591.0973               616.4226               637.5373
 Red. masses --    11.4893                11.7469                10.5669
 Frc consts  --     0.0000                 0.0000                 0.0000
 IR Inten    --     0.4505                 0.4288                 6.1400
 Raman Activ --     0.0000                 0.0000                 0.0000
 Depolar     --     0.0000                 0.0000                 0.0000
 Atom AN      X      Y      Z        X      Y      Z        X      Y      Z
   1   7     0.00  -0.00  -0.01    -0.00  -0.01  -0.00    -0.01   0.01  -0.01
   2   6     0.01   0.01  -0.00    -0.02  -0.04   0.00    -0.01  -0.04  -0.00
   3   6     0.07  -0.02  -0.02    -0.07  -0.02  -0.07     0.07  -0.03   0.03
   4   6     0.07  -0.09  -0.05    -0.03   0.06  -0.12     0.01   0.26  -0.15
   5   6     0.21   0.01  -0.12     0.40  -0.08  -0.09    -0.03  -0.10   0.12
   6   6     0.11   0.15   0.28     0.28   0.19   0.11    -0.07   0.17  -0.06
   7   6    -0.18  -0.14  -0.24    -0.17  -0.21  -0.13     0.03  -0.13   0.05
   8   6    -0.31   0.04   0.16    -0.26   0.08   0.02    -0.02   0.13  -0.13
   9   6    -0.09   0.03   0.12     0.05   0.02   0.04    -0.05  -0.04   0.01
  10   7     0.03  -0.03  -0.23    -0.11  -0.03   0.38    -0.05  -0.24   0.06
  11   7     0.03   0.01   0.32     0.00   0.05  -0.35     0.23   0.06  -0.11
  12   6    -0.05  -0.01   0.03    -0.03   0.09  -0.00     0.21   0.05   0.19
  13   6    -0.16  -0.17   0.02     0.06   0.07   0.13    -0.25   0.10  -0.10
  14   6     0.16  -0.23  -0.10    -0.15   0.12   0.03     0.17   0.04   0.25
  15   6    -0.03   0.02  -0.14     0.08  -0.10   0.09    -0.23  -0.04  -0.17
  16   6     0.22   0.19  -0.07    -0.12  -0.07  -0.07     0.22  -0.08   0.15
  17   6    -0.13   0.21   0.03     0.10  -0.08   0.05    -0.19   0.01  -0.20
  18  17     0.00   0.00   0.00    -0.00   0.00   0.00    -0.00   0.00  -0.00
  19   1     0.00  -0.00  -0.00     0.00   0.00   0.01     0.00   0.01   0.02
  20   1    -0.00   0.00   0.00     0.00  -0.00  -0.01    -0.00   0.02  -0.01
  21   1    -0.00  -0.00  -0.00     0.01   0.00   0.00    -0.01   0.01  -0.01
  22   1    -0.01  -0.01   0.00     0.00  -0.00   0.01    -0.05  -0.05  -0.00
  23   1    -0.00   0.02  -0.00    -0.00  -0.03   0.00    -0.02   0.05   0.01
  24   1     0.04  -0.02  -0.01     0.01  -0.05  -0.03    -0.02   0.00   0.02
  25   1     0.02   0.01  -0.03    -0.05  -0.00  -0.06     0.02  -0.03   0.04
  26   1     0.01   0.00  -0.08     0.12  -0.06   0.01    -0.00  -0.15   0.10
  27   1    -0.01   0.07   0.07     0.07   0.01   0.06     0.01  -0.05   0.04
  28   1    -0.02  -0.02  -0.09    -0.01  -0.10  -0.02     0.01  -0.16   0.10
  29   1    -0.05   0.05   0.07    -0.06   0.01   0.02     0.02  -0.06   0.04
  30   1    -0.02  -0.03   0.04    -0.01   0.01   0.01    -0.11   0.02  -0.06
  31   1     0.10  -0.05  -0.00    -0.06   0.06  -0.03     0.07   0.03   0.07
  32   1    -0.06   0.01   0.04     0.05  -0.03  -0.01    -0.09  -0.00  -0.10
  33   1     0.11   0.02   0.00    -0.06  -0.00  -0.04     0.07  -0.01   0.06
  34   1    -0.02   0.04   0.03     0.01  -0.04   0.02    -0.09  -0.02  -0.06
                     28                     29                     30
                        a                      a                      a 
 Frequencies --   673.3051               694.4912               737.5012
 Red. masses --     7.9973                10.2629                 7.7864
 Frc consts  --     0.0000                 0.0000                 0.0000
 IR Inten    --    14.4973                 7.1629                40.1282
 Raman Activ --     0.0000                 0.0000                 0.0000
 Depolar     --     0.0000                 0.0000                 0.0000
 Atom AN      X      Y      Z        X      Y      Z        X      Y      Z
   1   7    -0.01   0.00  -0.00     0.01   0.02  -0.03     0.00  -0.01   0.02
   2   6     0.00  -0.04  -0.00     0.08   0.10  -0.01    -0.10  -0.01   0.01
   3   6     0.09  -0.03   0.03     0.28  -0.01   0.09    -0.29   0.05  -0.06
   4   6     0.01   0.27  -0.16     0.09  -0.20   0.16    -0.01  -0.22   0.12
   5   6    -0.08  -0.11   0.14    -0.22   0.13  -0.07     0.13   0.11  -0.07
   6   6    -0.10   0.16  -0.07    -0.16  -0.15  -0.01     0.11   0.06   0.12
   7   6     0.04  -0.12   0.08    -0.20   0.04  -0.21     0.16   0.16   0.01
   8   6    -0.00   0.14  -0.11    -0.21  -0.13   0.06     0.21  -0.03  -0.01
   9   6    -0.03  -0.20   0.13    -0.03   0.30  -0.19    -0.08   0.16  -0.11
  10   7     0.03  -0.12  -0.16     0.19  -0.07   0.20    -0.26  -0.25  -0.05
  11   7     0.17   0.05   0.16     0.30  -0.01  -0.14    -0.03   0.02  -0.03
  12   6    -0.24   0.07  -0.19    -0.02   0.04   0.01     0.15   0.00   0.12
  13   6     0.03   0.00   0.08    -0.06   0.06   0.04    -0.10   0.03  -0.05
  14   6    -0.19   0.04  -0.11    -0.07   0.08   0.03    -0.07   0.02  -0.01
  15   6     0.06  -0.06   0.06    -0.02  -0.04  -0.02    -0.08  -0.02  -0.06
  16   6    -0.14   0.04  -0.17    -0.04  -0.03  -0.04    -0.03   0.03  -0.07
  17   6     0.09   0.01   0.02    -0.03  -0.02  -0.01    -0.07   0.03  -0.09
  18  17     0.00   0.00  -0.00     0.00   0.00   0.00    -0.00   0.00  -0.00
  19   1     0.00   0.01   0.02    -0.01  -0.00  -0.04     0.01  -0.01   0.01
  20   1    -0.00   0.01  -0.00    -0.01  -0.00   0.04     0.02  -0.02  -0.06
  21   1    -0.01   0.01  -0.02    -0.02  -0.01  -0.01     0.04   0.00   0.06
  22   1    -0.06  -0.06  -0.01    -0.04  -0.02  -0.01     0.13   0.13   0.04
  23   1    -0.03   0.06   0.01    -0.00   0.12  -0.00     0.05  -0.21  -0.04
  24   1    -0.03   0.01   0.02     0.11   0.01   0.02    -0.02  -0.03  -0.03
  25   1     0.02  -0.03   0.05     0.09   0.01   0.02    -0.08   0.06  -0.08
  26   1    -0.03  -0.09   0.06    -0.08  -0.05   0.00     0.05  -0.03   0.03
  27   1    -0.02   0.03  -0.01    -0.06  -0.15   0.08     0.07  -0.09   0.09
  28   1     0.01  -0.10   0.07    -0.09  -0.05  -0.01     0.09  -0.02   0.03
  29   1     0.01   0.01  -0.00    -0.06  -0.15   0.06     0.10  -0.08   0.08
  30   1     0.23  -0.04   0.20     0.07   0.00   0.09     0.14  -0.02   0.12
  31   1     0.14  -0.01   0.11     0.08   0.03   0.07     0.17  -0.01   0.14
  32   1     0.22  -0.05   0.18     0.11  -0.03   0.06     0.20  -0.04   0.16
  33   1     0.14  -0.01   0.11     0.08  -0.02   0.07     0.18  -0.01   0.13
  34   1     0.24  -0.04   0.19     0.10  -0.03   0.09     0.16  -0.02   0.12
                     31                     32                     33
                        a                      a                      a 
 Frequencies --   768.0281               801.6393               819.4219
 Red. masses --     9.5080                 7.2621                 8.4613
 Frc consts  --     0.0000                 0.0000                 0.0000
 IR Inten    --     3.3744                19.3462                 7.5641
 Raman Activ --     0.0000                 0.0000                 0.0000
 Depolar     --     0.0000                 0.0000                 0.0000
 Atom AN      X      Y      Z        X      Y      Z        X      Y      Z
   1   7     0.00   0.00  -0.00    -0.01   0.01  -0.03     0.06   0.04  -0.03
   2   6    -0.03   0.02   0.00    -0.05   0.05   0.01     0.17   0.09  -0.02
   3   6    -0.05   0.01  -0.00    -0.03  -0.00   0.07     0.12  -0.06   0.00
   4   6     0.01  -0.11   0.06     0.03  -0.15   0.10    -0.13  -0.13   0.04
   5   6    -0.03   0.05  -0.04    -0.01   0.11  -0.09     0.14  -0.06  -0.26
   6   6    -0.03   0.06   0.01    -0.02   0.13  -0.09     0.06  -0.05  -0.29
   7   6     0.06   0.10  -0.01    -0.02   0.11  -0.10    -0.05   0.21   0.22
   8   6     0.05   0.05   0.00    -0.01   0.13  -0.11    -0.11   0.18   0.17
   9   6    -0.02   0.02   0.00     0.02  -0.20   0.13     0.14  -0.12   0.12
  10   7     0.04  -0.32  -0.14    -0.03   0.10  -0.04    -0.14   0.03  -0.06
  11   7     0.03  -0.22   0.12     0.14   0.30   0.05    -0.29  -0.09   0.01
  12   6    -0.25   0.14  -0.20    -0.14  -0.02  -0.10     0.12  -0.01   0.09
  13   6     0.00   0.11   0.21     0.06  -0.09  -0.05     0.00   0.01  -0.02
  14   6    -0.12   0.17   0.24     0.12  -0.13  -0.15    -0.04   0.01   0.02
  15   6     0.05  -0.26   0.06     0.07   0.17   0.04    -0.05  -0.04  -0.03
  16   6     0.22   0.14  -0.19    -0.13  -0.13   0.18     0.03   0.06  -0.06
  17   6     0.19   0.10  -0.05    -0.01  -0.10   0.11    -0.01   0.04  -0.06
  18  17    -0.00  -0.00   0.00    -0.00   0.00   0.00     0.00  -0.00   0.00
  19   1     0.01  -0.00  -0.01     0.02  -0.00  -0.02    -0.07  -0.00  -0.09
  20   1     0.01  -0.01  -0.02     0.02  -0.01  -0.07    -0.05  -0.02   0.23
  21   1     0.01  -0.00   0.02     0.03  -0.01   0.05    -0.09  -0.02  -0.12
  22   1     0.05   0.05   0.01     0.09   0.09   0.03    -0.15  -0.10  -0.09
  23   1     0.02  -0.06  -0.02     0.04  -0.09  -0.05    -0.05   0.22   0.11
  24   1     0.01  -0.00  -0.01     0.07  -0.05  -0.00     0.01   0.04   0.01
  25   1    -0.00   0.03  -0.02    -0.01   0.05  -0.07     0.05  -0.05   0.07
  26   1    -0.00  -0.09   0.05     0.03  -0.24   0.15     0.12  -0.12   0.07
  27   1    -0.00  -0.10   0.08     0.02  -0.24   0.16    -0.03  -0.19   0.05
  28   1     0.05  -0.08   0.06     0.04  -0.24   0.15     0.08  -0.05   0.11
  29   1     0.03  -0.11   0.09     0.04  -0.26   0.16    -0.07  -0.09   0.07
  30   1    -0.12   0.02  -0.06    -0.00  -0.00  -0.01     0.00  -0.01  -0.01
  31   1    -0.13   0.16  -0.08    -0.06  -0.08  -0.07     0.04   0.00   0.04
  32   1    -0.19  -0.03  -0.14    -0.09   0.06  -0.08     0.07  -0.03   0.08
  33   1    -0.10   0.15  -0.12    -0.10  -0.09  -0.04     0.06   0.03   0.04
  34   1    -0.08   0.02  -0.10    -0.08   0.00  -0.04     0.05  -0.00   0.02
                     34                     35                     36
                        a                      a                      a 
 Frequencies --   845.4014               852.6024               856.9749
 Red. masses --     7.1569                 3.6396                 3.7293
 Frc consts  --     0.0000                 0.0000                 0.0000
 IR Inten    --    78.9753                 4.2178                 7.3140
 Raman Activ --     0.0000                 0.0000                 0.0000
 Depolar     --     0.0000                 0.0000                 0.0000
 Atom AN      X      Y      Z        X      Y      Z        X      Y      Z
   1   7    -0.09  -0.01  -0.11    -0.04   0.00  -0.06    -0.01  -0.00  -0.03
   2   6    -0.12   0.04   0.08    -0.05   0.02   0.04    -0.01   0.01   0.02
   3   6     0.11  -0.01   0.24     0.06  -0.01   0.13     0.02  -0.01   0.05
   4   6     0.05   0.09  -0.03     0.00   0.07  -0.03     0.00   0.01  -0.01
   5   6    -0.05  -0.02  -0.00    -0.02   0.10  -0.10     0.01  -0.07   0.03
   6   6    -0.04  -0.07  -0.10    -0.05   0.14  -0.18     0.01  -0.11   0.03
   7   6    -0.05  -0.02  -0.09     0.01  -0.15   0.09    -0.03   0.07  -0.05
   8   6    -0.07   0.09  -0.03    -0.01  -0.18   0.16    -0.03   0.10  -0.05
   9   6     0.06  -0.14   0.11     0.05   0.01   0.03     0.01  -0.04   0.02
  10   7     0.17   0.25   0.03    -0.02  -0.01  -0.02     0.05   0.06   0.03
  11   7    -0.26  -0.23  -0.02    -0.03  -0.02   0.01    -0.08  -0.06  -0.03
  12   6     0.14  -0.02   0.10     0.01  -0.02   0.02     0.04  -0.04   0.04
  13   6     0.09   0.02   0.03    -0.07   0.02  -0.06    -0.17   0.05  -0.15
  14   6    -0.03   0.04   0.08    -0.06   0.02  -0.02    -0.14   0.05  -0.05
  15   6    -0.07  -0.07  -0.04    -0.02  -0.01  -0.01    -0.05  -0.05  -0.03
  16   6     0.03   0.09  -0.11     0.06   0.01   0.01     0.14   0.02   0.03
  17   6    -0.07   0.06  -0.09     0.09  -0.00   0.06     0.21  -0.00   0.15
  18  17    -0.00   0.00  -0.00    -0.00  -0.00  -0.00    -0.00  -0.00  -0.00
  19   1     0.09   0.00   0.03     0.04   0.00   0.02     0.01  -0.00   0.00
  20   1     0.06   0.02  -0.31     0.03   0.01  -0.14     0.01   0.00  -0.05
  21   1     0.11   0.02   0.14     0.04   0.01   0.05     0.02   0.00   0.02
  22   1     0.17   0.13   0.11     0.07   0.06   0.04     0.02   0.02   0.02
  23   1     0.07  -0.13  -0.18     0.03  -0.04  -0.08     0.01  -0.01  -0.03
  24   1     0.15  -0.17   0.03     0.07  -0.10   0.02     0.03  -0.03   0.01
  25   1    -0.01   0.08  -0.13    -0.00   0.04  -0.06    -0.00   0.01  -0.02
  26   1    -0.01  -0.03   0.01     0.04  -0.27   0.17    -0.02   0.12  -0.08
  27   1    -0.03   0.04  -0.06     0.02  -0.35   0.21    -0.02   0.17  -0.12
  28   1    -0.01  -0.11   0.05    -0.04   0.27  -0.18     0.02  -0.15   0.10
  29   1    -0.01  -0.10   0.06    -0.06   0.39  -0.24     0.01  -0.18   0.11
  30   1    -0.14   0.02  -0.13     0.13  -0.02   0.11     0.32  -0.04   0.26
  31   1    -0.02   0.03  -0.00     0.10  -0.01   0.08     0.26  -0.03   0.22
  32   1     0.09  -0.04   0.10     0.02  -0.01   0.02     0.07  -0.03   0.06
  33   1     0.13   0.03   0.08    -0.07   0.02  -0.06    -0.17   0.06  -0.15
  34   1     0.15  -0.01   0.11    -0.17   0.03  -0.14    -0.39   0.06  -0.31
                     37                     38                     39
                        a                      a                      a 
 Frequencies --   875.2408               886.3889               888.7844
 Red. masses --     8.2577                 4.7466                 5.3495
 Frc consts  --     0.0000                 0.0000                 0.0000
 IR Inten    --     9.7732                13.1858                 7.1653
 Raman Activ --     0.0000                 0.0000                 0.0000
 Depolar     --     0.0000                 0.0000                 0.0000
 Atom AN      X      Y      Z        X      Y      Z        X      Y      Z
   1   7     0.04  -0.01   0.20    -0.04   0.01   0.18    -0.10   0.04   0.18
   2   6    -0.02  -0.09  -0.13    -0.05  -0.05  -0.12    -0.07  -0.01  -0.11
   3   6    -0.11   0.07  -0.30     0.08   0.02  -0.23     0.22  -0.02  -0.21
   4   6     0.08  -0.08   0.08     0.03  -0.02   0.02    -0.01   0.01  -0.02
   5   6    -0.11   0.22   0.11    -0.01   0.06   0.01     0.06  -0.10  -0.03
   6   6    -0.01   0.16   0.09     0.01  -0.00  -0.04     0.01  -0.06  -0.11
   7   6    -0.03  -0.11  -0.18    -0.04   0.01  -0.00    -0.03   0.09   0.16
   8   6     0.04  -0.06  -0.16    -0.06   0.01   0.01    -0.11   0.06   0.13
   9   6    -0.02  -0.16   0.08     0.03  -0.05   0.03     0.04   0.07  -0.04
  10   7     0.23   0.25   0.05     0.04   0.10   0.02    -0.13  -0.15  -0.03
  11   7    -0.11  -0.15  -0.02    -0.11  -0.08  -0.03     0.07   0.11   0.02
  12   6     0.05  -0.03   0.05     0.09  -0.03   0.07    -0.06   0.03  -0.05
  13   6     0.08   0.01   0.03    -0.15   0.04  -0.17     0.07  -0.03   0.10
  14   6    -0.06   0.03   0.02    -0.00   0.01   0.03     0.02  -0.02  -0.03
  15   6    -0.12  -0.03  -0.09     0.16  -0.07   0.15    -0.08   0.06  -0.07
  16   6     0.02   0.05  -0.06     0.09   0.01   0.02    -0.07  -0.02   0.00
  17   6     0.06   0.01   0.05    -0.15   0.05  -0.11     0.09  -0.04   0.06
  18  17     0.00  -0.00  -0.00    -0.00   0.00   0.00    -0.00   0.00   0.00
  19   1    -0.02  -0.01   0.02     0.05  -0.02   0.00     0.10  -0.04  -0.04
  20   1    -0.01  -0.02   0.14     0.04  -0.03  -0.09     0.08  -0.05  -0.23
  21   1    -0.03  -0.02   0.01     0.06  -0.04   0.22     0.13  -0.07   0.37
  22   1    -0.05  -0.07  -0.02     0.04  -0.05   0.10     0.09  -0.06   0.19
  23   1    -0.03  -0.04   0.07     0.02  -0.05  -0.09     0.04  -0.05  -0.18
  24   1    -0.13   0.23  -0.05    -0.08   0.23  -0.03    -0.07   0.25  -0.02
  25   1     0.02  -0.06   0.11     0.09  -0.07   0.14     0.14  -0.09   0.19
  26   1    -0.02  -0.20   0.17     0.02  -0.06   0.06     0.02   0.13  -0.08
  27   1     0.08  -0.09   0.10     0.02  -0.02   0.00    -0.02  -0.04  -0.01
  28   1    -0.08  -0.04  -0.03    -0.03  -0.02   0.02     0.01   0.05   0.02
  29   1     0.04  -0.03  -0.01    -0.02  -0.01  -0.00    -0.06  -0.02   0.02
  30   1    -0.13   0.02  -0.12     0.33  -0.05   0.26    -0.18   0.03  -0.13
  31   1     0.09   0.00   0.08    -0.08   0.02  -0.05     0.03  -0.01   0.02
  32   1     0.18  -0.05   0.16    -0.27   0.04  -0.20     0.13  -0.01   0.10
  33   1     0.08   0.01   0.05    -0.17   0.05  -0.14     0.09  -0.04   0.08
  34   1    -0.13   0.03  -0.11     0.28  -0.04   0.23    -0.16   0.02  -0.13
                     40                     41                     42
                        a                      a                      a 
 Frequencies --   900.9408               914.3645               917.0754
 Red. masses --     2.9296                 4.1531                 4.0965
 Frc consts  --     0.0000                 0.0000                 0.0000
 IR Inten    --     0.4823                 1.0082                 0.2353
 Raman Activ --     0.0000                 0.0000                 0.0000
 Depolar     --     0.0000                 0.0000                 0.0000
 Atom AN      X      Y      Z        X      Y      Z        X      Y      Z
   1   7     0.01  -0.04   0.02     0.01  -0.03   0.03    -0.00  -0.00   0.01
   2   6    -0.01  -0.04  -0.00    -0.01  -0.02  -0.02    -0.00  -0.00  -0.00
   3   6    -0.01   0.04   0.01    -0.02   0.04  -0.01     0.00   0.00  -0.00
   4   6     0.02  -0.00   0.02     0.02  -0.00   0.02    -0.00   0.00  -0.00
   5   6     0.01  -0.16   0.13     0.01  -0.20   0.18     0.00  -0.00  -0.01
   6   6    -0.02   0.18  -0.11    -0.03   0.19  -0.11    -0.00  -0.00  -0.00
   7   6     0.03  -0.18   0.07    -0.04   0.23  -0.22     0.00   0.01   0.01
   8   6    -0.02   0.14  -0.12     0.03  -0.20   0.10    -0.00  -0.01   0.01
   9   6     0.00  -0.01   0.01     0.03  -0.02   0.02    -0.00   0.01  -0.01
  10   7     0.04   0.06   0.00     0.02   0.04   0.00    -0.02  -0.03  -0.01
  11   7    -0.04  -0.02  -0.00    -0.03  -0.03  -0.00     0.03   0.01   0.01
  12   6     0.01  -0.01   0.01     0.02  -0.01   0.01    -0.01   0.03  -0.01
  13   6    -0.00   0.01  -0.02     0.00   0.00  -0.01     0.16  -0.04   0.15
  14   6    -0.01   0.00   0.00     0.00   0.00   0.01    -0.24   0.03  -0.22
  15   6     0.00  -0.01   0.01    -0.00  -0.00  -0.00     0.01   0.03   0.00
  16   6     0.02   0.01  -0.00     0.01   0.01  -0.01     0.21  -0.06   0.21
  17   6    -0.01   0.01  -0.01    -0.01   0.00  -0.01    -0.13   0.01  -0.11
  18  17     0.00   0.00  -0.00     0.00   0.00  -0.00    -0.00  -0.00  -0.00
  19   1    -0.01   0.01   0.06    -0.01   0.01   0.05     0.00   0.00   0.01
  20   1    -0.01   0.02   0.01    -0.01   0.02   0.02     0.00   0.00  -0.00
  21   1    -0.00   0.03  -0.05    -0.00   0.02  -0.04     0.00   0.00  -0.00
  22   1    -0.01   0.00  -0.03    -0.01  -0.00  -0.02     0.00   0.00  -0.00
  23   1    -0.01  -0.01   0.01    -0.00  -0.01   0.01     0.00  -0.00  -0.00
  24   1     0.02  -0.01  -0.00     0.02   0.02  -0.01     0.00   0.00  -0.00
  25   1    -0.02   0.02  -0.02    -0.02   0.01  -0.01     0.00   0.00   0.00
  26   1    -0.06   0.38  -0.25    -0.06   0.36  -0.23     0.00  -0.00  -0.00
  27   1     0.05  -0.39   0.26     0.04  -0.28   0.19    -0.00   0.00  -0.00
  28   1    -0.06   0.35  -0.25     0.06  -0.44   0.28     0.00  -0.00   0.01
  29   1     0.05  -0.35   0.23    -0.03   0.31  -0.20    -0.00   0.01  -0.01
  30   1     0.03  -0.00   0.02     0.01  -0.00   0.00    -0.26   0.04  -0.21
  31   1     0.01  -0.00   0.01    -0.01   0.00  -0.01     0.43  -0.08   0.34
  32   1    -0.01  -0.00  -0.00     0.01  -0.00   0.01    -0.01   0.01  -0.01
  33   1    -0.02   0.01  -0.02    -0.00   0.00  -0.00    -0.38   0.06  -0.30
  34   1     0.02  -0.00   0.02     0.01  -0.00   0.01     0.20  -0.03   0.15
                     43                     44                     45
                        a                      a                      a 
 Frequencies --   924.9966               932.0492               984.8204
 Red. masses --     3.1942                 6.3537                10.9045
 Frc consts  --     0.0000                 0.0000                 0.0000
 IR Inten    --     0.5644                41.8836                 1.3804
 Raman Activ --     0.0000                 0.0000                 0.0000
 Depolar     --     0.0000                 0.0000                 0.0000
 Atom AN      X      Y      Z        X      Y      Z        X      Y      Z
   1   7    -0.00  -0.00   0.00     0.02  -0.26   0.30    -0.00  -0.01   0.01
   2   6    -0.00   0.00  -0.00    -0.08  -0.22  -0.18     0.01   0.00  -0.01
   3   6     0.00   0.00   0.00     0.09   0.36  -0.03     0.01   0.01   0.00
   4   6    -0.00   0.00  -0.00     0.06   0.02   0.02    -0.02  -0.00  -0.00
   5   6     0.00  -0.00  -0.01     0.00  -0.00  -0.08     0.03  -0.02  -0.04
   6   6    -0.00  -0.00   0.00    -0.03  -0.12  -0.11    -0.00   0.01   0.02
   7   6     0.00   0.00   0.01    -0.00   0.02   0.03    -0.00   0.02   0.04
   8   6    -0.00   0.00   0.00    -0.08   0.07   0.10     0.01  -0.01  -0.01
   9   6    -0.00   0.01  -0.01     0.03   0.02   0.00    -0.02   0.01  -0.01
  10   7    -0.01  -0.02  -0.01    -0.06  -0.06  -0.02    -0.07   0.02   0.00
  11   7     0.02   0.02   0.01     0.00   0.03   0.01     0.11   0.17   0.01
  12   6    -0.07   0.01  -0.06    -0.01   0.01  -0.01    -0.04  -0.16  -0.02
  13   6    -0.00  -0.00   0.00    -0.01  -0.01   0.01     0.37   0.14  -0.38
  14   6     0.15  -0.03   0.12     0.01  -0.01  -0.01    -0.10   0.05   0.13
  15   6    -0.23   0.04  -0.19     0.00   0.01   0.00    -0.05  -0.36  -0.02
  16   6     0.18  -0.04   0.15    -0.01  -0.00   0.00     0.10   0.01  -0.11
  17   6    -0.02   0.01  -0.01     0.01  -0.01  -0.00    -0.32   0.20   0.42
  18  17    -0.00  -0.00  -0.00    -0.00  -0.00  -0.01    -0.00   0.00  -0.00
  19   1     0.00   0.00   0.00     0.03   0.08   0.52     0.01   0.00   0.02
  20   1     0.00   0.00  -0.00    -0.02   0.17  -0.06     0.00   0.00  -0.01
  21   1     0.00   0.00   0.00    -0.00   0.18  -0.26     0.00   0.00   0.00
  22   1     0.00   0.00   0.00    -0.01   0.03  -0.15    -0.00  -0.00  -0.00
  23   1     0.00   0.00  -0.00    -0.02  -0.07  -0.04     0.00   0.01  -0.01
  24   1     0.00   0.00   0.00     0.16   0.09  -0.04     0.01   0.00   0.00
  25   1     0.00   0.00   0.00     0.03   0.17  -0.12     0.00   0.00  -0.00
  26   1     0.00  -0.01   0.00     0.02  -0.07   0.03     0.00  -0.01  -0.01
  27   1    -0.00   0.01  -0.00    -0.05   0.04  -0.07    -0.02   0.01   0.01
  28   1     0.00   0.01  -0.00     0.03  -0.00   0.01    -0.01   0.01   0.01
  29   1    -0.00  -0.00   0.00    -0.03   0.01   0.03    -0.00   0.01  -0.01
  30   1     0.09  -0.01   0.08    -0.01   0.00   0.00     0.07  -0.01  -0.17
  31   1    -0.33   0.06  -0.27    -0.00  -0.00  -0.01    -0.06  -0.07   0.07
  32   1     0.45  -0.08   0.36    -0.00   0.00  -0.00    -0.01  -0.10  -0.01
  33   1    -0.38   0.06  -0.31     0.01  -0.00   0.01     0.04  -0.09  -0.07
  34   1     0.11  -0.02   0.09    -0.01  -0.00  -0.01    -0.11   0.00   0.14
                     46                     47                     48
                        a                      a                      a 
 Frequencies --  1013.6074              1033.9648              1048.2579
 Red. masses --     8.5338                 7.7349                 5.0145
 Frc consts  --     0.0000                 0.0000                 0.0000
 IR Inten    --     1.8508                13.3133                11.8091
 Raman Activ --     0.0000                 0.0000                 0.0000
 Depolar     --     0.0000                 0.0000                 0.0000
 Atom AN      X      Y      Z        X      Y      Z        X      Y      Z
   1   7     0.06   0.05  -0.09    -0.09  -0.19  -0.34    -0.18  -0.09   0.07
   2   6    -0.12  -0.05   0.09     0.08   0.03   0.53     0.37   0.14  -0.06
   3   6    -0.05  -0.02  -0.06     0.06   0.04  -0.31    -0.21   0.00   0.03
   4   6     0.16   0.05   0.00     0.01  -0.10  -0.02    -0.09  -0.10   0.07
   5   6    -0.14   0.17   0.30    -0.01   0.04   0.04    -0.06   0.08   0.10
   6   6     0.06  -0.21  -0.31     0.02   0.05   0.05     0.05  -0.03  -0.05
   7   6     0.07  -0.18  -0.27    -0.04   0.06   0.08     0.05  -0.10  -0.18
   8   6    -0.17   0.19   0.31    -0.03  -0.01  -0.00     0.04   0.04   0.04
   9   6     0.13   0.04   0.01     0.00  -0.02  -0.02     0.03   0.02   0.02
  10   7    -0.11  -0.09  -0.03     0.01   0.01   0.01    -0.03  -0.03  -0.01
  11   7    -0.02   0.06   0.01    -0.00  -0.00  -0.00    -0.01   0.01   0.00
  12   6    -0.01  -0.00  -0.01     0.00   0.00   0.00    -0.00   0.00  -0.00
  13   6     0.03   0.01  -0.03    -0.00  -0.00  -0.00     0.00   0.00  -0.00
  14   6    -0.00  -0.01   0.00    -0.00  -0.00  -0.00    -0.00  -0.00   0.00
  15   6    -0.00  -0.02  -0.00    -0.00  -0.00  -0.00    -0.00   0.00   0.00
  16   6     0.00  -0.00  -0.00    -0.00  -0.00   0.00     0.00   0.00  -0.00
  17   6    -0.02   0.01   0.03    -0.00   0.00   0.00     0.00   0.00   0.00
  18  17     0.00   0.00   0.00    -0.00  -0.00  -0.00    -0.00   0.00  -0.00
  19   1    -0.05  -0.01  -0.12     0.03   0.03   0.18     0.10   0.01   0.18
  20   1    -0.02  -0.04   0.12    -0.01   0.11  -0.26     0.03   0.08  -0.31
  21   1    -0.05  -0.03  -0.05     0.02   0.11  -0.23     0.10   0.06   0.12
  22   1     0.04   0.06   0.01     0.01   0.01   0.11    -0.14  -0.20   0.01
  23   1    -0.00  -0.17   0.10     0.03   0.02   0.09     0.00   0.45  -0.12
  24   1    -0.06   0.01  -0.00    -0.32   0.01  -0.01    -0.06  -0.10   0.00
  25   1     0.05   0.03   0.02     0.26   0.11   0.13    -0.26  -0.18  -0.02
  26   1     0.08   0.14   0.17     0.02   0.01   0.04     0.05   0.05   0.10
  27   1     0.21  -0.04  -0.15     0.05  -0.01   0.02     0.10  -0.01  -0.03
  28   1     0.19  -0.04  -0.12    -0.05   0.00   0.05     0.13  -0.04  -0.07
  29   1     0.07   0.11   0.18    -0.05  -0.04  -0.04     0.11   0.06   0.10
  30   1     0.01  -0.00  -0.01     0.00  -0.00   0.00     0.00  -0.00  -0.00
  31   1    -0.01  -0.01   0.00     0.00   0.00   0.00    -0.00  -0.00   0.00
  32   1    -0.00  -0.01   0.00     0.00  -0.00  -0.00     0.00   0.00   0.00
  33   1     0.00  -0.01  -0.01    -0.00  -0.00  -0.00    -0.00   0.00  -0.00
  34   1    -0.01  -0.01   0.01    -0.00  -0.00   0.00    -0.00  -0.00   0.00
                     49                     50                     51
                        a                      a                      a 
 Frequencies --  1085.7102              1087.3588              1114.9164
 Red. masses --     6.4291                 7.0424                 3.8326
 Frc consts  --     0.0000                 0.0000                 0.0000
 IR Inten    --     1.7473                23.4248                 0.2888
 Raman Activ --     0.0000                 0.0000                 0.0000
 Depolar     --     0.0000                 0.0000                 0.0000
 Atom AN      X      Y      Z        X      Y      Z        X      Y      Z
   1   7     0.00  -0.00   0.00    -0.06   0.09  -0.21    -0.00   0.00   0.00
   2   6    -0.00   0.01  -0.01     0.08  -0.39   0.30     0.00  -0.00  -0.00
   3   6     0.00  -0.01   0.00    -0.04   0.43  -0.01     0.00   0.00   0.00
   4   6    -0.00  -0.00  -0.00     0.03   0.05   0.11    -0.00  -0.00  -0.00
   5   6    -0.00   0.00   0.00     0.05  -0.05  -0.10     0.01  -0.00  -0.00
   6   6     0.00   0.00   0.00    -0.04  -0.05  -0.06    -0.00   0.00  -0.00
   7   6    -0.00   0.00   0.00     0.02  -0.03  -0.05     0.00   0.01   0.01
   8   6    -0.00   0.00  -0.00     0.03  -0.01  -0.03    -0.00   0.01   0.01
   9   6     0.00   0.00  -0.00    -0.00   0.03   0.05    -0.03  -0.02  -0.01
  10   7    -0.00  -0.00  -0.00    -0.01  -0.01  -0.01     0.02   0.02  -0.01
  11   7     0.00   0.01  -0.00     0.00   0.00   0.01    -0.03  -0.03   0.02
  12   6     0.01   0.01  -0.01    -0.01  -0.01  -0.00     0.11   0.02  -0.12
  13   6    -0.05  -0.16   0.02    -0.00  -0.00   0.00    -0.12  -0.17   0.10
  14   6    -0.21   0.09   0.28    -0.01   0.00   0.01    -0.06   0.11   0.09
  15   6     0.07   0.44   0.01     0.00   0.01   0.00     0.12  -0.04  -0.15
  16   6     0.21   0.03  -0.26     0.01   0.00  -0.01    -0.13  -0.10   0.14
  17   6    -0.01  -0.14  -0.01     0.00  -0.00  -0.00    -0.07   0.21   0.13
  18  17    -0.00   0.00  -0.00    -0.00  -0.00   0.00     0.00   0.00   0.00
  19   1     0.00   0.00   0.00     0.01  -0.03  -0.18     0.00   0.00   0.00
  20   1    -0.00   0.00   0.00     0.01  -0.07  -0.05     0.00  -0.00   0.00
  21   1     0.00   0.00  -0.00     0.00  -0.07   0.09    -0.00  -0.00   0.00
  22   1     0.00   0.01  -0.00    -0.10  -0.30   0.20    -0.00   0.00  -0.00
  23   1     0.00  -0.00  -0.00    -0.03  -0.03   0.15    -0.00   0.00  -0.00
  24   1    -0.00  -0.00   0.00     0.29   0.25  -0.05     0.00  -0.00  -0.00
  25   1     0.01   0.00   0.00    -0.22  -0.03  -0.09     0.00   0.00  -0.00
  26   1    -0.00  -0.00  -0.00     0.02  -0.03  -0.02     0.00   0.00   0.00
  27   1     0.00   0.00  -0.00    -0.16  -0.00   0.02     0.01  -0.01  -0.00
  28   1    -0.00   0.00   0.00    -0.07  -0.01   0.01     0.01   0.00   0.00
  29   1    -0.00  -0.00  -0.00     0.07   0.03   0.04     0.01   0.01   0.01
  30   1     0.06  -0.36  -0.14    -0.00  -0.01  -0.00     0.06  -0.42  -0.13
  31   1    -0.18  -0.20   0.18    -0.00  -0.00   0.00     0.13   0.30  -0.09
  32   1     0.04   0.13  -0.01     0.00   0.00  -0.00     0.25  -0.03  -0.32
  33   1     0.12  -0.27  -0.21     0.00  -0.00  -0.01     0.01  -0.25  -0.07
  34   1    -0.12  -0.27   0.10     0.00   0.00  -0.00     0.15   0.40  -0.11
                     52                     53                     54
                        a                      a                      a 
 Frequencies --  1131.6907              1174.3970              1178.5145
 Red. masses --     2.9932                 5.2485                 2.6569
 Frc consts  --     0.0000                 0.0000                 0.0000
 IR Inten    --     2.5638                35.2035                 7.9791
 Raman Activ --     0.0000                 0.0000                 0.0000
 Depolar     --     0.0000                 0.0000                 0.0000
 Atom AN      X      Y      Z        X      Y      Z        X      Y      Z
   1   7     0.02  -0.04   0.02    -0.01  -0.00   0.00     0.01  -0.00  -0.00
   2   6    -0.04   0.11  -0.02     0.01   0.01  -0.00    -0.01  -0.00   0.01
   3   6     0.02  -0.12  -0.05    -0.03  -0.01  -0.01     0.02  -0.00   0.00
   4   6    -0.03   0.08   0.11     0.06   0.01   0.01    -0.04  -0.01  -0.01
   5   6     0.12  -0.01  -0.03    -0.06   0.05   0.08     0.04  -0.05  -0.09
   6   6    -0.06  -0.09  -0.10     0.00   0.02   0.05     0.00  -0.02  -0.05
   7   6    -0.07  -0.10  -0.13     0.02  -0.05  -0.07    -0.03   0.04   0.07
   8   6     0.13  -0.03  -0.09     0.00  -0.02  -0.04     0.01   0.02   0.05
   9   6     0.02   0.10   0.14     0.30   0.06   0.04    -0.27  -0.05  -0.04
  10   7    -0.03  -0.03  -0.02    -0.06  -0.13  -0.04     0.09   0.05   0.03
  11   7     0.00   0.02   0.01    -0.11  -0.10   0.01     0.07  -0.01  -0.01
  12   6    -0.02  -0.03  -0.00     0.04   0.36   0.00     0.02  -0.04  -0.04
  13   6    -0.00  -0.01   0.01     0.06   0.07  -0.08     0.01   0.08   0.00
  14   6    -0.01   0.01   0.01     0.10  -0.04  -0.14     0.01   0.03  -0.01
  15   6     0.00   0.00  -0.00    -0.03  -0.03   0.03    -0.05   0.01   0.06
  16   6     0.01   0.00  -0.01    -0.09  -0.02   0.10     0.02  -0.01  -0.03
  17   6     0.01  -0.00  -0.01    -0.05  -0.03   0.07    -0.00  -0.09  -0.01
  18  17     0.00   0.00  -0.00    -0.00   0.00  -0.00    -0.00   0.00   0.00
  19   1    -0.01   0.01   0.04    -0.00  -0.00  -0.00    -0.00   0.00   0.00
  20   1    -0.01   0.02   0.02     0.00   0.00  -0.01    -0.00   0.00   0.01
  21   1    -0.00   0.02  -0.05     0.00   0.00   0.00    -0.00   0.00  -0.01
  22   1     0.03   0.07  -0.01    -0.00   0.00  -0.01     0.00  -0.00   0.01
  23   1     0.01  -0.02  -0.03    -0.00  -0.00   0.02     0.00   0.00  -0.01
  24   1    -0.07  -0.01   0.00    -0.02  -0.01   0.00     0.02   0.02  -0.00
  25   1     0.05  -0.03   0.04    -0.03  -0.03   0.00     0.02   0.01  -0.00
  26   1     0.36   0.23   0.25    -0.03  -0.00   0.01    -0.00  -0.02  -0.04
  27   1    -0.49   0.01   0.08    -0.27   0.03   0.08     0.27  -0.03  -0.08
  28   1    -0.42  -0.02   0.07     0.06  -0.01  -0.04    -0.13   0.02   0.05
  29   1     0.27   0.14   0.18    -0.18  -0.14  -0.16     0.20   0.15   0.18
  30   1    -0.00  -0.00  -0.00     0.12  -0.34  -0.18     0.02  -0.07  -0.04
  31   1    -0.00   0.01   0.00     0.16   0.24  -0.15     0.16   0.31  -0.13
  32   1     0.00   0.00  -0.00    -0.19   0.00   0.25    -0.38   0.04   0.48
  33   1     0.00  -0.00  -0.00    -0.02  -0.02   0.03     0.07  -0.29  -0.15
  34   1     0.01   0.02  -0.01    -0.14  -0.23   0.11     0.04   0.06  -0.04
                     55                     56                     57
                        a                      a                      a 
 Frequencies --  1180.5300              1191.0310              1195.0607
 Red. masses --     3.4675                 4.2186                 4.2427
 Frc consts  --     0.0000                 0.0000                 0.0000
 IR Inten    --     2.9545                11.5177                 7.3047
 Raman Activ --     0.0000                 0.0000                 0.0000
 Depolar     --     0.0000                 0.0000                 0.0000
 Atom AN      X      Y      Z        X      Y      Z        X      Y      Z
   1   7     0.01  -0.00  -0.00    -0.09   0.16   0.06     0.03  -0.02  -0.01
   2   6    -0.01   0.01   0.00     0.16  -0.33  -0.16    -0.04   0.00   0.05
   3   6     0.01  -0.01   0.00    -0.01   0.22   0.06     0.11  -0.00   0.02
   4   6    -0.02   0.00   0.00     0.02  -0.10  -0.08    -0.26  -0.04  -0.05
   5   6     0.04  -0.06  -0.09     0.02   0.03   0.04     0.05  -0.00  -0.01
   6   6     0.01  -0.03  -0.06    -0.05   0.02   0.02    -0.08   0.04   0.07
   7   6    -0.03   0.04   0.06    -0.02   0.03   0.04     0.04   0.01   0.01
   8   6     0.02   0.03   0.06     0.00   0.01   0.01    -0.03  -0.07  -0.09
   9   6    -0.24  -0.03  -0.03    -0.05  -0.02  -0.02    -0.35  -0.08  -0.07
  10   7     0.11  -0.01   0.01     0.02   0.01   0.01     0.12   0.09   0.04
  11   7     0.02  -0.11   0.00     0.01  -0.01  -0.00     0.08  -0.05  -0.00
  12   6    -0.00   0.25   0.02     0.00   0.00  -0.00    -0.01  -0.01   0.00
  13   6     0.03  -0.04  -0.06     0.00  -0.00  -0.00     0.00  -0.02  -0.01
  14   6     0.08  -0.02  -0.10     0.00   0.00  -0.00     0.01   0.02  -0.01
  15   6     0.02  -0.01  -0.02     0.00   0.00   0.00    -0.00   0.01   0.00
  16   6    -0.08   0.02   0.10    -0.00   0.00   0.00    -0.00   0.02   0.01
  17   6    -0.04   0.01   0.07    -0.00  -0.01   0.00    -0.01  -0.03   0.01
  18  17     0.00  -0.00  -0.00    -0.00   0.00   0.00     0.00  -0.00  -0.00
  19   1    -0.00   0.00   0.00     0.03  -0.02  -0.13    -0.01  -0.00  -0.00
  20   1    -0.00   0.00   0.01     0.03  -0.09  -0.03    -0.00   0.01   0.02
  21   1    -0.00   0.00  -0.01     0.02  -0.07   0.22    -0.01   0.01  -0.04
  22   1     0.00   0.00   0.01    -0.09  -0.13  -0.17     0.02   0.01   0.04
  23   1     0.00  -0.00  -0.01    -0.03   0.04   0.05     0.01  -0.00  -0.04
  24   1     0.01   0.01  -0.00    -0.28  -0.40   0.04     0.18   0.13  -0.02
  25   1     0.00   0.00  -0.00     0.30   0.41  -0.11     0.06   0.01   0.03
  26   1    -0.04  -0.05  -0.07     0.15   0.11   0.13     0.37   0.25   0.29
  27   1     0.27  -0.03  -0.08    -0.00  -0.01   0.01    -0.06  -0.00   0.04
  28   1    -0.22   0.02   0.07    -0.05  -0.00   0.03     0.55  -0.01  -0.14
  29   1     0.23   0.17   0.20    -0.03  -0.02  -0.02    -0.04  -0.02  -0.06
  30   1     0.07  -0.24  -0.12     0.00  -0.02  -0.01     0.02  -0.07  -0.03
  31   1     0.02   0.00  -0.03     0.01   0.02  -0.01     0.04   0.07  -0.03
  32   1     0.17  -0.02  -0.21    -0.00   0.00   0.00    -0.01   0.00   0.01
  33   1    -0.10   0.36   0.20    -0.00   0.02   0.01    -0.02   0.10   0.05
  34   1    -0.20  -0.33   0.16    -0.01  -0.02   0.01    -0.04  -0.09   0.04
                     58                     59                     60
                        a                      a                      a 
 Frequencies --  1210.0595              1238.1878              1253.8499
 Red. masses --     7.3874                 3.8317                 7.8789
 Frc consts  --     0.0000                 0.0000                 0.0000
 IR Inten    --    12.1311                32.1451                 4.0844
 Raman Activ --     0.0000                 0.0000                 0.0000
 Depolar     --     0.0000                 0.0000                 0.0000
 Atom AN      X      Y      Z        X      Y      Z        X      Y      Z
   1   7     0.00   0.00  -0.00    -0.25   0.02   0.01     0.09  -0.03  -0.01
   2   6    -0.00  -0.01   0.00     0.19   0.05   0.01    -0.08   0.04  -0.05
   3   6     0.02   0.00   0.01    -0.05  -0.13  -0.04    -0.15   0.06  -0.05
   4   6    -0.05  -0.01  -0.01     0.18   0.09   0.06     0.46   0.08   0.12
   5   6     0.01  -0.01  -0.02     0.10   0.00  -0.02     0.22   0.03   0.00
   6   6    -0.01   0.01   0.01    -0.03  -0.05  -0.07    -0.10  -0.10  -0.14
   7   6     0.00   0.01   0.01     0.05   0.04   0.05     0.14   0.09   0.09
   8   6     0.01  -0.01   0.00    -0.09  -0.00   0.03    -0.18   0.03   0.10
   9   6    -0.10  -0.02  -0.02    -0.17  -0.05  -0.05    -0.34  -0.11  -0.12
  10   7     0.12  -0.08  -0.00     0.06   0.03   0.02     0.11   0.06   0.04
  11   7    -0.08  -0.22   0.01     0.03  -0.02  -0.00     0.06  -0.04  -0.01
  12   6     0.07   0.58   0.00     0.00   0.01  -0.01     0.02   0.01  -0.02
  13   6     0.02   0.16  -0.01    -0.00   0.00   0.00    -0.00  -0.01   0.00
  14   6     0.05  -0.16  -0.09     0.00   0.00   0.00    -0.00  -0.00   0.01
  15   6    -0.01  -0.10  -0.01    -0.00   0.00   0.00    -0.00   0.00   0.00
  16   6    -0.09  -0.14   0.08    -0.00  -0.00   0.00    -0.00   0.00   0.01
  17   6     0.02   0.15   0.03     0.00  -0.00   0.00    -0.00   0.00   0.01
  18  17     0.00   0.00   0.00    -0.00  -0.00  -0.00     0.00  -0.00  -0.00
  19   1     0.00  -0.00  -0.00     0.07  -0.01   0.02    -0.03   0.01   0.01
  20   1     0.00  -0.00   0.01     0.01  -0.00  -0.22    -0.01   0.01   0.08
  21   1    -0.00  -0.00  -0.00     0.07   0.02   0.18    -0.02  -0.00  -0.07
  22   1     0.00  -0.00   0.01    -0.05   0.24  -0.48    -0.00  -0.12   0.21
  23   1     0.00   0.00  -0.01    -0.04  -0.20   0.53     0.01   0.03  -0.15
  24   1     0.03   0.01  -0.00     0.06   0.10  -0.02    -0.27  -0.22   0.02
  25   1     0.02   0.02   0.00    -0.05  -0.10   0.03    -0.20  -0.14  -0.00
  26   1     0.06   0.04   0.04    -0.01  -0.03  -0.04     0.01  -0.04  -0.05
  27   1     0.03  -0.00  -0.01    -0.13  -0.01   0.01    -0.25  -0.03   0.02
  28   1     0.03   0.00  -0.00     0.06   0.01   0.00     0.08   0.03   0.03
  29   1     0.05   0.04   0.04    -0.03   0.01   0.00    -0.14  -0.04  -0.05
  30   1     0.01   0.13   0.05    -0.00   0.01   0.00    -0.01   0.03   0.02
  31   1    -0.17  -0.40   0.12    -0.00  -0.00   0.00     0.01   0.01  -0.00
  32   1     0.00  -0.03  -0.01    -0.00   0.00   0.00     0.00   0.00  -0.00
  33   1     0.05  -0.39  -0.15     0.00  -0.00  -0.00     0.00  -0.01  -0.00
  34   1     0.02   0.12  -0.03    -0.01  -0.01   0.00    -0.02  -0.03   0.01
                     61                     62                     63
                        a                      a                      a 
 Frequencies --  1270.9130              1273.8415              1325.9503
 Red. masses --     3.4257                 3.5169                 4.5182
 Frc consts  --     0.0000                 0.0000                 0.0000
 IR Inten    --     5.1290                 1.7314                 3.2936
 Raman Activ --     0.0000                 0.0000                 0.0000
 Depolar     --     0.0000                 0.0000                 0.0000
 Atom AN      X      Y      Z        X      Y      Z        X      Y      Z
   1   7     0.01   0.03   0.00    -0.00   0.00  -0.00    -0.04  -0.09  -0.08
   2   6    -0.01  -0.06   0.02     0.00  -0.00   0.01    -0.04   0.21  -0.25
   3   6     0.06   0.02  -0.04     0.00  -0.01   0.01     0.29   0.22   0.04
   4   6    -0.15   0.06   0.13    -0.02  -0.01  -0.02    -0.15  -0.04   0.03
   5   6     0.05   0.08   0.11    -0.02  -0.00   0.00    -0.07  -0.04  -0.05
   6   6     0.13   0.01  -0.01    -0.00   0.01   0.01     0.03   0.03   0.04
   7   6    -0.17   0.01   0.05    -0.00  -0.01  -0.01    -0.05  -0.01  -0.00
   8   6    -0.04  -0.05  -0.06     0.02   0.01   0.00     0.02  -0.04  -0.07
   9   6     0.11  -0.15  -0.23     0.03   0.00   0.01     0.06   0.03   0.04
  10   7    -0.00   0.02   0.02    -0.01   0.01  -0.02    -0.02  -0.01  -0.01
  11   7    -0.02   0.00  -0.01    -0.04  -0.02   0.03    -0.01  -0.00   0.00
  12   6     0.01  -0.00  -0.01     0.21   0.00  -0.24    -0.01   0.00   0.01
  13   6    -0.00  -0.00   0.00     0.01  -0.17  -0.04     0.00  -0.02  -0.01
  14   6    -0.00  -0.00   0.00    -0.08  -0.08   0.09     0.01   0.01  -0.00
  15   6    -0.00   0.00   0.00    -0.09   0.01   0.12    -0.01   0.00   0.02
  16   6     0.00   0.00  -0.00    -0.06   0.09   0.09     0.00  -0.01  -0.01
  17   6    -0.00  -0.01   0.00     0.04   0.15  -0.01     0.01   0.02  -0.01
  18  17    -0.00  -0.00  -0.00    -0.00   0.00   0.00    -0.00  -0.00  -0.00
  19   1     0.00   0.00  -0.00    -0.00   0.00   0.00     0.01   0.02   0.12
  20   1     0.01  -0.02   0.01     0.00  -0.00  -0.00    -0.05   0.05   0.05
  21   1    -0.02  -0.02   0.01     0.00  -0.00   0.01     0.07   0.02   0.04
  22   1     0.01   0.02  -0.03     0.00   0.01  -0.01    -0.02  -0.20   0.30
  23   1     0.00   0.04  -0.06    -0.00   0.00   0.00    -0.03  -0.36   0.43
  24   1    -0.09  -0.06   0.01     0.02   0.02  -0.00    -0.18  -0.30   0.04
  25   1     0.12   0.08   0.02     0.01   0.01  -0.00    -0.15  -0.20   0.07
  26   1    -0.29  -0.19  -0.21     0.01   0.01   0.01     0.02   0.01   0.03
  27   1    -0.37   0.02   0.11     0.01   0.00   0.00     0.07   0.01  -0.00
  28   1     0.37  -0.01  -0.10    -0.02  -0.00   0.00     0.07  -0.01  -0.02
  29   1     0.36   0.23   0.30     0.00  -0.00  -0.00     0.07   0.02   0.03
  30   1    -0.00   0.02   0.01    -0.10   0.40   0.20    -0.00   0.00   0.00
  31   1     0.00   0.01  -0.00     0.15   0.32  -0.12     0.00   0.01  -0.00
  32   1     0.00   0.00   0.00     0.16  -0.01  -0.20     0.00  -0.00  -0.01
  33   1     0.00   0.00  -0.00     0.06  -0.32  -0.14     0.00  -0.01  -0.01
  34   1    -0.00  -0.01   0.01    -0.21  -0.40   0.19    -0.00  -0.00   0.00
                     64                     65                     66
                        a                      a                      a 
 Frequencies --  1331.5692              1335.9382              1344.9323
 Red. masses --     8.9586                 9.5335                 9.3555
 Frc consts  --     0.0000                 0.0000                 0.0000
 IR Inten    --    10.9471                 6.3704                 4.0962
 Raman Activ --     0.0000                 0.0000                 0.0000
 Depolar     --     0.0000                 0.0000                 0.0000
 Atom AN      X      Y      Z        X      Y      Z        X      Y      Z
   1   7    -0.02  -0.07  -0.03     0.01   0.06   0.02    -0.01  -0.04  -0.01
   2   6     0.08   0.16  -0.14    -0.08  -0.12   0.11     0.08   0.09  -0.11
   3   6    -0.18  -0.14   0.09     0.19   0.16  -0.07    -0.18  -0.17   0.03
   4   6     0.10  -0.09  -0.23    -0.08  -0.00   0.08    -0.04   0.21   0.27
   5   6     0.11   0.10   0.13    -0.05  -0.04  -0.06    -0.17  -0.12  -0.14
   6   6    -0.18   0.02   0.06     0.05   0.01  -0.00     0.32  -0.03  -0.11
   7   6    -0.16   0.01   0.06     0.04  -0.01  -0.03     0.30   0.00  -0.07
   8   6     0.12   0.11   0.15    -0.01  -0.03  -0.05    -0.24  -0.15  -0.18
   9   6     0.07  -0.14  -0.23    -0.00   0.05   0.09    -0.14   0.16   0.27
  10   7     0.00   0.01   0.00     0.00  -0.00  -0.02     0.02  -0.01  -0.01
  11   7    -0.01   0.00  -0.01    -0.02   0.01   0.01    -0.00   0.01   0.01
  12   6     0.17  -0.03  -0.20     0.23  -0.03  -0.29     0.06  -0.01  -0.08
  13   6    -0.06   0.19   0.11    -0.08   0.28   0.15    -0.02   0.08   0.04
  14   6    -0.09  -0.14   0.07    -0.13  -0.23   0.11    -0.04  -0.07   0.03
  15   6     0.15  -0.01  -0.19     0.21  -0.02  -0.26     0.06  -0.01  -0.07
  16   6    -0.03   0.16   0.08    -0.05   0.25   0.13    -0.02   0.07   0.04
  17   6    -0.11  -0.19   0.10    -0.15  -0.27   0.14    -0.04  -0.07   0.03
  18  17    -0.00  -0.00  -0.00     0.00   0.00  -0.00    -0.00  -0.00   0.00
  19   1     0.01  -0.00   0.04    -0.01   0.00  -0.03     0.01  -0.01   0.01
  20   1    -0.03   0.05   0.00     0.02  -0.04   0.00    -0.01   0.03  -0.00
  21   1     0.05   0.04  -0.00    -0.04  -0.03   0.01     0.03   0.03  -0.00
  22   1    -0.04  -0.21   0.25     0.04   0.18  -0.21    -0.03  -0.16   0.18
  23   1    -0.00  -0.08   0.17     0.00   0.04  -0.11     0.00  -0.03   0.08
  24   1     0.18   0.16  -0.01    -0.13  -0.14   0.01     0.02   0.08   0.00
  25   1     0.11   0.18  -0.08    -0.16  -0.22   0.07     0.26   0.29  -0.05
  26   1     0.01   0.02   0.01     0.02   0.01   0.01    -0.06  -0.04  -0.05
  27   1    -0.06  -0.00   0.02     0.05   0.00  -0.01    -0.03   0.01  -0.01
  28   1    -0.06   0.01   0.02     0.01  -0.01  -0.00     0.05   0.00  -0.01
  29   1     0.00   0.01   0.02     0.00  -0.01  -0.00    -0.02  -0.01  -0.01
  30   1     0.00   0.01   0.02     0.00   0.01   0.02     0.00   0.00   0.01
  31   1    -0.02  -0.03   0.02    -0.02  -0.04   0.02    -0.00  -0.01   0.00
  32   1    -0.03   0.00   0.03    -0.03   0.00   0.03    -0.00   0.00   0.00
  33   1    -0.01   0.05   0.02    -0.02   0.06   0.03    -0.00   0.01   0.00
  34   1    -0.00  -0.00   0.01    -0.01  -0.01   0.01    -0.01  -0.01   0.00
                     67                     68                     69
                        a                      a                      a 
 Frequencies --  1398.2354              1411.8396              1422.3155
 Red. masses --     2.8597                 9.7240                 1.7990
 Frc consts  --     0.0000                 0.0000                 0.0000
 IR Inten    --   206.9811                 0.9672                96.0607
 Raman Activ --     0.0000                 0.0000                 0.0000
 Depolar     --     0.0000                 0.0000                 0.0000
 Atom AN      X      Y      Z        X      Y      Z        X      Y      Z
   1   7     0.03  -0.08   0.35     0.00  -0.01  -0.05    -0.09  -0.15  -0.11
   2   6     0.00   0.02  -0.03    -0.01  -0.02   0.02    -0.03  -0.09   0.04
   3   6     0.05   0.04   0.02     0.00   0.05   0.05     0.02   0.00  -0.01
   4   6    -0.00  -0.02  -0.02     0.07  -0.15  -0.24    -0.00   0.02   0.03
   5   6    -0.04  -0.01  -0.01    -0.38  -0.06  -0.02     0.04   0.01   0.00
   6   6     0.03   0.02   0.02     0.30   0.14   0.15    -0.04  -0.02  -0.02
   7   6     0.02   0.02   0.02     0.34   0.12   0.10    -0.04  -0.01  -0.01
   8   6    -0.03  -0.01  -0.00    -0.34  -0.02   0.05     0.03  -0.00  -0.01
   9   6     0.02  -0.02  -0.03     0.09  -0.20  -0.29    -0.01   0.02   0.03
  10   7     0.00  -0.00   0.01     0.01   0.03   0.04    -0.00  -0.00  -0.00
  11   7    -0.01   0.00  -0.00    -0.02   0.01  -0.01     0.00   0.00   0.00
  12   6     0.01  -0.00  -0.01     0.04   0.01  -0.03    -0.01  -0.00   0.01
  13   6    -0.00  -0.01   0.00    -0.01  -0.07   0.00     0.00   0.02  -0.00
  14   6    -0.00   0.01   0.00     0.00   0.07   0.01     0.00  -0.02  -0.00
  15   6     0.00   0.00  -0.00     0.02   0.02  -0.02    -0.01  -0.00   0.01
  16   6    -0.00  -0.01  -0.00     0.00  -0.09  -0.03    -0.00   0.02   0.01
  17   6    -0.00   0.01   0.00    -0.02   0.03   0.03     0.01  -0.01  -0.01
  18  17     0.00   0.00   0.00     0.00  -0.00  -0.00    -0.00   0.00   0.00
  19   1    -0.17  -0.20  -0.60    -0.02   0.02   0.04     0.12  -0.10  -0.18
  20   1     0.06   0.28  -0.38    -0.04   0.05   0.08    -0.25   0.40   0.39
  21   1    -0.03   0.24  -0.34     0.06  -0.00   0.08     0.52   0.39   0.22
  22   1    -0.05  -0.06   0.01     0.01   0.03  -0.03     0.03   0.06  -0.06
  23   1     0.01  -0.09   0.03    -0.00   0.02  -0.02    -0.01   0.06  -0.07
  24   1    -0.04  -0.02   0.01     0.08   0.02  -0.00    -0.04   0.02   0.00
  25   1    -0.04  -0.02  -0.02    -0.10  -0.07  -0.01    -0.00   0.01  -0.03
  26   1     0.00   0.01   0.01     0.08   0.11   0.15    -0.01  -0.02  -0.01
  27   1    -0.01   0.00   0.01    -0.14   0.05   0.11     0.01  -0.01  -0.01
  28   1    -0.00   0.01   0.01    -0.18   0.04   0.11     0.03  -0.00  -0.01
  29   1     0.02   0.02   0.02     0.05   0.10   0.14    -0.00  -0.01  -0.01
  30   1    -0.00   0.01   0.01    -0.01   0.03   0.03     0.00  -0.01  -0.01
  31   1    -0.00   0.00   0.00    -0.02  -0.01   0.02     0.00   0.00  -0.00
  32   1    -0.00   0.00   0.00    -0.04   0.01   0.05     0.01  -0.00  -0.01
  33   1    -0.00   0.00   0.00    -0.01   0.05   0.03     0.00  -0.01  -0.01
  34   1    -0.00   0.00   0.00    -0.00   0.01   0.01     0.00  -0.00  -0.00
                     70                     71                     72
                        a                      a                      a 
 Frequencies --  1429.1049              1433.7158              1451.0033
 Red. masses --     1.6624                 9.1897                 9.2558
 Frc consts  --     0.0000                 0.0000                 0.0000
 IR Inten    --    70.6460                 1.5611                 9.1686
 Raman Activ --     0.0000                 0.0000                 0.0000
 Depolar     --     0.0000                 0.0000                 0.0000
[...]
  34   1    -0.02  -0.04  -0.00     0.01   0.02  -0.00    -0.02  -0.08   0.01
                     79                     80                     81
                        a                      a                      a 
 Frequencies --  1601.3208              1609.5585              2948.3239
 Red. masses --    11.5366                11.7059                 1.9423
 Frc consts  --     0.0000                 0.0000                 0.0000
 IR Inten    --    11.8462                10.7099                10.0615
 Raman Activ --     0.0000                 0.0000                 0.0000
 Depolar     --     0.0000                 0.0000                 0.0000
 Atom AN      X      Y      Z        X      Y      Z        X      Y      Z
   1   7     0.00   0.00  -0.00    -0.00  -0.00   0.00    -0.00  -0.00  -0.00
   2   6    -0.00  -0.01   0.00     0.00   0.01  -0.00     0.05  -0.03  -0.01
   3   6    -0.03  -0.00  -0.01     0.04   0.01   0.01    -0.06   0.09   0.26
   4   6     0.15   0.03   0.01    -0.26  -0.07  -0.04    -0.00   0.00   0.01
   5   6    -0.18  -0.09  -0.09     0.34   0.16   0.17     0.00  -0.00  -0.00
   6   6     0.19   0.02  -0.01    -0.37  -0.05   0.01    -0.00   0.00   0.00
   7   6    -0.24  -0.02   0.03     0.42   0.04  -0.04    -0.00  -0.00  -0.00
   8   6     0.17   0.06   0.06    -0.32  -0.13  -0.13     0.00   0.00   0.00
   9   6    -0.08  -0.00   0.00     0.14   0.03   0.02     0.00  -0.00  -0.00
  10   7     0.03  -0.05  -0.00     0.14  -0.10   0.01    -0.00   0.00   0.00
  11   7    -0.02   0.05   0.00    -0.12   0.12  -0.00     0.00  -0.00  -0.00
  12   6    -0.01   0.16   0.03     0.01   0.08   0.01     0.00  -0.00  -0.00
  13   6     0.01  -0.39  -0.10     0.01  -0.20  -0.05     0.00   0.00  -0.00
  14   6     0.12   0.39  -0.07     0.06   0.20  -0.04     0.00  -0.00  -0.00
  15   6    -0.00  -0.20  -0.04    -0.01  -0.09  -0.01    -0.00  -0.00  -0.00
  16   6    -0.03   0.42   0.14    -0.01   0.20   0.06     0.00   0.00  -0.00
  17   6    -0.09  -0.36   0.04    -0.06  -0.19   0.03     0.00  -0.00  -0.00
  18  17     0.00   0.00  -0.00     0.00  -0.00   0.00     0.00  -0.00  -0.00
  19   1    -0.00   0.00  -0.00    -0.00  -0.00   0.00    -0.00  -0.00   0.00
  20   1    -0.00   0.00   0.00     0.00   0.00  -0.00     0.00   0.00   0.00
  21   1     0.00  -0.00   0.00    -0.00   0.00  -0.00     0.00  -0.00  -0.00
  22   1     0.00   0.00   0.00    -0.01  -0.00  -0.00    -0.13   0.13   0.09
  23   1    -0.00   0.01  -0.00     0.00  -0.01   0.00    -0.05  -0.02  -0.02
  24   1    -0.00  -0.01  -0.00     0.00   0.01   0.00    -0.15   0.05  -0.72
  25   1    -0.00  -0.00   0.00     0.00   0.00  -0.01     0.36  -0.38  -0.23
  26   1     0.03   0.03   0.04    -0.05  -0.05  -0.07    -0.00   0.00   0.00
  27   1    -0.03   0.01   0.02     0.06  -0.02  -0.04    -0.00  -0.00  -0.00
  28   1     0.05  -0.01  -0.02    -0.09   0.01   0.04     0.00   0.00   0.00
  29   1    -0.01  -0.02  -0.03     0.03   0.04   0.06     0.00  -0.00  -0.00
  30   1    -0.03   0.05   0.05    -0.02   0.03   0.03    -0.00  -0.00   0.00
  31   1    -0.05  -0.06   0.05    -0.02  -0.03   0.03    -0.00   0.00   0.00
  32   1    -0.01  -0.05   0.00    -0.00  -0.02  -0.00     0.00   0.00  -0.00
  33   1     0.03  -0.08  -0.06     0.02  -0.03  -0.03    -0.00  -0.00   0.00
  34   1     0.04   0.04  -0.05     0.02   0.02  -0.02    -0.00  -0.00   0.00
                     82                     83                     84
                        a                      a                      a 
 Frequencies --  2957.0086              2974.3295              2982.5047
 Red. masses --     1.9362                 1.5502                 1.5500
 Frc consts  --     0.0000                 0.0000                 0.0000
 IR Inten    --     3.6210                34.1334                20.8433
 Raman Activ --     0.0000                 0.0000                 0.0000
 Depolar     --     0.0000                 0.0000                 0.0000
 Atom AN      X      Y      Z        X      Y      Z        X      Y      Z
   1   7    -0.00   0.00   0.00    -0.00   0.00  -0.00     0.00  -0.01   0.00
   2   6     0.28  -0.04  -0.01     0.07   0.01   0.02     0.01   0.17   0.13
   3   6    -0.02   0.01  -0.06     0.15  -0.14   0.06    -0.03   0.04   0.03
   4   6    -0.00  -0.00  -0.00     0.01  -0.00   0.00    -0.00   0.00   0.00
   5   6     0.00  -0.00  -0.00    -0.00  -0.00   0.00     0.00  -0.00  -0.00
   6   6     0.00  -0.00  -0.00     0.00   0.00   0.00    -0.00  -0.00   0.00
   7   6     0.00   0.00   0.00    -0.00  -0.00  -0.00    -0.00  -0.00  -0.00
   8   6    -0.00  -0.00  -0.00     0.00  -0.00  -0.00    -0.00   0.00   0.00
   9   6    -0.00   0.00   0.00    -0.00  -0.00  -0.00     0.00  -0.00  -0.00
  10   7    -0.00   0.00  -0.00    -0.00   0.00   0.00     0.00   0.00   0.00
  11   7     0.00   0.00   0.00     0.00  -0.00   0.00     0.00  -0.00  -0.00
  12   6    -0.00  -0.00   0.00    -0.00  -0.00  -0.00     0.00  -0.00  -0.00
  13   6    -0.00  -0.00   0.00    -0.00  -0.00   0.00     0.00   0.00  -0.00
  14   6    -0.00   0.00   0.00    -0.00   0.00   0.00     0.00  -0.00  -0.00
  15   6     0.00   0.00   0.00     0.00   0.00  -0.00     0.00   0.00  -0.00
  16   6     0.00   0.00   0.00     0.00  -0.00  -0.00     0.00   0.00  -0.00
  17   6     0.00   0.00   0.00     0.00  -0.00  -0.00    -0.00   0.00   0.00
  18  17     0.00  -0.00   0.00    -0.00  -0.00   0.00     0.00   0.00  -0.00
  19   1    -0.00   0.00   0.00    -0.00  -0.01   0.00     0.00   0.00   0.00
  20   1     0.02   0.00   0.01     0.01   0.00   0.00     0.02   0.00   0.01
  21   1     0.01  -0.01  -0.01    -0.00  -0.00   0.00    -0.02   0.02   0.01
  22   1    -0.33   0.36   0.24    -0.00   0.01   0.01     0.50  -0.49  -0.32
  23   1    -0.68  -0.21  -0.20    -0.24  -0.07  -0.07    -0.53  -0.13  -0.14
  24   1     0.05  -0.01   0.26    -0.08   0.01  -0.56    -0.01   0.01  -0.01
  25   1     0.04  -0.05  -0.04    -0.45   0.48   0.35     0.12  -0.12  -0.09
  26   1    -0.00   0.00   0.00     0.00  -0.00  -0.00    -0.00   0.00   0.00
  27   1     0.00   0.00   0.00    -0.00  -0.00  -0.00    -0.00  -0.00  -0.00
  28   1    -0.00  -0.00  -0.00     0.00   0.00   0.00     0.00   0.00   0.00
  29   1    -0.00   0.00   0.00    -0.00   0.00   0.00     0.00  -0.00  -0.00
  30   1     0.00   0.00   0.00    -0.00   0.00   0.00    -0.00   0.00   0.00
  31   1     0.00  -0.00  -0.00     0.00   0.00  -0.00    -0.00   0.00  -0.00
  32   1     0.00  -0.00   0.00    -0.00   0.00  -0.00    -0.00  -0.00  -0.00
  33   1     0.00   0.00   0.00    -0.00   0.00  -0.00    -0.00  -0.00   0.00
  34   1    -0.00  -0.00  -0.00    -0.00  -0.00   0.00     0.00  -0.00  -0.00
                     85                     86                     87
                        a                      a                      a 
 Frequencies --  3095.9758              3100.6075              3111.2637
 Red. masses --     1.7534                 1.8143                 1.8209
 Frc consts  --     0.0000                 0.0000                 0.0000
 IR Inten    --     1.3900                48.1370                16.7566
 Raman Activ --     0.0000                 0.0000                 0.0000
 Depolar     --     0.0000                 0.0000                 0.0000
 Atom AN      X      Y      Z        X      Y      Z        X      Y      Z
   1   7     0.00  -0.00  -0.00    -0.00   0.00  -0.00    -0.00   0.01   0.00
   2   6    -0.00   0.00   0.00    -0.00   0.00  -0.00    -0.00  -0.00  -0.00
   3   6    -0.00  -0.00  -0.00    -0.00   0.00   0.00     0.00  -0.00  -0.00
   4   6    -0.00  -0.00  -0.00     0.00   0.00   0.00     0.00  -0.00  -0.00
   5   6    -0.00   0.00   0.00     0.00  -0.00  -0.00     0.13  -0.05  -0.11
   6   6     0.00   0.00   0.00    -0.00  -0.00  -0.00     0.01   0.03   0.04
   7   6    -0.00  -0.00  -0.00     0.00   0.00   0.00    -0.03  -0.08  -0.11
   8   6    -0.00   0.00   0.00     0.00  -0.00  -0.00    -0.03   0.01   0.03
   9   6    -0.00  -0.00   0.00    -0.00   0.00   0.00    -0.00   0.00   0.00
  10   7     0.00  -0.00  -0.00    -0.00   0.00  -0.00     0.00  -0.00  -0.00
  11   7     0.00   0.00   0.00    -0.00  -0.00   0.00     0.00   0.00   0.00
  12   6     0.00   0.00  -0.00     0.00  -0.00  -0.00     0.00   0.00   0.00
  13   6     0.01   0.01  -0.01     0.02   0.02  -0.02     0.01   0.01  -0.02
  14   6    -0.07   0.08   0.10    -0.08   0.10   0.13    -0.03   0.03   0.04
  15   6    -0.02  -0.17  -0.01     0.00   0.01   0.00     0.01   0.10   0.00
  16   6     0.08   0.06  -0.08    -0.12  -0.09   0.13     0.04   0.03  -0.04
  17   6    -0.01   0.01   0.01     0.02  -0.02  -0.03    -0.01   0.01   0.02
  18  17    -0.00  -0.00  -0.00     0.00  -0.00   0.00    -0.00  -0.00   0.00
  19   1    -0.00  -0.00   0.00    -0.00  -0.00   0.00    -0.00  -0.02   0.01
  20   1     0.00  -0.00   0.00    -0.00   0.00  -0.00    -0.00  -0.00   0.00
  21   1    -0.00   0.00   0.00     0.00  -0.00  -0.00     0.02  -0.01  -0.01
  22   1     0.00  -0.00  -0.00     0.00  -0.00  -0.00     0.00   0.00  -0.00
  23   1     0.00   0.00  -0.00     0.00   0.00   0.00     0.00   0.00   0.00
  24   1     0.00   0.00   0.00    -0.00  -0.00  -0.00     0.00  -0.00   0.00
  25   1    -0.00   0.00   0.00     0.00  -0.00  -0.00    -0.00   0.00   0.00
  26   1     0.00  -0.00  -0.00    -0.00   0.00   0.00    -0.45   0.19   0.39
  27   1    -0.00  -0.00  -0.00     0.00   0.00   0.00    -0.05  -0.12  -0.17
  28   1     0.00   0.00   0.00    -0.00  -0.00  -0.00     0.12   0.29   0.41
  29   1     0.00  -0.00  -0.00    -0.00   0.00   0.00     0.13  -0.05  -0.11
  30   1    -0.05  -0.04   0.05    -0.09  -0.07   0.10    -0.06  -0.04   0.06
  31   1     0.25  -0.29  -0.37     0.30  -0.35  -0.45     0.09  -0.10  -0.13
  32   1     0.09   0.64   0.03    -0.01  -0.04  -0.00    -0.05  -0.32  -0.01
  33   1    -0.28  -0.21   0.31     0.41   0.31  -0.45    -0.12  -0.09   0.13
  34   1     0.03  -0.04  -0.05    -0.07   0.09   0.11     0.05  -0.06  -0.08
                     88                     89                     90
                        a                      a                      a 
 Frequencies --  3111.4435              3113.3670              3125.8576
 Red. masses --     1.8618                 1.8002                 1.8501
 Frc consts  --     0.0000                 0.0000                 0.0000
 IR Inten    --   134.3194                35.0824               187.7050
 Raman Activ --     0.0000                 0.0000                 0.0000
 Depolar     --     0.0000                 0.0000                 0.0000
 Atom AN      X      Y      Z        X      Y      Z        X      Y      Z
   1   7     0.00  -0.01  -0.00    -0.00   0.01   0.00     0.00   0.00   0.00
   2   6     0.00   0.00   0.00    -0.00   0.00   0.00     0.00   0.00   0.00
   3   6    -0.00   0.00   0.00     0.00  -0.00   0.00     0.00  -0.00  -0.00
   4   6    -0.00   0.00   0.00     0.01   0.00   0.00    -0.00   0.00   0.00
   5   6    -0.07   0.03   0.06     0.11  -0.05  -0.10     0.01  -0.00  -0.01
   6   6    -0.01  -0.02  -0.02     0.01   0.03   0.04    -0.01  -0.03  -0.04
   7   6     0.02   0.04   0.05     0.04   0.11   0.16    -0.01  -0.02  -0.02
   8   6     0.02  -0.01  -0.01     0.05  -0.02  -0.04     0.04  -0.02  -0.03
   9   6     0.00  -0.00  -0.00     0.00   0.00  -0.00     0.00   0.00  -0.00
  10   7     0.00  -0.00   0.00     0.00   0.00   0.00     0.00   0.00   0.00
  11   7     0.00  -0.00  -0.00    -0.00   0.00  -0.00     0.00   0.00   0.00
  12   6     0.00   0.00   0.00    -0.00   0.00   0.00     0.00   0.00  -0.00
  13   6     0.03   0.02  -0.04     0.01   0.00  -0.01     0.12   0.09  -0.13
  14   6    -0.05   0.06   0.07    -0.00   0.00   0.00     0.02  -0.03  -0.04
  15   6     0.03   0.18   0.01     0.00   0.01   0.00    -0.00  -0.01   0.00
  16   6     0.07   0.05  -0.07     0.00   0.00  -0.00     0.03   0.02  -0.03
  17   6    -0.02   0.03   0.04    -0.00   0.00   0.00     0.08  -0.09  -0.11
  18  17     0.00   0.00  -0.00    -0.00  -0.00   0.00    -0.00  -0.00   0.00
  19   1     0.00   0.01  -0.00    -0.00  -0.03   0.01    -0.00  -0.00   0.00
  20   1     0.00   0.00  -0.00    -0.01  -0.00  -0.00    -0.00  -0.00  -0.00
  21   1    -0.01   0.01   0.01     0.01  -0.01  -0.01     0.00  -0.00  -0.00
  22   1    -0.00  -0.00   0.00     0.00  -0.00  -0.00     0.00  -0.00  -0.00
  23   1     0.00  -0.00   0.00     0.00   0.00  -0.00    -0.00  -0.00  -0.00
  24   1    -0.00   0.00  -0.00    -0.00   0.00  -0.00     0.00  -0.00   0.00
  25   1     0.00  -0.00  -0.00    -0.00   0.00   0.00    -0.00   0.00   0.00
  26   1     0.26  -0.11  -0.22    -0.40   0.17   0.35    -0.03   0.01   0.03
  27   1     0.03   0.06   0.09    -0.05  -0.11  -0.16     0.04   0.09   0.13
  28   1    -0.05  -0.13  -0.19    -0.16  -0.40  -0.56     0.02   0.05   0.07
  29   1    -0.06   0.03   0.05    -0.19   0.08   0.16    -0.13   0.06   0.11
  30   1    -0.12  -0.09   0.13    -0.02  -0.01   0.02    -0.42  -0.32   0.45
  31   1     0.17  -0.19  -0.25     0.01  -0.01  -0.01    -0.08   0.09   0.11
  32   1    -0.09  -0.60  -0.03    -0.00  -0.03  -0.00     0.00   0.02  -0.00
  33   1    -0.23  -0.17   0.25    -0.01  -0.01   0.01    -0.08  -0.06   0.08
  34   1     0.09  -0.11  -0.14     0.00  -0.00  -0.00    -0.27   0.31   0.40
                     91                     92                     93
                        a                      a                      a 
 Frequencies --  3129.0991              3129.5934              3132.0534
 Red. masses --     1.8624                 1.8598                 1.8593
 Frc consts  --     0.0000                 0.0000                 0.0000
 IR Inten    --    70.2023                14.5392                26.0104
 Raman Activ --     0.0000                 0.0000                 0.0000
 Depolar     --     0.0000                 0.0000                 0.0000
 Atom AN      X      Y      Z        X      Y      Z        X      Y      Z
   1   7    -0.00  -0.02   0.00     0.00  -0.00  -0.00    -0.00  -0.02   0.00
   2   6     0.00  -0.00   0.00     0.00   0.00   0.00     0.00  -0.00   0.00
   3   6     0.00   0.00   0.00    -0.00   0.00   0.00     0.00   0.00  -0.00
   4   6    -0.00  -0.00  -0.00     0.00  -0.00  -0.00    -0.00  -0.00  -0.00
   5   6    -0.05   0.02   0.04    -0.03   0.01   0.02    -0.04   0.02   0.03
   6   6     0.05   0.11   0.16     0.03   0.06   0.08     0.03   0.07   0.10
   7   6     0.01   0.02   0.02     0.01   0.02   0.03    -0.02  -0.05  -0.07
   8   6    -0.07   0.03   0.05    -0.07   0.03   0.05     0.16  -0.07  -0.14
   9   6     0.00   0.00   0.00    -0.00   0.00   0.00     0.01   0.00   0.00
  10   7     0.00  -0.00  -0.00    -0.00   0.00  -0.00     0.00  -0.00  -0.00
  11   7    -0.00   0.00   0.00     0.00  -0.00  -0.00    -0.00   0.00  -0.00
  12   6     0.00   0.01   0.00    -0.00  -0.01  -0.00    -0.00  -0.00   0.00
  13   6     0.08   0.06  -0.08    -0.07  -0.05   0.07    -0.03  -0.02   0.03
  14   6     0.02  -0.02  -0.03    -0.02   0.02   0.03    -0.01   0.01   0.01
  15   6    -0.00  -0.03  -0.00     0.01   0.04   0.00     0.00   0.01   0.00
  16   6    -0.02  -0.01   0.02     0.04   0.03  -0.04     0.00   0.00  -0.00
  17   6    -0.03   0.04   0.05     0.09  -0.11  -0.13     0.01  -0.01  -0.01
  18  17     0.00   0.00  -0.00    -0.00  -0.00  -0.00     0.00   0.00  -0.00
  19   1     0.01   0.05  -0.02     0.00  -0.00   0.00     0.01   0.07  -0.02
  20   1     0.00   0.00   0.00    -0.00  -0.00  -0.00     0.01   0.00   0.00
  21   1    -0.01   0.01   0.01    -0.01   0.01   0.00    -0.01   0.01   0.01
  22   1    -0.00   0.00   0.00    -0.00  -0.00   0.00    -0.00   0.00   0.00
  23   1    -0.00   0.00  -0.00    -0.00  -0.00  -0.00     0.00   0.00   0.00
  24   1    -0.00   0.00   0.00    -0.00   0.00  -0.00     0.00   0.00   0.00
  25   1     0.00  -0.00  -0.00     0.00  -0.00  -0.00     0.00  -0.00  -0.00
  26   1     0.16  -0.07  -0.14     0.08  -0.04  -0.07     0.11  -0.05  -0.10
  27   1    -0.16  -0.38  -0.55    -0.08  -0.20  -0.28    -0.10  -0.25  -0.36
  28   1    -0.02  -0.05  -0.07    -0.03  -0.06  -0.09     0.06   0.15   0.22
  29   1     0.23  -0.10  -0.19     0.22  -0.10  -0.19    -0.56   0.24   0.48
  30   1    -0.27  -0.20   0.29     0.23   0.17  -0.25     0.09   0.07  -0.10
  31   1    -0.06   0.07   0.09     0.06  -0.07  -0.09     0.02  -0.02  -0.03
  32   1     0.01   0.09   0.00    -0.02  -0.13  -0.01    -0.00  -0.02  -0.00
  33   1     0.06   0.04  -0.06    -0.12  -0.09   0.13    -0.01  -0.00   0.01
  34   1     0.11  -0.13  -0.17    -0.32   0.37   0.47    -0.02   0.02   0.03
                     94                     95                     96
                        a                      a                      a 
 Frequencies --  3140.2860              3195.7014              3236.1529
 Red. masses --     1.9663                 1.8354                 1.6109
 Frc consts  --     0.0000                 0.0000                 0.0000
 IR Inten    --   601.8967               132.4540                76.9586
 Raman Activ --     0.0000                 0.0000                 0.0000
 Depolar     --     0.0000                 0.0000                 0.0000
 Atom AN      X      Y      Z        X      Y      Z        X      Y      Z
   1   7    -0.03  -0.26   0.05    -0.21   0.09   0.10    -0.18  -0.06  -0.10
   2   6     0.00  -0.00   0.00    -0.01   0.01   0.01    -0.01  -0.00  -0.01
   3   6     0.00  -0.00  -0.00     0.00   0.00   0.00    -0.00  -0.00  -0.00
   4   6     0.00   0.00   0.00    -0.00   0.00   0.00     0.00   0.00   0.00
   5   6     0.01  -0.01  -0.01    -0.01   0.00   0.00     0.00  -0.00  -0.00
   6   6    -0.00  -0.01  -0.01    -0.00   0.00   0.00    -0.00  -0.00  -0.00
   7   6     0.00   0.00   0.01     0.00   0.00   0.00    -0.00   0.00   0.00
   8   6    -0.01   0.00   0.01    -0.00   0.00   0.00    -0.00   0.00   0.00
   9   6    -0.00  -0.00  -0.00     0.00  -0.00  -0.00    -0.00  -0.00  -0.00
  10   7    -0.00   0.00   0.00    -0.00   0.00   0.00    -0.00   0.00   0.00
  11   7     0.00  -0.00   0.00     0.00  -0.00   0.00     0.00  -0.00   0.00
  12   6    -0.00  -0.00  -0.00    -0.00  -0.00  -0.00    -0.00  -0.00  -0.00
  13   6    -0.00  -0.00   0.00    -0.00  -0.00   0.00     0.00   0.00  -0.00
  14   6    -0.00   0.00   0.00    -0.00   0.00   0.00     0.00  -0.00  -0.00
  15   6     0.00   0.00   0.00     0.00   0.00  -0.00     0.00   0.00  -0.00
  16   6     0.00   0.00  -0.00     0.00   0.00  -0.00     0.00   0.00  -0.00
  17   6     0.00  -0.00  -0.00     0.00  -0.00  -0.00     0.00  -0.00  -0.00
  18  17     0.00   0.00  -0.00     0.00   0.00  -0.00     0.00   0.00   0.00
  19   1     0.16   0.87  -0.29     0.01   0.17  -0.04    -0.04  -0.14   0.04
  20   1     0.09   0.00   0.03     0.17   0.06   0.07     0.87   0.24   0.26
  21   1    -0.13   0.09   0.08     0.61  -0.57  -0.41    -0.14   0.11   0.08
  22   1    -0.01   0.01   0.00     0.02  -0.02  -0.01    -0.01   0.01   0.01
  23   1     0.00   0.00   0.00    -0.00  -0.00  -0.00     0.02   0.01   0.01
  24   1    -0.00   0.00  -0.01    -0.00   0.00  -0.00     0.00  -0.00   0.00
  25   1    -0.01   0.01   0.01     0.00  -0.00   0.00    -0.00   0.00  -0.00
  26   1    -0.04   0.02   0.04     0.02  -0.01  -0.02    -0.00   0.00   0.00
  27   1     0.01   0.03   0.05    -0.00  -0.00  -0.00    -0.00  -0.00   0.00
  28   1    -0.00  -0.01  -0.02    -0.00  -0.00  -0.01    -0.00  -0.00  -0.00
  29   1     0.03  -0.01  -0.02     0.00  -0.00  -0.00     0.00  -0.00  -0.00
  30   1     0.01   0.00  -0.01     0.00   0.00  -0.00    -0.00  -0.00   0.00
  31   1     0.00  -0.00  -0.00     0.00  -0.00  -0.00    -0.00   0.00   0.00
  32   1    -0.00  -0.00  -0.00    -0.00  -0.00  -0.00    -0.00  -0.00   0.00
  33   1    -0.00  -0.00   0.00    -0.00  -0.00   0.00    -0.00  -0.00   0.00
  34   1    -0.01   0.01   0.01    -0.00   0.00   0.00    -0.00   0.00   0.00
