      -----------------------------------------------------------      
     |                   =====================                   |     
     |                           x T B                           |     
     |                   =====================                   |     
     |                         S. Grimme                         |     
     |          Mulliken Center for Theoretical Chemistry        |     
     |                    University of Bonn                     |     
      -----------------------------------------------------------      

   * xtb version 6.5.1 (fef0646) compiled by 'conda@b96dff2e9fd6' on 2023-01-04

   xtb is free software: you can redistribute it and/or modify it under
   the terms of the GNU Lesser General Public License as published by
   the Free Software Foundation, either version 3 of the License, or
   (at your option) any later version.
   
   xtb is distributed in the hope that it will be useful,
   but WITHOUT ANY WARRANTY; without even the implied warranty of
   MERCHANTABILITY or FITNESS FOR A PARTICULAR PURPOSE.  See the
   GNU Lesser General Public License for more details.
   
   Cite this work as:
   * C. Bannwarth, E. Caldeweyher, S. Ehlert, A. Hansen, P. Pracht,
     J. Seibert, S. Spicher, S. Grimme, WIREs Comput. Mol. Sci., 2020, 11,
     e01493. DOI: 10.1002/wcms.1493
   
   for GFN2-xTB:
   * C. Bannwarth, S. Ehlert and S. Grimme., J. Chem. Theory Comput., 2019,
     15, 1652-1671. DOI: 10.1021/acs.jctc.8b01176
   for GFN1-xTB:
   * S. Grimme, C. Bannwarth, P. Shushkov, J. Chem. Theory Comput., 2017,
     13, 1989-2009. DOI: 10.1021/acs.jctc.7b00118
   for GFN0-xTB:
   * P. Pracht, E. Caldeweyher, S. Ehlert, S. Grimme, ChemRxiv, 2019, preprint.
     DOI: 10.26434/chemrxiv.8326202.v1
   for GFN-FF:
   * S. Spicher and S. Grimme, Angew. Chem. Int. Ed., 2020, 59, 15665-15673.
     DOI: 10.1002/anie.202004239
   
   for ALPB and GBSA implicit solvation:
   * S. Ehlert, M. Stahn, S. Spicher, S. Grimme, J. Chem. Theory Comput.,
     2021, 17, 4250-4261. DOI: 10.1021/acs.jctc.1c00471
   
   for DFT-D4:
   * E. Caldeweyher, C. Bannwarth and S. Grimme, J. Chem. Phys., 2017,
     147, 034112. DOI: 10.1063/1.4993215
   * E. Caldeweyher, S. Ehlert, A. Hansen, H. Neugebauer, S. Spicher,
     C. Bannwarth and S. Grimme, J. Chem. Phys., 2019, 150, 154122.
     DOI: 10.1063/1.5090222
   * E. Caldeweyher, J.-M. Mewes, S. Ehlert and S. Grimme, Phys. Chem. Chem. Phys.
     2020, 22, 8499-8512. DOI: 10.1039/D0CP00502A
   
   for sTDA-xTB:
   * S. Grimme and C. Bannwarth, J. Chem. Phys., 2016, 145, 054103.
     DOI: 10.1063/1.4959605
   
   in the mass-spec context:
   * V. Asgeirsson, C. Bauer and S. Grimme, Chem. Sci., 2017, 8, 4879.
     DOI: 10.1039/c7sc00601b
   * J. Koopman and S. Grimme, ACS Omega 2019, 4, 12, 15120-15133.
     DOI: 10.1021/acsomega.9b02011
   
   for metadynamics refer to:
   * S. Grimme, J. Chem. Theory Comput., 2019, 155, 2847-2862
     DOI: 10.1021/acs.jctc.9b00143
   
   for SPH calculations refer to:
   * S. Spicher and S. Grimme, J. Chem. Theory Comput., 2021, 17, 1701-1714
     DOI: 10.1021/acs.jctc.0c01306
   
   with help from (in alphabetical order)
   P. Atkinson, C. Bannwarth, F. Bohle, G. Brandenburg, E. Caldeweyher
   M. Checinski, S. Dohm, S. Ehlert, S. Ehrlich, I. Gerasimov, C. Hölzer
   A. Katbashev, J. Koopman, C. Lavigne, S. Lehtola, F. März, M. Müller,
   F. Musil, H. Neugebauer, J. Pisarek, C. Plett, P. Pracht, F. Pultar,
   J. Seibert, P. Shushkov, S. Spicher, M. Stahn, M. Steiner, T. Strunk,
   J. Stückrath, T. Rose, and J. Unsleber
   
 * started run on 2023/01/24 at 14:56:05.096     

           -------------------------------------------------
          |                Calculation Setup                |
           -------------------------------------------------

          program call               : xtb init.xyz --opt -c 0 -u 0 -P 16 --alpb water
          hostname                   : gpg-woodward
          coordinate file            : init.xyz
          omp threads                :                    16

   ID    Z sym.   atoms
    1    7 N      1
    2    6 C      2-4
    3   17 Cl     5
    4    1 H      6-15

molecular fragmentation (1/2 indicates fragments):
111121111111111
# atoms in fragment 1/2:    14     1
 fragment masses (1/2) :       60.12       35.45
CMA distance (Bohr)    :   7.122
constraining FC (au)   :  0.0500

           -------------------------------------------------
          |                 G F N 2 - x T B                 |
           -------------------------------------------------

        Reference                      10.1021/acs.jctc.8b01176
      * Hamiltonian:
        H0-scaling (s, p, d)           1.850000    2.230000    2.230000
        zeta-weighting                 0.500000
      * Dispersion:
        s8                             2.700000
        a1                             0.520000
        a2                             5.000000
        s9                             5.000000
      * Repulsion:
        kExp                           1.500000    1.000000
        rExp                           1.000000
      * Coulomb:
        alpha                          2.000000
        third order                    shell-resolved
        anisotropic                    true
        a3                             3.000000
        a5                             4.000000
        cn-shift                       1.200000
        cn-exp                         4.000000
        max-rad                        5.000000

      * Solvation model:               ALPB
        Solvent                        water
        Parameter file                 internal GFN2-xTB/ALPB
        Dielectric constant                8.0200E+01
        Reference state                gsolv [1 M gas/solution]
        Free energy shift                  1.0808E-03 Eh       6.7819E-01 kcal/mol
        Temperature                        2.9815E+02 K
        Density                            1.0000E+00 kg/L
        Solvent mass                       1.8000E+01 g/mol
        Interaction kernel             P16
        Born radius scaling (c1)           1.4744E+00
        Born radii integrator          GBOBC
        Born offset                        0.0000E+00 a0       0.0000E+00 AA
        H-bond correction              true
        Ion screening                  false
        Surface tension                    1.0000E-05 Eh       1.5569E+01 dyn/cm
        Grid points                               230 per atom

          ...................................................
          :                      SETUP                      :
          :.................................................:
          :  # basis functions                  36          :
          :  # atomic orbitals                  35          :
          :  # shells                           21          :
          :  # electrons                        34          :
          :  max. iterations                   250          :
          :  Hamiltonian                  GFN2-xTB          :
          :  restarted?                      false          :
          :  GBSA solvation                   true          :
          :  PC potential                    false          :
          :  electronic temp.          300.0000000     K    :
          :  accuracy                    1.0000000          :
          :  -> integral cutoff          0.2500000E+02      :
          :  -> integral neglect         0.1000000E-07      :
          :  -> SCF convergence          0.1000000E-05 Eh   :
          :  -> wf. convergence          0.1000000E-03 e    :
          :  Broyden damping             0.4000000          :
          ...................................................

 iter      E             dE          RMSdq      gap      omega  full diag
   1    -19.1368490 -0.191368E+02  0.381E+00   10.76       0.0  T
   2    -19.2174522 -0.806032E-01  0.206E+00   10.42       1.0  T
   3    -19.2214947 -0.404256E-02  0.122E+00   10.09       1.0  T
   4    -19.2231127 -0.161796E-02  0.379E-01   10.18       1.0  T
   5    -19.2237709 -0.658233E-03  0.197E-01   10.26       1.0  T
   6    -19.2239889 -0.217961E-03  0.827E-02   10.30       1.0  T
   7    -19.2240068 -0.179050E-04  0.204E-02   10.29       1.3  T
   8    -19.2240077 -0.942584E-06  0.442E-03   10.29       5.8  T
   9    -19.2240078 -0.134429E-07  0.188E-03   10.29      13.7  T
  10    -19.2240078 -0.574984E-08  0.471E-04   10.29      54.9  T
  11    -19.2240078 -0.376829E-09  0.304E-04   10.29      85.1  T

   *** convergence criteria satisfied after 11 iterations ***

         #    Occupation            Energy/Eh            Energy/eV
      -------------------------------------------------------------
         1        2.0000           -1.0113276             -27.5196
       ...           ...                  ...                  ...
        11        2.0000           -0.4574613             -12.4482
        12        2.0000           -0.4549785             -12.3806
        13        2.0000           -0.4366531             -11.8819
        14        2.0000           -0.4231070             -11.5133
        15        2.0000           -0.4028187             -10.9613
        16        2.0000           -0.4026797             -10.9575
        17        2.0000           -0.4005513             -10.8996 (HOMO)
        18                         -0.0225610              -0.6139 (LUMO)
        19                          0.0742085               2.0193
        20                          0.1007391               2.7413
        21                          0.1084561               2.9512
        22                          0.1086027               2.9552
       ...                                ...                  ...
        35                          0.3056052               8.3159
      -------------------------------------------------------------
                  HL-Gap            0.3779903 Eh           10.2856 eV
             Fermi-level           -0.2115561 Eh           -5.7567 eV

 SCC (total)                   0 d,  0 h,  0 min,  0.015 sec
 SCC setup                      ...        0 min,  0.000 sec (  2.182%)
 Dispersion                     ...        0 min,  0.000 sec (  1.854%)
 classical contributions        ...        0 min,  0.000 sec (  0.549%)
 integral evaluation            ...        0 min,  0.001 sec (  5.759%)
 iterations                     ...        0 min,  0.011 sec ( 75.557%)
 molecular gradient             ...        0 min,  0.002 sec ( 11.591%)
 printout                       ...        0 min,  0.000 sec (  0.879%)

         :::::::::::::::::::::::::::::::::::::::::::::::::::::
         ::                     SUMMARY                     ::
         :::::::::::::::::::::::::::::::::::::::::::::::::::::
         :: total energy             -19.024896785704 Eh    ::
         :: total w/o Gsasa/hb       -19.018480818014 Eh    ::
         :: gradient norm              0.031770544945 Eh/a0 ::
         :: HOMO-LUMO gap             10.285638942498 eV    ::
         ::.................................................::
         :: SCC energy               -19.224007762095 Eh    ::
         :: -> isotropic ES            0.103870348684 Eh    ::
         :: -> anisotropic ES         -0.026636209548 Eh    ::
         :: -> anisotropic XC          0.000641042642 Eh    ::
         :: -> dispersion             -0.007042065229 Eh    ::
         :: -> Gsolv                  -0.060650949572 Eh    ::
         ::    -> Gelec               -0.054234981883 Eh    ::
         ::    -> Gsasa               -0.000767042938 Eh    ::
         ::    -> Ghb                 -0.006729684449 Eh    ::
         ::    -> Gshift               0.001080759698 Eh    ::
         :: repulsion energy           0.199095251381 Eh    ::
         :: add. restraining           0.000000000000 Eh    ::
         :: total charge              -0.000000000000 e     ::
         :::::::::::::::::::::::::::::::::::::::::::::::::::::

      ----------------------------------------------------------- 
     |                   =====================                   |
     |                        A N C O P T                        |
     |                   =====================                   |
     |               Approximate Normal Coordinate               |
     |                Rational Function Optimizer                |
      ----------------------------------------------------------- 

          ...................................................
          :                      SETUP                      :
          :.................................................:
          :   optimization level            normal          :
          :   max. optcycles                   200          :
          :   ANC micro-cycles                  20          :
          :   degrees of freedom                39          :
          :.................................................:
          :   RF solver                   davidson          :
          :   write xtbopt.log                true          :
          :   linear?                        false          :
          :   energy convergence         0.5000000E-05 Eh   :
          :   grad. convergence          0.1000000E-02 Eh/α :
          :   maximium RF displ.         1.0000000          :
          :   Hlow (freq-cutoff)         0.1000000E-01      :
          :   Hmax (freq-cutoff)         5.0000000          :
          :   S6 in model hess.         20.0000000          :
          ...................................................

generating ANC from model Hessian ...
Using Lindh-Hessian (1995)
 Shifting diagonal of input Hessian by    9.5624778543334423E-003
 Lowest  eigenvalues of input Hessian
    0.000000    0.000000    0.000000    0.000000    0.000000    0.000000
    0.010000    0.011439    0.014304    0.018189    0.019158    0.027566
    0.028701    0.051098    0.051394    0.060144    0.062297    0.068084
 Highest eigenvalues
    1.169550    1.214742    1.253167    1.277399    1.460285    1.549017


........................................................................
.............................. CYCLE    1 ..............................
........................................................................
   1    -19.2240078 -0.192240E+02  0.143E-04   10.29       0.0  T
   2    -19.2240078 -0.291500E-10  0.113E-04   10.29     229.2  T
   3    -19.2240078 -0.505480E-10  0.448E-05   10.29     575.8  T
     SCC iter.                  ...        0 min,  0.003 sec
     gradient                   ...        0 min,  0.002 sec
 * total energy  :   -19.0248968 Eh     change       -0.4441283E-09 Eh
   gradient norm :     0.0317688 Eh/α   predicted     0.0000000E+00 (-100.00%)
   displ. norm   :     0.3077272 α      lambda       -0.5994616E-02
   maximum displ.:     0.2395313 α      in ANC's #9, #10, #2, ...

........................................................................
.............................. CYCLE    2 ..............................
........................................................................
   1    -19.2297926 -0.192298E+02  0.264E-01   10.21       0.0  T
   2    -19.2298863 -0.937293E-04  0.142E-01   10.19       1.0  T
   3    -19.2298913 -0.497198E-05  0.419E-02   10.18       1.0  T
   4    -19.2298921 -0.748247E-06  0.817E-03   10.18       3.2  T
   5    -19.2298922 -0.100347E-06  0.505E-03   10.18       5.1  T
   6    -19.2298922 -0.653907E-07  0.281E-03   10.18       9.2  T
   7    -19.2298923 -0.284892E-07  0.163E-03   10.18      15.8  T
   8    -19.2298923 -0.116195E-07  0.316E-04   10.18      81.7  T
   9    -19.2298923 -0.243968E-09  0.161E-04   10.18     160.4  T
     SCC iter.                  ...        0 min,  0.008 sec
     gradient                   ...        0 min,  0.001 sec
 * total energy  :   -19.0284903 Eh     change       -0.3593484E-02 Eh
   gradient norm :     0.0217186 Eh/α   predicted    -0.3281143E-02 (  -8.69%)
   displ. norm   :     0.1540132 α      lambda       -0.1175898E-02
   maximum displ.:     0.0902764 α      in ANC's #2, #9, #6, ...

........................................................................
.............................. CYCLE    3 ..............................
........................................................................
   1    -19.2319914 -0.192320E+02  0.940E-02   10.16       0.0  T
   2    -19.2320038 -0.123594E-04  0.514E-02   10.16       1.0  T
   3    -19.2320051 -0.125840E-05  0.164E-02   10.15       1.6  T
   4    -19.2320053 -0.266545E-06  0.658E-03   10.16       3.9  T
   5    -19.2320054 -0.877843E-07  0.442E-03   10.16       5.8  T
   6    -19.2320055 -0.738575E-07  0.218E-03   10.16      11.9  T
   7    -19.2320055 -0.199023E-07  0.970E-04   10.15      26.6  T
   8    -19.2320055 -0.331523E-08  0.191E-04   10.15     135.4  T
     SCC iter.                  ...        0 min,  0.007 sec
     gradient                   ...        0 min,  0.001 sec
 * total energy  :   -19.0292918 Eh     change       -0.8015308E-03 Eh
   gradient norm :     0.0101457 Eh/α   predicted    -0.6018951E-03 ( -24.91%)
   displ. norm   :     0.1424445 α      lambda       -0.3959865E-03
   maximum displ.:     0.1162073 α      in ANC's #2, #9, #4, ...

........................................................................
.............................. CYCLE    4 ..............................
........................................................................
   1    -19.2330823 -0.192331E+02  0.579E-02   10.17       0.0  T
   2    -19.2330858 -0.347933E-05  0.345E-02   10.16       1.0  T
   3    -19.2330867 -0.894565E-06  0.114E-02   10.16       2.3  T
   4    -19.2330870 -0.257381E-06  0.695E-03   10.16       3.7  T
   5    -19.2330871 -0.142452E-06  0.427E-03   10.16       6.1  T
   6    -19.2330872 -0.863301E-07  0.139E-03   10.16      18.6  T
   7    -19.2330872 -0.592925E-08  0.501E-04   10.16      51.5  T
   8    -19.2330872 -0.516483E-09  0.114E-04   10.16     225.5  T
     SCC iter.                  ...        0 min,  0.007 sec
     gradient                   ...        0 min,  0.001 sec
 * total energy  :   -19.0295273 Eh     change       -0.2355467E-03 Eh
   gradient norm :     0.0035546 Eh/α   predicted    -0.2020118E-03 ( -14.24%)
   displ. norm   :     0.0836509 α      lambda       -0.7429964E-04
   maximum displ.:     0.0803722 α      in ANC's #2, #4, #5, ...

........................................................................
.............................. CYCLE    5 ..............................
........................................................................
   1    -19.2335389 -0.192335E+02  0.214E-02   10.17       0.0  T
   2    -19.2335391 -0.240418E-06  0.140E-02   10.17       1.8  T
   3    -19.2335394 -0.283069E-06  0.495E-03   10.17       5.2  T
   4    -19.2335395 -0.763104E-07  0.306E-03   10.17       8.4  T
   5    -19.2335395 -0.438249E-07  0.644E-04   10.17      40.1  T
   6    -19.2335395 -0.110498E-08  0.288E-04   10.17      89.7  T
     SCC iter.                  ...        0 min,  0.005 sec
     gradient                   ...        0 min,  0.001 sec
 * total energy  :   -19.0295857 Eh     change       -0.5836807E-04 Eh
   gradient norm :     0.0023433 Eh/α   predicted    -0.3740831E-04 ( -35.91%)
   displ. norm   :     0.0748813 α      lambda       -0.5546113E-04
   maximum displ.:     0.0710164 α      in ANC's #2, #9, #1, ...

........................................................................
.............................. CYCLE    6 ..............................
........................................................................
   1    -19.2337628 -0.192338E+02  0.180E-02   10.18       0.0  T
   2    -19.2337631 -0.330071E-06  0.115E-02   10.18       2.2  T
   3    -19.2337633 -0.185765E-06  0.495E-03   10.18       5.2  T
   4    -19.2337634 -0.690352E-07  0.315E-03   10.18       8.2  T
   5    -19.2337634 -0.421000E-07  0.110E-03   10.18      23.5  T
   6    -19.2337634 -0.519765E-08  0.314E-04   10.18      82.3  T
   7    -19.2337634 -0.112475E-09  0.112E-04   10.18     231.0  T
     SCC iter.                  ...        0 min,  0.006 sec
     gradient                   ...        0 min,  0.001 sec
 * total energy  :   -19.0296324 Eh     change       -0.4673252E-04 Eh
   gradient norm :     0.0020710 Eh/α   predicted    -0.2788566E-04 ( -40.33%)
   displ. norm   :     0.0794855 α      lambda       -0.4807716E-04
   maximum displ.:     0.0746750 α      in ANC's #2, #9, #1, ...

........................................................................
.............................. CYCLE    7 ..............................
........................................................................
   1    -19.2337393 -0.192337E+02  0.174E-02   10.17       0.0  T
   2    -19.2337396 -0.325730E-06  0.115E-02   10.18       2.2  T
   3    -19.2337398 -0.212467E-06  0.506E-03   10.18       5.1  T
   4    -19.2337399 -0.758294E-07  0.322E-03   10.18       8.0  T
   5    -19.2337400 -0.436027E-07  0.115E-03   10.18      22.4  T
   6    -19.2337400 -0.572064E-08  0.286E-04   10.18      90.4  T
   7    -19.2337400 -0.916387E-10  0.106E-04   10.18     244.7  T
     SCC iter.                  ...        0 min,  0.006 sec
     gradient                   ...        0 min,  0.001 sec
 * total energy  :   -19.0296740 Eh     change       -0.4158705E-04 Eh
   gradient norm :     0.0021142 Eh/α   predicted    -0.2418893E-04 ( -41.84%)
   displ. norm   :     0.0759378 α      lambda       -0.3870593E-04
   maximum displ.:     0.0713713 α      in ANC's #2, #1, #9, ...

........................................................................
.............................. CYCLE    8 ..............................
........................................................................
   1    -19.2336252 -0.192336E+02  0.160E-02   10.17       0.0  T
   2    -19.2336254 -0.205439E-06  0.108E-02   10.17       2.4  T
   3    -19.2336256 -0.202517E-06  0.431E-03   10.18       6.0  T
   4    -19.2336256 -0.574144E-07  0.278E-03   10.17       9.3  T
   5    -19.2336257 -0.343487E-07  0.740E-04   10.18      34.9  T
   6    -19.2336257 -0.236187E-08  0.220E-04   10.18     117.4  T
     SCC iter.                  ...        0 min,  0.005 sec
     gradient                   ...        0 min,  0.001 sec
 * total energy  :   -19.0297081 Eh     change       -0.3405802E-04 Eh
   gradient norm :     0.0017155 Eh/α   predicted    -0.1946437E-04 ( -42.85%)
   displ. norm   :     0.1022706 α      lambda       -0.2958336E-04
   maximum displ.:     0.0957420 α      in ANC's #2, #1, #3, ...

........................................................................
.............................. CYCLE    9 ..............................
........................................................................
   1    -19.2334973 -0.192335E+02  0.214E-02   10.18       0.0  T
   2    -19.2334976 -0.277373E-06  0.144E-02   10.18       1.8  T
   3    -19.2334979 -0.344253E-06  0.537E-03   10.18       4.8  T
   4    -19.2334980 -0.916870E-07  0.335E-03   10.18       7.7  T
   5    -19.2334981 -0.506860E-07  0.850E-04   10.18      30.4  T
   6    -19.2334981 -0.289771E-08  0.237E-04   10.18     108.9  T
     SCC iter.                  ...        0 min,  0.006 sec
     gradient                   ...        0 min,  0.001 sec
 * total energy  :   -19.0297451 Eh     change       -0.3704995E-04 Eh
   gradient norm :     0.0011161 Eh/α   predicted    -0.1485913E-04 ( -59.89%)
   displ. norm   :     0.0777752 α      lambda       -0.1774898E-04
   maximum displ.:     0.0717025 α      in ANC's #2, #1, #6, ...

........................................................................
.............................. CYCLE   10 ..............................
........................................................................
   1    -19.2335297 -0.192335E+02  0.162E-02   10.18       0.0  T
   2    -19.2335299 -0.127584E-06  0.106E-02   10.18       2.4  T
   3    -19.2335300 -0.161052E-06  0.375E-03   10.18       6.9  T
   4    -19.2335301 -0.393798E-07  0.254E-03   10.18      10.1  T
   5    -19.2335301 -0.309793E-07  0.423E-04   10.18      61.1  T
   6    -19.2335301 -0.411056E-09  0.190E-04   10.18     135.9  T
     SCC iter.                  ...        0 min,  0.005 sec
     gradient                   ...        0 min,  0.001 sec
 * total energy  :   -19.0297684 Eh     change       -0.2329096E-04 Eh
   gradient norm :     0.0008737 Eh/α   predicted    -0.8898956E-05 ( -61.79%)
   displ. norm   :     0.0739559 α      lambda       -0.1411126E-04
   maximum displ.:     0.0659406 α      in ANC's #2, #6, #1, ...

........................................................................
.............................. CYCLE   11 ..............................
........................................................................
   1    -19.2335917 -0.192336E+02  0.157E-02   10.19       0.0  T
   2    -19.2335918 -0.891137E-07  0.101E-02   10.19       2.6  T
   3    -19.2335919 -0.110968E-06  0.313E-03   10.19       8.2  T
   4    -19.2335920 -0.280397E-07  0.206E-03   10.19      12.5  T
   5    -19.2335920 -0.204839E-07  0.484E-04   10.19      53.3  T
   6    -19.2335920 -0.715659E-09  0.176E-04   10.19     146.5  T
     SCC iter.                  ...        0 min,  0.005 sec
     gradient                   ...        0 min,  0.001 sec
 * total energy  :   -19.0297865 Eh     change       -0.1807201E-04 Eh
   gradient norm :     0.0005680 Eh/α   predicted    -0.7074153E-05 ( -60.86%)
   displ. norm   :     0.0754481 α      lambda       -0.1094773E-04
   maximum displ.:     0.0657180 α      in ANC's #2, #6, #3, ...

........................................................................
.............................. CYCLE   12 ..............................
........................................................................
   1    -19.2336199 -0.192336E+02  0.166E-02   10.18       0.0  T
   2    -19.2336200 -0.785534E-07  0.105E-02   10.18       2.5  T
   3    -19.2336201 -0.955454E-07  0.291E-03   10.18       8.9  T
   4    -19.2336201 -0.245468E-07  0.189E-03   10.18      13.7  T
   5    -19.2336201 -0.171144E-07  0.520E-04   10.18      49.6  T
   6    -19.2336201 -0.879307E-09  0.171E-04   10.18     150.6  T
     SCC iter.                  ...        0 min,  0.005 sec
     gradient                   ...        0 min,  0.001 sec
 * total energy  :   -19.0297997 Eh     change       -0.1323091E-04 Eh
   gradient norm :     0.0003222 Eh/α   predicted    -0.5487587E-05 ( -58.52%)
   displ. norm   :     0.0660215 α      lambda       -0.6333016E-05
   maximum displ.:     0.0568245 α      in ANC's #2, #6, #5, ...

........................................................................
.............................. CYCLE   13 ..............................
........................................................................
   1    -19.2336553 -0.192337E+02  0.150E-02   10.18       0.0  T
   2    -19.2336553 -0.562253E-07  0.938E-03   10.18       2.8  T
   3    -19.2336554 -0.698293E-07  0.248E-03   10.18      10.4  T
   4    -19.2336554 -0.198596E-07  0.145E-03   10.18      17.7  T
   5    -19.2336554 -0.103722E-07  0.418E-04   10.18      61.8  T
   6    -19.2336554 -0.430173E-09  0.132E-04   10.18     195.8  T
     SCC iter.                  ...        0 min,  0.005 sec
     gradient                   ...        0 min,  0.001 sec
 * total energy  :   -19.0298069 Eh     change       -0.7126392E-05 Eh
   gradient norm :     0.0002312 Eh/α   predicted    -0.3172121E-05 ( -55.49%)
   displ. norm   :     0.0461478 α      lambda       -0.2661180E-05
   maximum displ.:     0.0389648 α      in ANC's #2, #6, #4, ...

........................................................................
.............................. CYCLE   14 ..............................
........................................................................
   1    -19.2336890 -0.192337E+02  0.109E-02   10.18       0.0  T
   2    -19.2336890 -0.301923E-07  0.686E-03   10.18       3.8  T
   3    -19.2336891 -0.384780E-07  0.184E-03   10.18      14.0  T
   4    -19.2336891 -0.130174E-07  0.846E-04   10.18      30.5  T
   5    -19.2336891 -0.351898E-08  0.288E-04   10.18      89.7  T
     SCC iter.                  ...        0 min,  0.004 sec
     gradient                   ...        0 min,  0.001 sec
 * total energy  :   -19.0298098 Eh     change       -0.2922663E-05 Eh
   gradient norm :     0.0001974 Eh/α   predicted    -0.1332310E-05 ( -54.41%)
   displ. norm   :     0.0312627 α      lambda       -0.1174770E-05
   maximum displ.:     0.0248159 α      in ANC's #2, #1, #6, ...

   *** GEOMETRY OPTIMIZATION CONVERGED AFTER 14 ITERATIONS ***

------------------------------------------------------------------------
 total energy gain   :        -0.0049130 Eh       -3.0830 kcal/mol
 total RMSD          :         0.2754652 a0        0.1458 Å
 total power (kW/mol):        -0.9213629 (step) -105.5747 (real)
------------------------------------------------------------------------

 ANCopt (total)                0 d,  0 h,  0 min,  0.122 sec
 optimizer setup                ...        0 min,  0.000 sec (  0.079%)
 model hessian                  ...        0 min,  0.004 sec (  3.491%)
 ANC generation                 ...        0 min,  0.001 sec (  0.585%)
 coordinate transformation      ...        0 min,  0.000 sec (  0.319%)
 single point calculation       ...        0 min,  0.111 sec ( 90.649%)
 optimization log               ...        0 min,  0.001 sec (  1.218%)
 hessian update                 ...        0 min,  0.000 sec (  0.332%)
 rational function              ...        0 min,  0.002 sec (  1.726%)

================
 final structure:
================
15
 xtb: 6.5.1 (fef0646)
N            1.08864462386718       -0.30006807745924        0.18206116006925
C            2.54180872184554       -0.31720563995526        0.44712570393027
C            3.01584891165080        1.06649359125336        0.87399870471554
C            4.53073699188746        1.10042356784879        1.03853125912670
Cl           0.47906841560496        1.64332459513591       -2.10066060701908
H            0.74666777406129       -1.21794778976684       -0.11046368484306
H            0.87661962127171        0.37738817060035       -0.59409469262510
H            0.57417347718984        0.01379100249305        1.00834385363822
H            3.05713984164623       -0.60554190237523       -0.46874957249338
H            2.76160540257824       -1.04759771250959        1.22707240265890
H            2.54647711429598        1.34711131077412        1.81778626806465
H            2.70956351861273        1.78916340107524        0.11537323295304
H            4.85282307218691        0.37408780597377        1.78067087984762
H            4.85579023314896        2.08611259342829        1.35982637432914
H            5.02257228015228        0.87269508348320        0.09606871764716

 Bond Distances (Angstroems)
 ---------------------------
N1-C2=1.4772         N1-H6=1.0223         N1-H7=1.0518         N1-H8=1.0227         C2-N1=1.4772         C2-C3=1.5237         
C2-H9=1.0897         C2-H10=1.0909        C3-C2=1.5237         C3-C4=1.5242         C3-H11=1.0908        C3-H12=1.0916        
C4-C3=1.5242         C4-H13=1.0872        C4-H14=1.0865        C4-H15=1.0872        H6-N1=1.0223         H7-N1=1.0518         
H8-N1=1.0227         H9-C2=1.0897         H10-C2=1.0909        H11-C3=1.0908        H12-C3=1.0916        H13-C4=1.0872        
H14-C4=1.0865        H15-C4=1.0872        
 C  H  Rav=1.0891 sigma=0.0019  Rmin=1.0865  Rmax=1.0916     7
 C  C  Rav=1.5239 sigma=0.0003  Rmin=1.5237  Rmax=1.5242     2
 N  H  Rav=1.0323 sigma=0.0138  Rmin=1.0223  Rmax=1.0518     3
 N  C  Rav=1.4772 sigma=0.0000  Rmin=1.4772  Rmax=1.4772     1

 selected bond angles (degree)
 --------------------
H6-N1-C2=111.72                H7-N1-C2=109.77                H7-N1-H6=107.44                H8-N1-C2=110.70                
H8-N1-H6=109.78                H8-N1-H7=107.28                C3-C2-N1=110.23                H9-C2-N1=108.51                
H9-C2-C3=109.19                H10-C2-N1=109.53               H10-C2-C3=110.18               H10-C2-H9=109.17               
C4-C3-C2=111.08                H11-C3-C2=110.01               H11-C3-C4=109.18               H12-C3-C2=108.62               
H12-C3-C4=109.83               H12-C3-H11=108.08              H13-C4-C3=110.69               H14-C4-C3=110.45               
H14-C4-H13=108.40              H15-C4-C3=110.57               H15-C4-H13=108.53              H15-C4-H14=108.12              

 selected dihedral angles (degree)
 ---------------------------------
C3-C2-N1-H6=179.75            C3-C2-N1-H7= 60.68            C3-C2-N1-H8=302.43            H9-C2-N1-H6= 60.24            
H9-C2-N1-H7=301.16            H9-C2-N1-H8=182.92            H10-C2-N1-H6=301.14           H10-C2-N1-H7=182.07           
H10-C2-N1-H8= 63.82           C4-C3-C2-N1=184.80            C4-C3-C2-H9=303.91            C4-C3-C2-H10= 63.80           
H11-C3-C2-N1= 63.79           H11-C3-C2-H9=182.90           H11-C3-C2-H10=302.80          H12-C3-C2-N1=305.69           
H12-C3-C2-H9= 64.80           H12-C3-C2-H10=184.69          H13-C4-C3-C2=301.06           H13-C4-C3-H11= 62.55          
H13-C4-C3-H12=180.88          H14-C4-C3-C2=181.00           H14-C4-C3-H11=302.49          H14-C4-C3-H12= 60.82          
H15-C4-C3-C2= 61.36           H15-C4-C3-H11=182.85          H15-C4-C3-H12=301.18          

 CMA Distance (Angstroems)
 ---------------------------
R(CMA):  3.7588
           -------------------------------------------------
          |                Final Singlepoint                |
           -------------------------------------------------

          ...................................................
          :                      SETUP                      :
          :.................................................:
          :  # basis functions                  36          :
          :  # atomic orbitals                  35          :
          :  # shells                           21          :
          :  # electrons                        34          :
          :  max. iterations                   250          :
          :  Hamiltonian                  GFN2-xTB          :
          :  restarted?                      false          :
          :  GBSA solvation                   true          :
          :  PC potential                    false          :
          :  electronic temp.          300.0000000     K    :
          :  accuracy                    1.0000000          :
          :  -> integral cutoff          0.2500000E+02      :
          :  -> integral neglect         0.1000000E-07      :
          :  -> SCF convergence          0.1000000E-05 Eh   :
          :  -> wf. convergence          0.1000000E-03 e    :
          :  Broyden damping             0.4000000          :
          ...................................................

 iter      E             dE          RMSdq      gap      omega  full diag
   1    -19.2336891 -0.192337E+02  0.392E-05   10.18       0.0  T
   2    -19.2336891 -0.197176E-11  0.221E-05   10.18    1168.5  T
   3    -19.2336891 -0.316192E-12  0.807E-06   10.18    3201.1  T

   *** convergence criteria satisfied after 3 iterations ***

         #    Occupation            Energy/Eh            Energy/eV
      -------------------------------------------------------------
         1        2.0000           -1.0064169             -27.3860
       ...           ...                  ...                  ...
        11        2.0000           -0.4599519             -12.5159
        12        2.0000           -0.4553817             -12.3916
        13        2.0000           -0.4372111             -11.8971
        14        2.0000           -0.4242481             -11.5444
        15        2.0000           -0.4029703             -10.9654
        16        2.0000           -0.4006180             -10.9014
        17        2.0000           -0.4003773             -10.8948 (HOMO)
        18                         -0.0262531              -0.7144 (LUMO)
        19                          0.0768913               2.0923
        20                          0.1003667               2.7311
        21                          0.1048223               2.8524
        22                          0.1168117               3.1786
       ...                                ...                  ...
        35                          0.3102881               8.4434
      -------------------------------------------------------------
                  HL-Gap            0.3741242 Eh           10.1804 eV
             Fermi-level           -0.2133152 Eh           -5.8046 eV

 SCC (total)                   0 d,  0 h,  0 min,  0.005 sec
 SCC setup                      ...        0 min,  0.000 sec (  3.286%)
 Dispersion                     ...        0 min,  0.000 sec (  2.340%)
 classical contributions        ...        0 min,  0.000 sec (  0.662%)
 integral evaluation            ...        0 min,  0.001 sec ( 13.790%)
 iterations                     ...        0 min,  0.002 sec ( 53.666%)
 molecular gradient             ...        0 min,  0.001 sec ( 21.897%)
 printout                       ...        0 min,  0.000 sec (  2.206%)

         :::::::::::::::::::::::::::::::::::::::::::::::::::::
         ::                     SUMMARY                     ::
         :::::::::::::::::::::::::::::::::::::::::::::::::::::
         :: total energy             -19.029809786172 Eh    ::
         :: total w/o Gsasa/hb       -19.022573628869 Eh    ::
         :: gradient norm              0.000211741066 Eh/a0 ::
         :: HOMO-LUMO gap             10.180437747651 eV    ::
         ::.................................................::
         :: SCC energy               -19.233689105150 Eh    ::
         :: -> isotropic ES            0.119077876315 Eh    ::
         :: -> anisotropic ES         -0.027674260929 Eh    ::
         :: -> anisotropic XC          0.000839812765 Eh    ::
         :: -> dispersion             -0.007001058580 Eh    ::
         :: -> Gsolv                  -0.072135261389 Eh    ::
         ::    -> Gelec               -0.064899104085 Eh    ::
         ::    -> Gsasa               -0.000785367064 Eh    ::
         ::    -> Ghb                 -0.007531549937 Eh    ::
         ::    -> Gshift               0.001080759698 Eh    ::
         :: repulsion energy           0.203859547438 Eh    ::
         :: add. restraining           0.000000000000 Eh    ::
         :: total charge               0.000000000000 e     ::
         :::::::::::::::::::::::::::::::::::::::::::::::::::::

           -------------------------------------------------
          |                Property Printout                |
           -------------------------------------------------

    * Orbital Energies and Occupations

         #    Occupation            Energy/Eh            Energy/eV
      -------------------------------------------------------------
         1        2.0000           -1.0064169             -27.3860
       ...           ...                  ...                  ...
         5        2.0000           -0.5768082             -15.6958
         6        2.0000           -0.5668211             -15.4240
         7        2.0000           -0.5487583             -14.9325
         8        2.0000           -0.5349355             -14.5563
         9        2.0000           -0.5020280             -13.6609
        10        2.0000           -0.4797114             -13.0536
        11        2.0000           -0.4599519             -12.5159
        12        2.0000           -0.4553817             -12.3916
        13        2.0000           -0.4372111             -11.8971
        14        2.0000           -0.4242481             -11.5444
        15        2.0000           -0.4029703             -10.9654
        16        2.0000           -0.4006180             -10.9014
        17        2.0000           -0.4003773             -10.8948 (HOMO)
        18                         -0.0262531              -0.7144 (LUMO)
        19                          0.0768913               2.0923
        20                          0.1003667               2.7311
        21                          0.1048223               2.8524
        22                          0.1168117               3.1786
        23                          0.1172257               3.1899
        24                          0.1193587               3.2479
        25                          0.1195516               3.2532
        26                          0.1353879               3.6841
        27                          0.1451589               3.9500
        28                          0.1572152               4.2780
       ...                                ...                  ...
        35                          0.3102881               8.4434
      -------------------------------------------------------------
                  HL-Gap            0.3741242 Eh           10.1804 eV
             Fermi-level           -0.2133152 Eh           -5.8046 eV

     #   Z          covCN         q      C6AA      α(0)
     1   7 N        3.484    -0.170    24.668     7.377
     2   6 C        3.733    -0.026    21.137     6.562
     3   6 C        3.801    -0.072    21.881     6.660
     4   6 C        3.753    -0.120    22.851     6.817
     5  17 Cl       0.048    -0.948   124.915    17.010
     6   1 H        0.859     0.303     0.703     1.314
     7   1 H        0.905     0.292     0.733     1.340
     8   1 H        0.859     0.296     0.724     1.333
     9   1 H        0.925     0.095     1.833     2.118
    10   1 H        0.924     0.104     1.751     2.069
    11   1 H        0.924     0.059     2.215     2.327
    12   1 H        0.924     0.052     2.294     2.369
    13   1 H        0.925     0.052     2.296     2.370
    14   1 H        0.925     0.043     2.415     2.430
    15   1 H        0.925     0.041     2.436     2.441

 Mol. C6AA /au·bohr⁶  :       1849.090938
 Mol. C8AA /au·bohr⁸  :      46470.352756
 Mol. α(0) /au        :         64.534929


Wiberg/Mayer (AO) data.
largest (>0.10) Wiberg bond orders for each atom

 ---------------------------------------------------------------------------
     #   Z sym  total        # sym  WBO       # sym  WBO       # sym  WBO
 ---------------------------------------------------------------------------
     1   7 N    3.645 --     2 C    0.967     8 H    0.897     6 H    0.894
                             7 H    0.834
     2   6 C    3.930 --     3 C    1.010     9 H    0.969    10 H    0.968
                             1 N    0.967
     3   6 C    3.993 --     4 C    1.018     2 C    1.010    11 H    0.975
                            12 H    0.975
     4   6 C    3.994 --     3 C    1.018    15 H    0.987    14 H    0.986
                            13 H    0.986
     5  17 Cl   0.101
     6   1 H    0.908 --     1 N    0.894
     7   1 H    0.915 --     1 N    0.834
     8   1 H    0.912 --     1 N    0.897
     9   1 H    0.991 --     2 C    0.969
    10   1 H    0.989 --     2 C    0.968
    11   1 H    0.997 --     3 C    0.975
    12   1 H    0.997 --     3 C    0.975
    13   1 H    0.997 --     4 C    0.986
    14   1 H    0.998 --     4 C    0.986
    15   1 H    0.998 --     4 C    0.987
 ---------------------------------------------------------------------------

Topologies differ in total number of bonds
Writing topology from bond orders to xtbtopo.mol

molecular dipole:
                 x           y           z       tot (Debye)
 q only:        1.356      -3.425       4.163
   full:        1.053      -2.992       3.595      12.186
molecular quadrupole (traceless):
                xx          xy          yy          xz          yz          zz
 q only:       17.855      -5.313      -4.408       7.417      17.507     -13.447
  q+dip:       11.782      -5.317      -2.727       6.268      12.682      -9.055
   full:       12.578      -5.154      -2.890       6.524      12.842      -9.688

           -------------------------------------------------
          |                Geometry Summary                 |
           -------------------------------------------------

      molecular mass/u    :       95.5712560
   center of mass at/Å    :        1.9004413       0.8401591      -0.3903056
  moments of inertia/u·Å² :        0.9592315E+02   0.3858842E+03   0.4570825E+03
rotational constants/cm⁻¹ :        0.1757410E+00   0.4368573E-01   0.3688094E-01

 * 13 selected distances

     #   Z          #   Z                                           value/Å
     1   7 N        2   6 C                                       1.4772404
     2   6 C        3   6 C                                       1.5236662
     3   6 C        4   6 C                                       1.5241747 (max)
     1   7 N        6   1 H                                       1.0222633 (min)
     1   7 N        7   1 H                                       1.0518173
     1   7 N        8   1 H                                       1.0227079
     2   6 C        9   1 H                                       1.0897393
     2   6 C       10   1 H                                       1.0909172
     3   6 C       11   1 H                                       1.0907756
     3   6 C       12   1 H                                       1.0915930
     4   6 C       13   1 H                                       1.0872325
     4   6 C       14   1 H                                       1.0864959
     4   6 C       15   1 H                                       1.0871973

 * 4 distinct bonds (by element types)

   Z      Z             #   av. dist./Å        max./Å        min./Å
   1 H    6 C           7     1.0891358     1.0915930     1.0864959
   6 C    6 C           2     1.5239204     1.5241747     1.5236662
   1 H    7 N           3     1.0322628     1.0518173     1.0222633
   6 C    7 N           1     1.4772404     1.4772404     1.4772404


optimized geometry written to: xtbopt.xyz


           -------------------------------------------------
          | TOTAL ENERGY              -19.029809786172 Eh   |
          | GRADIENT NORM               0.000211741066 Eh/α |
          | HOMO-LUMO GAP              10.180437747651 eV   |
           -------------------------------------------------

------------------------------------------------------------------------
 * finished run on 2023/01/24 at 14:56:05.260     
------------------------------------------------------------------------
 total:
 * wall-time:     0 d,  0 h,  0 min,  0.164 sec
 *  cpu-time:     0 d,  0 h,  0 min, 19.882 sec
 * ratio c/w:   120.991 speedup
 SCF:
 * wall-time:     0 d,  0 h,  0 min,  0.015 sec
 *  cpu-time:     0 d,  0 h,  0 min,  2.137 sec
 * ratio c/w:   140.784 speedup
 ANC optimizer:
 * wall-time:     0 d,  0 h,  0 min,  0.128 sec
 *  cpu-time:     0 d,  0 h,  0 min, 15.020 sec
 * ratio c/w:   117.618 speedup

