29
 energy: -29.826725531940 gnorm: 0.000486646154 xtb: 6.5.1 (fef0646)
N            1.01102846217495        0.00607690649824       -0.06702609563213
C            2.51037882355047        0.01298320671919       -0.05684024743318
C            3.03150540440861        0.90708101649585        1.05787152087654
C            4.56313750981367        0.92096729086124        1.07625646523130
C            5.10031041469146        1.81683514766268        2.19153442323308
C            6.62723352698965        1.83780820318481        2.21622884376461
C            7.16288405731022        2.73320858111118        3.33117669972829
C            8.68940088750260        2.75828851300892        3.36232513340149
C            9.21491161861183        3.65401246352670        4.47706831638577
H            0.63985377226414       -0.59437046158056       -0.81384125609557
H            0.66208745182556        0.96398085336485       -0.20507421958454
H            0.66105631553083       -0.33358788148793        0.83880652799219
H            2.85970258908772        0.37087779385389       -1.02615761427574
H            2.85854771640348       -1.01119815566556        0.08291796498437
H            2.67242068882836        0.54814037118240        2.02437209194412
H            2.67325390602259        1.92865803601319        0.91666211831376
H            4.93564373515269        1.28012381354000        0.11580033840070
H            4.93490218037880       -0.09454208019859        1.22031092832957
H            4.73115356691269        1.45903137481402        3.15480650560195
H            4.73019482788231        2.83434616007787        2.05049189608526
H            7.00057110206956        2.19673356344715        1.25482650480880
H            7.00164578015970        0.82188896042641        2.35840342716717
H            6.79003241362022        2.37528825763733        4.29349608363865
H            6.78997228689084        3.75007659465034        3.18942787714846
H            9.06412714098695        3.11704560490962        2.40128172900642
H            9.06415734705356        1.74255109877131        3.50571628323967
H            8.86913795357636        4.67631099260403        4.34140599256615
H           10.30166781249819        3.65781491053661        4.48168537972826
H            8.86925070780200        3.30132886403481        5.44618638144460
