 Entering Gaussian System
 *********************************************
 Gaussian 98:
 frequency output generated by the xtb code
 *********************************************
                         Standard orientation:
 --------------------------------------------------------------------
  Center     Atomic     Atomic              Coordinates (Angstroms)
  Number     Number      Type              X           Y           Z
 --------------------------------------------------------------------
    1          7             0       -3.268270    0.877295   -1.220660
    2          6             0       -2.899400    0.030385   -0.037780
    3          6             0       -3.353432    0.669420    1.269211
    4          6             0       -1.421082   -0.278253   -0.026325
    5          6             0       -0.975839   -1.600705   -0.041764
    6          6             0        0.370030   -1.902982   -0.026068
    7          6             0       -0.487046    0.744303    0.008290
    8          6             0        0.893473    0.477085    0.025496
    9          6             0        1.334486   -0.881337    0.007417
   10          6             0        2.715394   -1.148594    0.024243
   11          6             0        3.629600   -0.116259    0.057908
   12          6             0        3.201457    1.203533    0.075937
   13          6             0        1.855028    1.503161    0.060291
   14          1             0       -2.946565    0.442372   -2.092121
   15          1             0       -2.834765    1.804313   -1.151673
   16          1             0       -4.284120    1.009500   -1.280067
   17          1             0       -3.432006   -0.927902   -0.153536
   18          1             0       -3.107743    0.039520    2.124281
   19          1             0       -4.428942    0.843545    1.275054
   20          1             0       -2.864307    1.630658    1.418217
   21          1             0       -1.698883   -2.397711   -0.065790
   22          1             0        0.693525   -2.929344   -0.038727
   23          1             0       -0.818111    1.766104    0.025380
   24          1             0        3.053059   -2.170516    0.010403
   25          1             0        4.684659   -0.335964    0.070164
   26          1             0        3.926791    2.000210    0.101963
   27          1             0        1.528624    2.528652    0.073690
 --------------------------------------------------------------------
     1 basis functions        1 primitive gaussians
     1 alpha electrons        1 beta electrons

 Harmonic frequencies (cm**-1), IR intensities (km*mol⁻¹),
 Raman scattering activities (A**4/amu), Raman depolarization ratios,
 reduced masses (AMU), force constants (mDyne/A) and normal coordinates:
                      1                      2                      3
                        a                      a                      a 
 Frequencies --    27.5308                69.9874                94.2829
 Red. masses --     6.8412                 6.3632                 7.5639
 Frc consts  --     0.0000                 0.0000                 0.0000
 IR Inten    --     8.6673                 4.8068                 9.9300
 Raman Activ --     0.0000                 0.0000                 0.0000
 Depolar     --     0.0000                 0.0000                 0.0000
 Atom AN      X      Y      Z        X      Y      Z        X      Y      Z
   1   7     0.04   0.36   0.12     0.14  -0.16  -0.15    -0.31  -0.23   0.07
   2   6     0.00  -0.00  -0.12     0.00   0.00   0.02     0.00   0.00   0.14
   3   6    -0.10  -0.40   0.04    -0.21   0.15  -0.13     0.22   0.21   0.12
   4   6     0.01   0.03  -0.06     0.01   0.02   0.18     0.01   0.04  -0.09
   5   6    -0.00   0.02   0.11    -0.00   0.02   0.11     0.00   0.03  -0.22
   6   6    -0.01   0.01   0.17    -0.01   0.01   0.03    -0.00   0.02  -0.23
   7   6     0.01   0.02  -0.14     0.01   0.02   0.25     0.02   0.03  -0.15
   8   6     0.01   0.01  -0.09     0.01   0.00   0.17     0.02   0.01  -0.13
   9   6    -0.00   0.00   0.07     0.00   0.00  -0.01     0.00   0.01  -0.08
  10   6    -0.00  -0.01   0.15     0.00  -0.01  -0.26    -0.00  -0.02   0.15
  11   6     0.01  -0.02   0.06     0.01  -0.02  -0.28     0.01  -0.04   0.28
  12   6     0.02  -0.01  -0.15     0.02  -0.02  -0.00     0.03  -0.03   0.13
  13   6     0.02  -0.00  -0.21     0.02  -0.01   0.19     0.03  -0.00  -0.07
  14   1     0.27   0.31   0.02     0.38   0.09   0.02     0.16   0.05   0.05
  15   1    -0.22   0.19   0.26    -0.25   0.08   0.11    -0.36   0.06   0.11
  16   1    -0.01  -0.13  -0.13     0.01  -0.34  -0.28    -0.11  -0.35  -0.11
  17   1     0.02   0.00  -0.12     0.02  -0.01   0.01     0.01  -0.01   0.11
  18   1    -0.06  -0.19  -0.04    -0.10   0.07  -0.01     0.08   0.09   0.05
  19   1    -0.03  -0.10  -0.00    -0.06   0.05  -0.10     0.07   0.09   0.07
  20   1    -0.01  -0.14   0.11    -0.06   0.05  -0.04     0.09   0.05  -0.02
  21   1    -0.00   0.01   0.05    -0.00   0.01   0.03    -0.00   0.01  -0.08
  22   1    -0.01   0.00   0.09    -0.00   0.00  -0.02    -0.00   0.00  -0.08
  23   1     0.01   0.01  -0.08     0.00   0.00   0.09     0.01   0.01  -0.05
  24   1    -0.01  -0.01   0.09    -0.00  -0.00  -0.13    -0.01  -0.01   0.07
  25   1     0.00  -0.01   0.04     0.00  -0.01  -0.14     0.00  -0.02   0.14
  26   1     0.01  -0.01  -0.07     0.01  -0.01   0.00     0.01  -0.01   0.06
  27   1     0.01   0.00  -0.11     0.01  -0.00   0.11     0.01   0.00  -0.05
                      4                      5                      6
                        a                      a                      a 
 Frequencies --   149.9047               158.4772               195.1677
 Red. masses --     9.5899                 9.4914                10.0089
 Frc consts  --     0.0000                 0.0000                 0.0000
 IR Inten    --     6.2586                12.0390                 6.4673
 Raman Activ --     0.0000                 0.0000                 0.0000
 Depolar     --     0.0000                 0.0000                 0.0000
 Atom AN      X      Y      Z        X      Y      Z        X      Y      Z
   1   7    -0.26  -0.02  -0.02    -0.33  -0.19  -0.02    -0.27   0.07  -0.08
   2   6    -0.00  -0.01  -0.09    -0.02  -0.04  -0.01     0.01   0.01  -0.19
   3   6     0.10  -0.09  -0.01    -0.33  -0.22  -0.03     0.38  -0.02  -0.05
   4   6     0.01   0.07  -0.15     0.05   0.23   0.02    -0.00  -0.02  -0.23
   5   6    -0.00   0.05   0.35     0.01   0.22  -0.09    -0.00  -0.02  -0.18
   6   6    -0.01   0.03   0.24    -0.02   0.14  -0.03    -0.01  -0.02   0.18
   7   6     0.03   0.06  -0.36     0.09   0.20   0.13    -0.01  -0.02   0.10
   8   6     0.03   0.03  -0.14     0.10   0.12   0.09    -0.02  -0.02   0.32
   9   6     0.01   0.02  -0.11     0.03   0.09   0.07    -0.01  -0.02   0.34
  10   6     0.00  -0.01  -0.30    -0.00  -0.07   0.08    -0.00   0.00   0.14
  11   6     0.03  -0.05  -0.11     0.11  -0.18  -0.02    -0.01   0.02  -0.29
  12   6     0.05  -0.05   0.37     0.22  -0.14  -0.12    -0.03   0.02  -0.19
  13   6     0.06  -0.01   0.23     0.24  -0.00  -0.02    -0.03  -0.01   0.23
  14   1    -0.11   0.00  -0.02    -0.19  -0.10  -0.02    -0.07   0.06  -0.04
  15   1    -0.09   0.00  -0.02    -0.06  -0.06  -0.09    -0.13   0.04  -0.00
  16   1    -0.08  -0.03   0.05    -0.09  -0.03   0.09    -0.08  -0.04   0.02
  17   1     0.02  -0.01  -0.01     0.07  -0.05  -0.01    -0.01   0.01  -0.03
  18   1     0.06  -0.03  -0.02    -0.01  -0.03  -0.00     0.15  -0.02  -0.04
  19   1     0.03  -0.04   0.03    -0.12  -0.21  -0.01     0.11   0.03   0.07
  20   1     0.02  -0.02  -0.01    -0.23   0.00  -0.01     0.15  -0.02  -0.04
  21   1    -0.01   0.02   0.22    -0.00   0.07  -0.06     0.00  -0.00  -0.12
  22   1    -0.01   0.01   0.14    -0.02   0.04  -0.02    -0.00  -0.01   0.07
  23   1     0.02   0.02  -0.18     0.04   0.06   0.05    -0.00  -0.01   0.02
  24   1    -0.01  -0.01  -0.15    -0.04  -0.03   0.04     0.00   0.00   0.04
  25   1     0.01  -0.02  -0.06     0.03  -0.08  -0.01    -0.00   0.01  -0.20
  26   1     0.02  -0.02   0.22     0.09  -0.06  -0.07    -0.01   0.01  -0.14
  27   1     0.03   0.00   0.13     0.11   0.01  -0.02    -0.02  -0.00   0.09
                      7                      8                      9
                        a                      a                      a 
 Frequencies --   242.2210               273.8504               333.5570
 Red. masses --     1.6038                 9.6273                 9.5974
 Frc consts  --     0.0000                 0.0000                 0.0000
 IR Inten    --     2.1873                18.3099                 4.2946
 Raman Activ --     0.0000                 0.0000                 0.0000
 Depolar     --     0.0000                 0.0000                 0.0000
 Atom AN      X      Y      Z        X      Y      Z        X      Y      Z
   1   7     0.06   0.12   0.05    -0.35   0.22   0.18    -0.21   0.08  -0.14
   2   6     0.02   0.02  -0.01    -0.07   0.05  -0.00     0.00   0.02  -0.19
   3   6     0.01   0.05  -0.03    -0.33   0.25  -0.18     0.21  -0.05  -0.11
   4   6     0.00  -0.04  -0.02    -0.03  -0.09  -0.01    -0.00   0.01   0.07
   5   6     0.00  -0.05   0.00     0.09  -0.08  -0.01    -0.01   0.00   0.13
   6   6     0.00  -0.05   0.01     0.12  -0.10   0.00    -0.01  -0.02   0.12
   7   6     0.00  -0.05  -0.02     0.08  -0.18  -0.02     0.00  -0.02   0.51
   8   6    -0.01  -0.06  -0.01     0.09  -0.20   0.00     0.01  -0.03   0.06
   9   6     0.01  -0.05  -0.01     0.20  -0.16   0.01     0.01  -0.02  -0.17
  10   6     0.02   0.00  -0.00     0.26   0.01   0.01     0.02   0.00  -0.30
  11   6    -0.02   0.04   0.01     0.15   0.13  -0.01    -0.00   0.01   0.29
  12   6    -0.05   0.03   0.02     0.01   0.08  -0.00    -0.01   0.01   0.05
  13   6    -0.06  -0.02  -0.00    -0.03  -0.10   0.01    -0.01  -0.01  -0.31
  14   1     0.06   0.08   0.01    -0.16   0.13  -0.01    -0.09   0.05  -0.06
  15   1    -0.02   0.04   0.07    -0.11   0.07   0.08    -0.09   0.04  -0.04
  16   1     0.01   0.00  -0.02    -0.10   0.04   0.15    -0.06  -0.02   0.02
  17   1     0.00   0.01  -0.01    -0.02   0.02  -0.00     0.00   0.01  -0.06
  18   1     0.49   0.28   0.05    -0.21   0.10   0.00     0.10  -0.04  -0.06
  19   1    -0.08  -0.48   0.21    -0.09   0.12  -0.17     0.06   0.00   0.04
  20   1    -0.41   0.27  -0.29    -0.07   0.06  -0.05     0.08  -0.03  -0.03
  21   1    -0.00  -0.01   0.01     0.04  -0.04  -0.00    -0.00   0.00   0.05
  22   1     0.00  -0.02   0.01     0.01  -0.04   0.00    -0.01  -0.01   0.08
  23   1     0.00  -0.02   0.00     0.05  -0.04  -0.01     0.00  -0.01   0.25
  24   1     0.02   0.00  -0.00     0.12   0.02   0.01     0.01   0.01  -0.16
  25   1    -0.00   0.02   0.00     0.05   0.07  -0.01    -0.00   0.01   0.20
  26   1    -0.02   0.01   0.01    -0.03   0.05  -0.00    -0.01   0.01   0.03
  27   1    -0.03  -0.01  -0.00    -0.05  -0.04   0.00    -0.01  -0.00  -0.19
                     10                     11                     12
                        a                      a                      a 
 Frequencies --   372.6640               385.9072               440.4551
 Red. masses --     9.3961                 9.2970                10.0401
 Frc consts  --     0.0000                 0.0000                 0.0000
 IR Inten    --     6.2984                 1.8911                 3.1149
 Raman Activ --     0.0000                 0.0000                 0.0000
 Depolar     --     0.0000                 0.0000                 0.0000
 Atom AN      X      Y      Z        X      Y      Z        X      Y      Z
   1   7     0.00   0.06   0.26     0.10  -0.06   0.05    -0.04   0.07  -0.25
   2   6    -0.00  -0.26  -0.02     0.00   0.03   0.13    -0.38   0.13   0.01
   3   6     0.01   0.13  -0.23    -0.11   0.02   0.12    -0.04   0.01   0.25
   4   6     0.00  -0.25  -0.04     0.01   0.04  -0.15    -0.32  -0.17  -0.02
   5   6     0.10  -0.21  -0.06    -0.01   0.04  -0.46    -0.03  -0.09  -0.01
   6   6     0.15   0.10   0.08    -0.03  -0.02   0.41     0.08   0.19   0.03
   7   6    -0.17  -0.04   0.03     0.03   0.01   0.01    -0.20  -0.20   0.01
   8   6    -0.09   0.30  -0.01     0.02  -0.04  -0.14    -0.07   0.06  -0.03
   9   6    -0.10   0.30   0.03     0.01  -0.05   0.26     0.14   0.14  -0.02
  10   6    -0.18   0.02  -0.05     0.03   0.00  -0.18     0.18   0.07   0.02
  11   6     0.00  -0.19   0.00    -0.00   0.03  -0.09     0.31  -0.04  -0.01
  12   6     0.11  -0.15   0.04    -0.02   0.02   0.29     0.16  -0.09  -0.00
  13   6     0.14   0.13  -0.05    -0.01  -0.01  -0.25     0.12  -0.07   0.02
  14   1    -0.03   0.13   0.00     0.06  -0.05   0.04     0.07  -0.06   0.00
  15   1     0.02  -0.00   0.18     0.04  -0.02  -0.00     0.02   0.01  -0.09
  16   1     0.00   0.05   0.11     0.03  -0.00  -0.03     0.00   0.05  -0.19
  17   1    -0.02  -0.06  -0.01     0.00   0.01   0.05    -0.17   0.07   0.01
  18   1    -0.04   0.13   0.01    -0.06   0.00   0.04     0.08  -0.05   0.01
  19   1     0.01   0.07  -0.11    -0.03  -0.01  -0.01    -0.01  -0.00   0.20
  20   1     0.03   0.04  -0.17    -0.05   0.01   0.06     0.00  -0.01   0.08
  21   1     0.07  -0.09  -0.03    -0.01   0.02  -0.26     0.06  -0.09   0.00
  22   1     0.13   0.06   0.05    -0.02  -0.01   0.24     0.04   0.06   0.03
  23   1    -0.13  -0.04   0.03     0.02   0.01   0.09    -0.08  -0.06   0.02
  24   1    -0.13  -0.02  -0.04     0.02   0.01  -0.16     0.01   0.01   0.02
  25   1    -0.01  -0.10  -0.00     0.00   0.01  -0.09     0.09  -0.01   0.00
  26   1     0.07  -0.07   0.02    -0.01   0.01   0.18     0.02  -0.00   0.00
  27   1     0.12   0.06  -0.03    -0.01  -0.01  -0.15     0.08  -0.00   0.02
                     13                     14                     15
                        a                      a                      a 
 Frequencies --   444.5065               489.8070               513.4750
 Red. masses --     8.3662                10.8628                 9.8841
 Frc consts  --     0.0000                 0.0000                 0.0000
 IR Inten    --     6.4693                 2.5585                 4.9703
 Raman Activ --     0.0000                 0.0000                 0.0000
 Depolar     --     0.0000                 0.0000                 0.0000
 Atom AN      X      Y      Z        X      Y      Z        X      Y      Z
   1   7    -0.00   0.01  -0.02     0.07  -0.04   0.09    -0.12   0.12  -0.17
   2   6    -0.04  -0.00  -0.01    -0.13  -0.19  -0.02     0.12   0.18  -0.05
   3   6     0.01  -0.01   0.01     0.07  -0.00  -0.08     0.02  -0.03   0.01
   4   6    -0.03  -0.01   0.12    -0.09   0.20  -0.00     0.08  -0.07   0.34
   5   6    -0.00  -0.00   0.12     0.26   0.34   0.00     0.16  -0.07   0.07
   6   6     0.01   0.02  -0.24     0.21   0.16   0.01     0.17  -0.00  -0.14
   7   6    -0.02  -0.01  -0.24    -0.16   0.23   0.01    -0.01  -0.02   0.13
   8   6    -0.02  -0.00   0.43    -0.22  -0.09  -0.01    -0.02   0.06  -0.27
   9   6     0.01   0.00   0.45     0.21   0.04  -0.01     0.03   0.07   0.13
  10   6     0.02   0.01  -0.23     0.19  -0.17  -0.00    -0.04  -0.11   0.24
  11   6     0.03  -0.01   0.10     0.10  -0.12   0.00    -0.10  -0.08  -0.32
  12   6     0.01  -0.01   0.12    -0.31  -0.24  -0.02    -0.15  -0.10   0.29
  13   6     0.01  -0.00  -0.24    -0.27  -0.16  -0.00    -0.10   0.08  -0.20
  14   1    -0.00   0.00  -0.00     0.04   0.04   0.01    -0.08   0.00  -0.05
  15   1     0.00   0.00  -0.00     0.07  -0.04   0.12    -0.10   0.07  -0.14
  16   1    -0.00   0.01  -0.00     0.03   0.06  -0.02    -0.05  -0.05   0.04
  17   1    -0.01   0.00  -0.01    -0.02  -0.06  -0.01     0.03   0.05  -0.04
  18   1     0.02  -0.00  -0.00     0.03   0.04   0.00     0.02  -0.06  -0.04
  19   1     0.00  -0.00   0.02     0.03   0.05   0.02     0.00  -0.04   0.01
  20   1     0.01  -0.00  -0.01     0.07  -0.01  -0.10    -0.02  -0.00   0.07
  21   1     0.01  -0.01  -0.04     0.09   0.08   0.00     0.06  -0.03  -0.05
  22   1     0.01   0.01  -0.29     0.00   0.03   0.01     0.08   0.01  -0.14
  23   1     0.00   0.00  -0.29     0.02   0.09   0.01    -0.03  -0.01  -0.00
  24   1     0.01   0.01  -0.28     0.02  -0.06   0.00    -0.04  -0.04   0.12
  25   1     0.01   0.00  -0.04     0.04   0.05   0.01    -0.02   0.01  -0.18
  26   1     0.00   0.00  -0.03    -0.12  -0.04  -0.00    -0.03  -0.05   0.22
  27   1     0.01   0.00  -0.28    -0.05  -0.04   0.00    -0.01   0.03  -0.01
                     16                     17                     18
                        a                      a                      a 
 Frequencies --   517.2024               592.4756               626.0331
 Red. masses --     9.6851                10.9988                 9.5502
 Frc consts  --     0.0000                 0.0000                 0.0000
 IR Inten    --     2.4672                 5.7171                 1.7269
 Raman Activ --     0.0000                 0.0000                 0.0000
 Depolar     --     0.0000                 0.0000                 0.0000
 Atom AN      X      Y      Z        X      Y      Z        X      Y      Z
   1   7     0.04  -0.05   0.12     0.00  -0.04   0.03     0.04  -0.05   0.06
   2   6    -0.18  -0.29  -0.09    -0.16  -0.11  -0.02     0.00   0.01   0.05
   3   6     0.13  -0.06  -0.19     0.00  -0.02  -0.03    -0.05   0.04   0.07
   4   6    -0.14   0.09   0.21    -0.11  -0.02  -0.02     0.02   0.01  -0.62
   5   6    -0.24   0.11   0.05    -0.16   0.05   0.00     0.01  -0.00   0.22
   6   6    -0.25   0.01  -0.10    -0.10   0.31  -0.00     0.01  -0.01  -0.26
   7   6    -0.01   0.03   0.10     0.24  -0.28   0.01    -0.00   0.01   0.16
   8   6     0.03  -0.08  -0.18     0.31   0.06   0.01    -0.01  -0.00   0.19
   9   6    -0.05  -0.10   0.07     0.21   0.00   0.00    -0.00  -0.00  -0.05
  10   6     0.05   0.16   0.17     0.13  -0.38   0.00    -0.01   0.00   0.23
  11   6     0.17   0.13  -0.20    -0.26  -0.06  -0.01     0.00   0.00  -0.19
  12   6     0.22   0.12   0.20    -0.14   0.05   0.01    -0.00  -0.00   0.23
  13   6     0.15  -0.13  -0.13    -0.03   0.43  -0.00     0.00  -0.00  -0.20
  14   1     0.02   0.07  -0.01     0.03   0.01   0.01     0.05  -0.03   0.04
  15   1     0.07  -0.05   0.16     0.05  -0.04   0.08     0.04  -0.03   0.03
  16   1     0.02   0.07   0.01     0.01   0.05  -0.04     0.02   0.02  -0.05
  17   1    -0.03  -0.09  -0.05    -0.04  -0.03  -0.01    -0.01   0.00   0.05
  18   1     0.07   0.04  -0.02     0.02   0.02   0.00    -0.05   0.01   0.03
  19   1     0.05   0.06   0.03     0.01   0.03   0.04    -0.02  -0.01  -0.04
  20   1     0.12  -0.04  -0.18     0.04  -0.02  -0.06    -0.05   0.02   0.04
  21   1    -0.08   0.05  -0.04    -0.00  -0.03   0.00    -0.00  -0.00   0.30
  22   1    -0.12  -0.01  -0.09    -0.04   0.08  -0.00     0.00  -0.01   0.06
  23   1     0.04   0.02   0.01     0.09  -0.07   0.00    -0.01  -0.00   0.21
  24   1     0.05   0.06   0.09     0.07  -0.10   0.00    -0.00   0.00  -0.00
  25   1     0.04  -0.00  -0.11    -0.05   0.07  -0.00     0.00   0.00  -0.16
  26   1     0.03   0.06   0.15     0.05  -0.07   0.00    -0.00   0.00   0.03
  27   1     0.02  -0.04  -0.01    -0.02   0.11  -0.00     0.00   0.00  -0.19
                     19                     20                     21
                        a                      a                      a 
 Frequencies --   677.6892               725.7855               736.3265
 Red. masses --    10.0971                11.0004                 4.0182
 Frc consts  --     0.0000                 0.0000                 0.0000
 IR Inten    --     3.7051                 0.1084                 5.4369
 Raman Activ --     0.0000                 0.0000                 0.0000
 Depolar     --     0.0000                 0.0000                 0.0000
 Atom AN      X      Y      Z        X      Y      Z        X      Y      Z
   1   7     0.10  -0.06   0.12     0.00   0.01  -0.01    -0.01   0.03  -0.04
   2   6     0.37   0.13   0.01    -0.00  -0.00  -0.00    -0.01  -0.01  -0.01
   3   6     0.08  -0.04  -0.11     0.00  -0.01  -0.00     0.02  -0.02  -0.03
   4   6     0.02  -0.07  -0.01    -0.01  -0.00   0.21    -0.01  -0.00   0.27
   5   6    -0.36  -0.09  -0.00     0.00   0.00  -0.19     0.00   0.00  -0.14
   6   6    -0.26   0.38  -0.00    -0.00  -0.00   0.19    -0.00  -0.00  -0.06
   7   6    -0.06  -0.11  -0.01     0.00   0.00  -0.16     0.00   0.01  -0.16
   8   6    -0.10   0.01   0.01    -0.01  -0.01   0.57     0.00   0.00  -0.09
   9   6     0.08   0.13   0.00     0.01   0.01  -0.54     0.00  -0.00  -0.14
  10   6     0.19   0.05   0.01    -0.00  -0.00   0.14     0.00  -0.01   0.21
  11   6     0.31  -0.02   0.00     0.00   0.00  -0.22    -0.01  -0.00   0.12
  12   6    -0.16  -0.16  -0.00    -0.00  -0.00   0.18     0.00   0.00   0.13
  13   6    -0.13  -0.08  -0.01     0.00   0.00  -0.21    -0.00   0.00   0.21
  14   1    -0.06  -0.03   0.01    -0.01   0.00  -0.01    -0.02   0.02  -0.02
  15   1    -0.08   0.04  -0.08    -0.01   0.01  -0.01    -0.02   0.01  -0.01
  16   1     0.00  -0.14   0.17    -0.00  -0.01   0.01    -0.01  -0.01   0.02
  17   1     0.11   0.03   0.01     0.00  -0.00  -0.01     0.01  -0.00  -0.02
  18   1    -0.04  -0.03  -0.03     0.01   0.00  -0.00     0.02  -0.01  -0.02
  19   1     0.01  -0.09  -0.15     0.00   0.00   0.01     0.01   0.01   0.02
  20   1    -0.06   0.02   0.06     0.01  -0.01  -0.01     0.02  -0.01  -0.02
  21   1    -0.08  -0.04   0.00     0.00  -0.00  -0.02    -0.00  -0.00   0.16
  22   1    -0.07   0.11   0.00     0.00  -0.00   0.09    -0.01  -0.01   0.25
  23   1    -0.06  -0.05   0.01     0.01   0.00  -0.18    -0.01  -0.01   0.21
  24   1     0.01  -0.00  -0.00    -0.00  -0.00   0.19     0.01   0.01  -0.36
  25   1     0.10   0.06  -0.00    -0.00  -0.00   0.07     0.01   0.01  -0.39
  26   1    -0.10   0.01  -0.00    -0.00  -0.00   0.05     0.01   0.01  -0.40
  27   1     0.00  -0.01  -0.01     0.00   0.00  -0.07     0.01   0.01  -0.38
                     22                     23                     24
                        a                      a                      a 
 Frequencies --   799.5474               818.7960               848.4962
 Red. masses --    10.4513                 4.7565                 3.8324
 Frc consts  --     0.0000                 0.0000                 0.0000
 IR Inten    --     1.0030                37.3297                 2.5409
 Raman Activ --     0.0000                 0.0000                 0.0000
 Depolar     --     0.0000                 0.0000                 0.0000
 Atom AN      X      Y      Z        X      Y      Z        X      Y      Z
   1   7     0.02  -0.02   0.03     0.00   0.02  -0.03     0.02  -0.01   0.04
   2   6     0.02   0.03  -0.01    -0.00  -0.01   0.01     0.01   0.04  -0.02
   3   6     0.01  -0.01  -0.02     0.01  -0.02  -0.03     0.03  -0.00  -0.05
   4   6    -0.07   0.01  -0.01    -0.01  -0.00   0.21    -0.04  -0.01   0.02
   5   6     0.15   0.17   0.01     0.01   0.02  -0.24     0.02   0.03   0.14
   6   6     0.10   0.42   0.01     0.01   0.02  -0.26     0.01   0.03   0.11
   7   6     0.19  -0.33   0.02     0.00  -0.01  -0.21    -0.07   0.02  -0.34
   8   6     0.07  -0.25  -0.01    -0.00  -0.01   0.12    -0.04  -0.01   0.04
   9   6    -0.03   0.17  -0.01    -0.00  -0.00   0.26     0.03  -0.02   0.03
  10   6    -0.30   0.18   0.01    -0.01  -0.00  -0.09     0.02  -0.08  -0.15
  11   6    -0.25   0.03   0.00    -0.02   0.00  -0.05    -0.08   0.02  -0.12
  12   6     0.06   0.07   0.01     0.01   0.01  -0.12     0.07   0.07   0.07
  13   6     0.02  -0.42  -0.00     0.01  -0.02  -0.11     0.04  -0.04   0.13
  14   1    -0.00  -0.01   0.01    -0.02   0.02  -0.02    -0.01  -0.01   0.01
  15   1    -0.01   0.00  -0.00    -0.02   0.02  -0.02    -0.02   0.01  -0.02
  16   1     0.00  -0.02   0.02    -0.01  -0.03   0.03    -0.00  -0.04   0.04
  17   1     0.02  -0.00   0.00     0.01  -0.00  -0.03    -0.01   0.01   0.01
  18   1    -0.00  -0.01  -0.01     0.02  -0.00  -0.01     0.01  -0.03  -0.03
  19   1     0.00  -0.01  -0.01     0.01   0.01   0.02     0.01  -0.01  -0.01
  20   1    -0.00   0.00   0.00     0.02  -0.01  -0.02    -0.01   0.00   0.02
  21   1     0.13  -0.03  -0.01    -0.00  -0.01   0.50     0.02   0.00  -0.18
  22   1     0.07   0.13   0.00    -0.01  -0.00   0.41    -0.01   0.01  -0.28
  23   1     0.14  -0.07  -0.03    -0.01  -0.01   0.29    -0.07  -0.02   0.63
  24   1    -0.13   0.04  -0.01    -0.00  -0.00   0.07     0.03  -0.02   0.32
  25   1    -0.09  -0.10  -0.02    -0.01  -0.01   0.20    -0.03  -0.01   0.18
  26   1    -0.02   0.05  -0.01    -0.00  -0.00   0.26     0.03   0.01  -0.05
  27   1    -0.10  -0.15  -0.01    -0.01  -0.01   0.19     0.00  -0.01  -0.29
                     25                     26                     27
                        a                      a                      a 
 Frequencies --   854.0386               863.8952               886.7540
 Red. masses --     9.1607                 4.0130                 7.1810
 Frc consts  --     0.0000                 0.0000                 0.0000
 IR Inten    --    15.0418                 0.5226                26.5003
 Raman Activ --     0.0000                 0.0000                 0.0000
 Depolar     --     0.0000                 0.0000                 0.0000
 Atom AN      X      Y      Z        X      Y      Z        X      Y      Z
   1   7    -0.15   0.03  -0.21     0.03  -0.00   0.02     0.01  -0.04  -0.38
   2   6    -0.04  -0.15   0.04     0.01   0.01  -0.00     0.16  -0.21   0.04
   3   6    -0.06   0.02   0.15    -0.00  -0.00  -0.00    -0.04   0.11   0.28
   4   6     0.20   0.05   0.03    -0.03  -0.01  -0.01     0.08  -0.05  -0.01
   5   6    -0.06  -0.10   0.01     0.01   0.01  -0.10    -0.07  -0.08   0.01
   6   6    -0.04  -0.04   0.00     0.01   0.00  -0.12    -0.05   0.17  -0.01
   7   6     0.34  -0.06  -0.06    -0.05   0.01   0.23    -0.12   0.15   0.01
   8   6     0.16  -0.01   0.00    -0.02   0.01  -0.12    -0.08  -0.02   0.00
   9   6    -0.11   0.10   0.03     0.01  -0.01   0.10     0.07   0.00  -0.01
  10   6    -0.11   0.32  -0.06     0.02  -0.04  -0.25     0.08  -0.19   0.01
  11   6     0.28  -0.06  -0.04    -0.03   0.01  -0.12    -0.15   0.05   0.01
  12   6    -0.27  -0.27   0.02     0.03   0.03   0.11     0.11   0.14   0.00
  13   6    -0.14   0.07   0.06     0.01  -0.01   0.27     0.05  -0.16  -0.01
  14   1     0.02   0.13  -0.09    -0.01  -0.01   0.00    -0.13   0.39  -0.35
  15   1     0.10  -0.07   0.17    -0.02   0.01  -0.02     0.02  -0.05   0.28
  16   1    -0.01   0.17  -0.15     0.00  -0.02   0.03     0.00   0.08   0.13
  17   1     0.04  -0.07   0.03    -0.01   0.01  -0.01     0.05  -0.07   0.10
  18   1    -0.01   0.06   0.08    -0.00   0.00   0.00    -0.05   0.03   0.09
  19   1    -0.01   0.05   0.06    -0.00  -0.01  -0.01    -0.02  -0.00   0.02
  20   1     0.03  -0.00  -0.03    -0.00  -0.00  -0.00    -0.05   0.05   0.12
  21   1    -0.05   0.00  -0.01     0.00  -0.00   0.16     0.00  -0.04  -0.03
  22   1     0.05   0.01  -0.03    -0.01  -0.01   0.22     0.00   0.05   0.02
  23   1     0.15  -0.00   0.12    -0.00   0.01  -0.38    -0.07   0.03  -0.02
  24   1    -0.13   0.05   0.13     0.01  -0.02   0.45     0.07  -0.03  -0.02
  25   1     0.07  -0.00   0.07    -0.01  -0.00   0.17    -0.04   0.02  -0.02
  26   1    -0.12  -0.03  -0.03     0.02   0.01  -0.15     0.03   0.04   0.01
  27   1    -0.01   0.03  -0.12     0.01   0.01  -0.49    -0.02  -0.05   0.02
                     28                     29                     30
                        a                      a                      a 
 Frequencies --   900.6095               903.2147               908.8955
 Red. masses --     5.2057                 4.4998                 3.9664
 Frc consts  --     0.0000                 0.0000                 0.0000
 IR Inten    --    10.5805                 6.7986                 0.6941
 Raman Activ --     0.0000                 0.0000                 0.0000
 Depolar     --     0.0000                 0.0000                 0.0000
 Atom AN      X      Y      Z        X      Y      Z        X      Y      Z
   1   7     0.11  -0.27   0.09     0.07  -0.19   0.05     0.04  -0.06   0.01
   2   6    -0.07   0.21  -0.17    -0.04   0.14  -0.11    -0.01   0.03  -0.03
   3   6    -0.02   0.14  -0.10    -0.01   0.10  -0.06    -0.01   0.03  -0.01
   4   6    -0.10   0.02   0.02    -0.07   0.02   0.00    -0.03   0.01  -0.02
   5   6     0.06   0.09   0.16     0.05   0.07  -0.17     0.02   0.03  -0.24
   6   6     0.04  -0.11  -0.16     0.02  -0.08   0.13     0.00  -0.03   0.27
   7   6     0.01  -0.12  -0.02     0.00  -0.08   0.02    -0.00  -0.03   0.07
   8   6     0.02   0.02   0.02     0.01   0.01  -0.01     0.00   0.01  -0.06
   9   6    -0.03  -0.02  -0.02    -0.02  -0.02   0.04    -0.01  -0.01  -0.04
  10   6    -0.04   0.08   0.10    -0.02   0.06  -0.19    -0.01   0.01   0.18
  11   6     0.07  -0.03  -0.08     0.04  -0.02   0.17     0.02  -0.00  -0.11
  12   6    -0.03  -0.05  -0.10    -0.02  -0.04   0.18    -0.00  -0.01  -0.19
  13   6    -0.02   0.11   0.08    -0.01   0.08  -0.17    -0.00   0.02   0.19
  14   1    -0.06   0.17  -0.12    -0.04   0.13  -0.10    -0.02   0.05  -0.04
  15   1     0.02  -0.08   0.25     0.02  -0.06   0.18    -0.00  -0.01   0.05
  16   1     0.02  -0.03   0.19     0.02  -0.02   0.13     0.01  -0.02   0.06
  17   1    -0.03   0.04   0.12    -0.02   0.03   0.08    -0.01   0.01   0.01
  18   1     0.09  -0.22  -0.24     0.06  -0.15  -0.16     0.02  -0.04  -0.04
  19   1    -0.02  -0.06   0.12    -0.01  -0.04   0.08    -0.01  -0.01   0.03
  20   1    -0.05   0.01   0.24    -0.04   0.01   0.17    -0.01   0.00   0.05
  21   1     0.01   0.04  -0.30     0.00   0.02   0.31    -0.01   0.00   0.44
  22   1    -0.03  -0.05   0.29    -0.01  -0.02  -0.24    -0.00  -0.00  -0.48
  23   1     0.02  -0.03  -0.01     0.01  -0.02   0.01     0.01  -0.00  -0.06
  24   1    -0.03   0.02  -0.14    -0.02   0.00   0.30    -0.00   0.01  -0.26
  25   1     0.01  -0.02   0.14     0.01  -0.01  -0.30     0.00  -0.01   0.17
  26   1    -0.00  -0.03   0.18     0.01  -0.01  -0.31    -0.00  -0.01   0.32
  27   1     0.02   0.04  -0.12     0.01   0.02   0.26     0.01   0.01  -0.29
                     31                     32                     33
                        a                      a                      a 
 Frequencies --   923.3277               924.2581               956.1837
 Red. masses --     3.7969                 4.7881                 7.7579
 Frc consts  --     0.0000                 0.0000                 0.0000
 IR Inten    --     8.8426                31.0807                 2.7103
 Raman Activ --     0.0000                 0.0000                 0.0000
 Depolar     --     0.0000                 0.0000                 0.0000
 Atom AN      X      Y      Z        X      Y      Z        X      Y      Z
   1   7     0.14   0.02  -0.04     0.27   0.06  -0.09    -0.11   0.08  -0.15
   2   6    -0.01  -0.07  -0.02    -0.01  -0.16  -0.02     0.20  -0.09   0.18
   3   6    -0.07  -0.00   0.09    -0.13  -0.02   0.19     0.25  -0.07   0.00
   4   6    -0.06   0.01  -0.05    -0.11   0.02  -0.09    -0.23  -0.00   0.04
   5   6     0.04   0.09  -0.01     0.07   0.17   0.05     0.15   0.37   0.01
   6   6    -0.00  -0.05   0.01    -0.01  -0.08  -0.01    -0.02  -0.11  -0.01
   7   6     0.01  -0.08   0.01     0.01  -0.14  -0.01    -0.12  -0.33  -0.01
   8   6     0.02   0.00  -0.08     0.03   0.00   0.05    -0.05   0.02   0.00
   9   6    -0.02  -0.02   0.07    -0.04  -0.04  -0.04    -0.04  -0.09  -0.00
  10   6    -0.02   0.05   0.11    -0.04   0.09  -0.06    -0.04   0.07   0.00
  11   6     0.05  -0.01  -0.28     0.07  -0.03   0.15     0.07  -0.04   0.00
  12   6    -0.02  -0.03   0.25    -0.02  -0.05  -0.12     0.04  -0.01  -0.00
  13   6    -0.01   0.07  -0.07    -0.01   0.12   0.03     0.00   0.19   0.01
  14   1    -0.09   0.04  -0.08    -0.17   0.05  -0.13     0.02   0.06  -0.04
  15   1    -0.10   0.07  -0.09    -0.19   0.15  -0.21     0.05  -0.02   0.04
  16   1     0.01  -0.14   0.19     0.01  -0.28   0.35    -0.01   0.11  -0.12
  17   1    -0.01  -0.01  -0.08    -0.01  -0.02  -0.17     0.03  -0.02   0.13
  18   1     0.01   0.05   0.06     0.00   0.13   0.14    -0.16   0.06   0.12
  19   1    -0.01   0.07   0.08    -0.01   0.14   0.14     0.04  -0.17  -0.38
  20   1     0.04  -0.02  -0.07     0.09  -0.03  -0.17    -0.14   0.07   0.07
  21   1     0.00   0.03   0.03     0.01   0.06  -0.06     0.03   0.11   0.00
  22   1    -0.04  -0.02  -0.04    -0.08  -0.04   0.00    -0.19  -0.09   0.01
  23   1     0.01  -0.02   0.00     0.01  -0.04   0.03    -0.08  -0.11  -0.01
  24   1    -0.01   0.01  -0.25    -0.03   0.02   0.13    -0.02   0.01  -0.00
  25   1     0.00  -0.02   0.54     0.02  -0.02  -0.28     0.01  -0.05  -0.00
  26   1     0.01  -0.01  -0.48     0.00  -0.03   0.23     0.05  -0.04   0.00
  27   1     0.01   0.02   0.19     0.02   0.04  -0.08     0.04   0.07   0.00
                     34                     35                     36
                        a                      a                      a 
 Frequencies --  1067.1239              1082.3905              1088.7215
 Red. masses --     7.2095                 6.3225                 5.9544
 Frc consts  --     0.0000                 0.0000                 0.0000
 IR Inten    --    37.9907                59.8204                10.1855
 Raman Activ --     0.0000                 0.0000                 0.0000
 Depolar     --     0.0000                 0.0000                 0.0000
 Atom AN      X      Y      Z        X      Y      Z        X      Y      Z
   1   7     0.12   0.18  -0.15     0.07  -0.12   0.09     0.05  -0.04   0.03
   2   6    -0.21  -0.23   0.45    -0.17   0.08  -0.38    -0.12   0.01  -0.15
   3   6     0.14   0.01  -0.27     0.22  -0.03   0.24     0.12  -0.00   0.09
   4   6    -0.07   0.01  -0.05    -0.13   0.03   0.07    -0.05   0.03   0.03
   5   6    -0.06  -0.10   0.01    -0.07  -0.10  -0.01    -0.02  -0.08  -0.01
   6   6     0.03   0.01   0.01     0.06  -0.02  -0.01     0.03  -0.02  -0.00
   7   6     0.10   0.18   0.01     0.05   0.12  -0.01     0.03   0.10  -0.00
   8   6     0.08  -0.04   0.01     0.05  -0.00  -0.01     0.02  -0.10  -0.00
   9   6     0.00  -0.00  -0.00     0.03  -0.01   0.00    -0.05   0.06   0.00
  10   6    -0.00   0.07  -0.00     0.03   0.13   0.00    -0.06  -0.21  -0.00
  11   6    -0.04   0.01  -0.00    -0.17   0.07  -0.00     0.31  -0.17   0.00
  12   6    -0.06  -0.06  -0.00    -0.10  -0.17  -0.01     0.14   0.31   0.01
  13   6     0.03  -0.01  -0.00     0.10  -0.06   0.00    -0.17   0.15   0.00
  14   1    -0.10   0.03  -0.07    -0.02  -0.00  -0.00    -0.02  -0.00  -0.01
  15   1    -0.13   0.12  -0.15    -0.01  -0.02   0.03    -0.02   0.00  -0.00
  16   1     0.00  -0.11   0.14     0.01  -0.07   0.08     0.00  -0.05   0.05
  17   1    -0.29   0.06   0.25    -0.17   0.08  -0.09    -0.12   0.05  -0.02
  18   1     0.01  -0.16  -0.18    -0.21   0.15   0.25    -0.10   0.05   0.10
  19   1     0.01  -0.17  -0.12     0.03  -0.11  -0.33     0.01  -0.07  -0.17
  20   1    -0.07   0.01   0.14    -0.16   0.11   0.05    -0.09   0.06   0.05
  21   1     0.00  -0.04  -0.01    -0.00  -0.04   0.01    -0.01  -0.02   0.00
  22   1     0.11   0.03  -0.00     0.14   0.03   0.01     0.11   0.03   0.00
  23   1     0.19   0.10  -0.00     0.19   0.09   0.03     0.14   0.07   0.01
  24   1     0.03   0.03   0.00     0.18   0.10   0.00    -0.38  -0.18  -0.01
  25   1    -0.01   0.02   0.00    -0.04   0.09   0.00     0.07  -0.16  -0.00
  26   1    -0.00  -0.03  -0.00     0.03  -0.10  -0.00    -0.04   0.17   0.00
  27   1     0.03   0.00  -0.00     0.20   0.04   0.01    -0.42  -0.07  -0.01
                     37                     38                     39
                        a                      a                      a 
 Frequencies --  1136.0378              1138.1735              1167.0998
 Red. masses --     6.8578                 5.4782                 2.1934
 Frc consts  --     0.0000                 0.0000                 0.0000
 IR Inten    --    13.2525                 4.5441                 0.2745
 Raman Activ --     0.0000                 0.0000                 0.0000
 Depolar     --     0.0000                 0.0000                 0.0000
 Atom AN      X      Y      Z        X      Y      Z        X      Y      Z
   1   7     0.02  -0.11  -0.09     0.01   0.05   0.04     0.01  -0.02  -0.01
   2   6     0.03   0.36   0.27    -0.09  -0.19  -0.12    -0.00   0.10   0.04
   3   6    -0.01  -0.29  -0.12     0.03   0.13   0.05     0.01  -0.06  -0.01
   4   6    -0.21   0.13  -0.04     0.14  -0.05   0.02    -0.07  -0.04  -0.01
   5   6    -0.09  -0.04   0.01     0.04   0.13  -0.00     0.10  -0.10  -0.00
   6   6     0.11  -0.18   0.00    -0.02  -0.10  -0.00    -0.08   0.06   0.00
   7   6    -0.02  -0.13  -0.00     0.12  -0.15  -0.00     0.03   0.13   0.00
   8   6    -0.07   0.06   0.00     0.04   0.21   0.00     0.02   0.02   0.00
   9   6    -0.05   0.16   0.00    -0.10   0.16   0.00     0.00  -0.10  -0.00
  10   6     0.04  -0.14  -0.00     0.01  -0.23  -0.00    -0.09  -0.06  -0.00
  11   6    -0.01   0.03   0.00     0.00   0.09   0.00     0.04   0.06   0.00
  12   6    -0.00   0.06   0.00    -0.09   0.05  -0.00    -0.05   0.03  -0.00
  13   6     0.06  -0.08  -0.00     0.15  -0.24  -0.00     0.06  -0.00   0.00
  14   1    -0.03   0.12  -0.11    -0.00  -0.05   0.04    -0.00   0.02  -0.02
  15   1     0.02  -0.04   0.13    -0.02   0.03  -0.07     0.01  -0.01   0.03
  16   1     0.01   0.04   0.06    -0.00  -0.03  -0.01     0.00  -0.00   0.02
  17   1     0.11   0.04   0.07    -0.14   0.01  -0.02     0.05  -0.00   0.02
  18   1     0.01   0.11   0.10    -0.02  -0.05  -0.04    -0.00   0.02   0.02
  19   1     0.03   0.08  -0.05    -0.01  -0.06  -0.01     0.01   0.01  -0.02
  20   1     0.12  -0.09  -0.31    -0.07   0.05   0.15     0.02  -0.01  -0.06
  21   1    -0.15   0.09  -0.01    -0.20   0.23   0.00     0.45  -0.40   0.00
  22   1     0.31   0.04   0.00    -0.03  -0.03   0.00    -0.45  -0.12  -0.01
  23   1     0.22   0.04   0.01    -0.15  -0.10  -0.01     0.19   0.10   0.01
  24   1    -0.07  -0.07  -0.00    -0.19  -0.13  -0.01    -0.25  -0.09  -0.01
  25   1     0.03   0.17   0.00     0.08   0.38   0.01     0.04   0.13   0.00
  26   1    -0.09   0.09   0.00    -0.30   0.26  -0.00    -0.20   0.18   0.00
  27   1     0.14   0.02   0.00     0.20  -0.02   0.00     0.29   0.08   0.01
                     40                     41                     42
                        a                      a                      a 
 Frequencies --  1176.6789              1184.0458              1220.5936
 Red. masses --     1.8881                 5.1808                 3.9110
 Frc consts  --     0.0000                 0.0000                 0.0000
 IR Inten    --     1.6854                18.8756                 2.4579
 Raman Activ --     0.0000                 0.0000                 0.0000
 Depolar     --     0.0000                 0.0000                 0.0000
 Atom AN      X      Y      Z        X      Y      Z        X      Y      Z
   1   7     0.01  -0.02  -0.01     0.05  -0.11  -0.03     0.03   0.03   0.00
   2   6    -0.05   0.06   0.03    -0.25   0.27   0.11    -0.03  -0.04   0.01
   3   6     0.02  -0.05  -0.02     0.06  -0.23  -0.07     0.05   0.05   0.01
   4   6     0.02   0.03  -0.00     0.22  -0.05  -0.00    -0.19   0.19  -0.00
   5   6     0.03  -0.04  -0.00     0.06   0.01  -0.00    -0.01   0.07   0.00
   6   6    -0.04  -0.03  -0.00    -0.03   0.05   0.00    -0.07  -0.05  -0.00
   7   6    -0.04   0.03   0.00     0.08   0.08   0.01     0.05   0.01   0.00
   8   6     0.10  -0.05   0.00     0.20   0.14   0.01     0.17   0.08   0.00
   9   6     0.04   0.08   0.00     0.07  -0.04  -0.00    -0.29  -0.10  -0.01
  10   6    -0.01   0.06   0.00    -0.04   0.04  -0.00    -0.06  -0.10  -0.00
  11   6    -0.03   0.11   0.00    -0.02  -0.01  -0.00     0.10  -0.04   0.00
  12   6     0.03  -0.12  -0.00    -0.04  -0.07  -0.00    -0.02  -0.06  -0.00
  13   6     0.03  -0.06  -0.00    -0.02  -0.09  -0.00     0.07  -0.00   0.00
  14   1    -0.01   0.02  -0.02    -0.04   0.09  -0.09    -0.01  -0.01   0.00
  15   1    -0.01  -0.00   0.02    -0.03  -0.01   0.08    -0.01   0.02  -0.03
  16   1     0.00   0.00   0.02     0.01   0.02   0.08     0.01  -0.01   0.00
  17   1    -0.02   0.02   0.02    -0.23   0.16   0.10     0.25  -0.15  -0.03
  18   1    -0.01   0.02   0.02    -0.04   0.10   0.11    -0.01  -0.02  -0.02
  19   1     0.01   0.01  -0.03     0.03   0.03  -0.11     0.00  -0.03  -0.02
  20   1     0.00  -0.01  -0.04     0.02  -0.03  -0.19    -0.02   0.02   0.06
  21   1     0.03  -0.03  -0.00     0.00   0.02   0.00     0.35  -0.30   0.00
  22   1    -0.13  -0.05  -0.00    -0.20  -0.04  -0.00     0.37   0.11   0.01
  23   1    -0.13  -0.03  -0.01    -0.48  -0.14  -0.03    -0.27  -0.09  -0.01
  24   1    -0.31  -0.08  -0.01     0.12   0.06   0.00     0.27   0.06   0.01
  25   1     0.10   0.57   0.01    -0.05  -0.19  -0.00     0.08   0.21   0.01
  26   1     0.41  -0.40  -0.00    -0.16   0.12  -0.00    -0.13   0.09  -0.00
  27   1    -0.30  -0.12  -0.01    -0.18  -0.08  -0.00    -0.21  -0.08  -0.01
                     43                     44                     45
                        a                      a                      a 
 Frequencies --  1242.0731              1253.0794              1301.1765
 Red. masses --     8.7025                 4.6786                 3.6406
 Frc consts  --     0.0000                 0.0000                 0.0000
 IR Inten    --     0.0802                 6.1737                10.8411
 Raman Activ --     0.0000                 0.0000                 0.0000
 Depolar     --     0.0000                 0.0000                 0.0000
 Atom AN      X      Y      Z        X      Y      Z        X      Y      Z
   1   7    -0.03  -0.04   0.00     0.01  -0.02   0.01     0.02   0.18   0.01
   2   6     0.02   0.07  -0.02    -0.03   0.02   0.00     0.12  -0.05  -0.34
   3   6    -0.05  -0.08  -0.01     0.00  -0.03  -0.01    -0.11  -0.12   0.03
   4   6     0.21  -0.31   0.01     0.08   0.01   0.00    -0.04   0.05   0.03
   5   6     0.10   0.19   0.00    -0.05   0.08  -0.00     0.03  -0.01  -0.01
   6   6    -0.00   0.20   0.00     0.00   0.15   0.00    -0.06  -0.02  -0.00
   7   6     0.16   0.01   0.00    -0.01   0.09   0.00    -0.08  -0.02   0.00
   8   6    -0.31  -0.08  -0.01     0.01  -0.35  -0.01     0.08   0.01  -0.00
   9   6    -0.48  -0.12  -0.01     0.03  -0.34  -0.01     0.05  -0.00   0.00
  10   6     0.07  -0.08  -0.00    -0.03   0.09   0.00    -0.06  -0.02  -0.00
  11   6     0.12  -0.16  -0.00     0.04   0.04   0.00     0.01   0.04   0.00
  12   6    -0.01   0.13   0.00    -0.06   0.09   0.00     0.04  -0.05  -0.00
  13   6     0.08   0.10   0.00    -0.01   0.13   0.00    -0.03   0.00  -0.00
  14   1     0.01   0.01  -0.01    -0.00   0.02  -0.01    -0.01  -0.10   0.07
  15   1     0.01  -0.02   0.03    -0.01   0.00   0.00     0.06   0.02  -0.02
  16   1    -0.00   0.02  -0.01     0.00   0.02  -0.00    -0.01  -0.13   0.00
  17   1    -0.28   0.17   0.07    -0.05   0.03   0.02    -0.06  -0.06   0.82
  18   1     0.01   0.04   0.03    -0.00   0.02   0.02     0.02   0.08   0.08
  19   1    -0.00   0.05   0.03     0.00   0.02   0.00    -0.00   0.11   0.10
  20   1     0.03  -0.03  -0.08    -0.00  -0.00  -0.01     0.02  -0.04  -0.07
  21   1     0.07   0.02   0.00     0.01   0.00   0.00     0.01  -0.01   0.01
  22   1     0.00   0.06   0.00     0.37   0.15   0.01     0.05   0.02   0.00
  23   1     0.16   0.03   0.01    -0.37  -0.10  -0.02     0.03   0.01   0.00
  24   1     0.26   0.05   0.00    -0.38  -0.10  -0.01     0.01   0.00  -0.00
  25   1     0.09   0.22   0.01     0.01   0.00   0.00     0.00   0.01  -0.00
  26   1     0.10  -0.05   0.00     0.05  -0.04   0.00    -0.03   0.02   0.00
  27   1    -0.02   0.02  -0.00     0.41   0.16   0.01    -0.01   0.00   0.00
                     46                     47                     48
                        a                      a                      a 
 Frequencies --  1312.3928              1321.7284              1350.6968
 Red. masses --     7.8368                 9.8247                 5.7503
 Frc consts  --     0.0000                 0.0000                 0.0000
 IR Inten    --    12.9082                12.0342                58.2610
 Raman Activ --     0.0000                 0.0000                 0.0000
 Depolar     --     0.0000                 0.0000                 0.0000
 Atom AN      X      Y      Z        X      Y      Z        X      Y      Z
   1   7    -0.08  -0.08   0.02     0.06   0.02  -0.02    -0.00  -0.12   0.16
   2   6     0.29  -0.04   0.04    -0.31   0.06   0.04     0.22  -0.10  -0.03
   3   6    -0.08   0.01  -0.00     0.09   0.00  -0.01    -0.07  -0.00   0.02
   4   6    -0.10  -0.02  -0.00     0.34   0.17   0.00    -0.02   0.18   0.01
   5   6     0.21  -0.06   0.00     0.26  -0.12   0.00    -0.09   0.09  -0.00
   6   6    -0.18   0.10  -0.00    -0.29   0.05  -0.00    -0.10  -0.19  -0.01
   7   6    -0.33   0.05  -0.01    -0.12  -0.19  -0.01     0.16  -0.10  -0.00
   8   6     0.33  -0.05   0.00    -0.04   0.01  -0.00    -0.06   0.22   0.00
   9   6     0.11  -0.14  -0.00    -0.01   0.06   0.00     0.01   0.12   0.00
  10   6    -0.29  -0.03  -0.00    -0.20  -0.21  -0.01     0.09  -0.11  -0.00
  11   6     0.06   0.08   0.00     0.17   0.18   0.01     0.04   0.18   0.00
  12   6     0.13  -0.19  -0.00     0.21   0.00   0.00    -0.01   0.05   0.00
  13   6    -0.03   0.10   0.00    -0.37  -0.03  -0.01    -0.19  -0.18  -0.01
  14   1     0.06   0.06  -0.01    -0.06  -0.04  -0.01    -0.07   0.20  -0.12
  15   1     0.03  -0.04  -0.01    -0.04   0.03   0.03    -0.06   0.03  -0.20
  16   1    -0.00   0.07  -0.04     0.01  -0.04   0.03     0.03   0.13  -0.23
  17   1    -0.33   0.23  -0.18     0.14  -0.10  -0.00    -0.37   0.21  -0.02
  18   1     0.05   0.01  -0.02    -0.05  -0.02   0.00     0.05   0.01  -0.01
  19   1    -0.01   0.02   0.05     0.01  -0.04  -0.06    -0.01   0.02   0.03
  20   1     0.05  -0.03  -0.01    -0.05   0.03   0.00     0.04  -0.03  -0.02
  21   1    -0.08   0.11  -0.00     0.01   0.03  -0.00     0.23  -0.20   0.00
  22   1     0.12   0.08   0.00     0.03   0.05   0.00     0.12  -0.01   0.00
  23   1     0.13   0.09   0.01     0.10  -0.02   0.00    -0.03  -0.05   0.00
  24   1     0.09   0.05   0.00     0.19   0.02   0.00    -0.04  -0.05  -0.00
  25   1     0.05   0.17   0.00     0.04   0.01   0.00    -0.04  -0.19  -0.00
  26   1    -0.17   0.14  -0.00     0.16  -0.08   0.00     0.17  -0.15   0.00
  27   1    -0.07   0.00  -0.00     0.23   0.10   0.01     0.10  -0.00   0.00
                     49                     50                     51
                        a                      a                      a 
 Frequencies --  1359.4781              1388.2961              1394.8148
 Red. masses --     3.4531                 2.1568                 3.6348
 Frc consts  --     0.0000                 0.0000                 0.0000
 IR Inten    --   296.9013               106.2862                82.7119
 Raman Activ --     0.0000                 0.0000                 0.0000
 Depolar     --     0.0000                 0.0000                 0.0000
 Atom AN      X      Y      Z        X      Y      Z        X      Y      Z
   1   7     0.15  -0.11   0.28     0.01   0.19   0.03    -0.16   0.02   0.08
   2   6    -0.10   0.05  -0.04     0.02   0.03   0.07    -0.05   0.01   0.02
   3   6     0.01   0.01   0.04    -0.01  -0.00   0.01     0.02  -0.01   0.02
   4   6     0.01  -0.05   0.00    -0.01  -0.06  -0.01     0.03   0.10  -0.00
   5   6     0.04  -0.07  -0.00    -0.04   0.05   0.00     0.10  -0.08  -0.00
   6   6     0.05   0.07   0.00     0.03   0.01   0.00    -0.09  -0.03  -0.00
   7   6    -0.08   0.03  -0.00     0.04   0.01   0.00    -0.07  -0.00   0.00
   8   6     0.01  -0.13  -0.00    -0.02   0.13   0.00     0.08  -0.22  -0.00
   9   6    -0.01  -0.01  -0.00     0.03  -0.12  -0.00    -0.10   0.23   0.00
  10   6    -0.04   0.05   0.00    -0.03  -0.00  -0.00     0.10  -0.00   0.00
  11   6    -0.02  -0.10  -0.00     0.01   0.06   0.00    -0.01  -0.09  -0.00
  12   6     0.01  -0.01  -0.00     0.02  -0.04  -0.00    -0.09   0.08  -0.00
  13   6     0.09   0.09   0.00    -0.04  -0.03  -0.00     0.07   0.03   0.00
  14   1    -0.36   0.28  -0.26    -0.41  -0.10  -0.09     0.30   0.40  -0.07
  15   1    -0.17   0.11  -0.32     0.38  -0.18   0.24     0.46  -0.19  -0.38
  16   1     0.06   0.11  -0.49    -0.06  -0.59  -0.32    -0.06  -0.29   0.12
  17   1     0.19  -0.12   0.12    -0.04   0.05  -0.13     0.00  -0.01   0.00
  18   1     0.02  -0.04  -0.03     0.04  -0.03  -0.03    -0.00  -0.04  -0.03
  19   1     0.00  -0.01  -0.07     0.01   0.03  -0.04     0.01   0.02  -0.03
  20   1     0.00   0.01  -0.05    -0.01   0.01  -0.02    -0.03   0.02  -0.04
  21   1    -0.10   0.08  -0.00     0.01  -0.00  -0.00     0.00   0.00   0.00
  22   1    -0.08  -0.01  -0.00     0.05   0.02   0.00    -0.06  -0.02  -0.00
  23   1     0.03   0.03   0.00     0.01   0.00  -0.01    -0.06  -0.02  -0.01
  24   1     0.04   0.03   0.00    -0.04  -0.01  -0.00     0.05   0.01   0.00
  25   1     0.02   0.09   0.00    -0.00  -0.01  -0.00    -0.00  -0.03  -0.00
  26   1    -0.08   0.07   0.00     0.01  -0.01   0.00     0.01  -0.01   0.00
  27   1    -0.03   0.01  -0.00    -0.03  -0.01  -0.00     0.06   0.02   0.00
                     52                     53                     54
                        a                      a                      a 
 Frequencies --  1395.7507              1420.5129              1426.6296
 Red. masses --     8.9208                 8.1236                 3.5802
 Frc consts  --     0.0000                 0.0000                 0.0000
 IR Inten    --    37.3558                 3.8603                 4.3893
 Raman Activ --     0.0000                 0.0000                 0.0000
 Depolar     --     0.0000                 0.0000                 0.0000
 Atom AN      X      Y      Z        X      Y      Z        X      Y      Z
   1   7    -0.07  -0.03   0.05    -0.00   0.01   0.00    -0.00   0.02  -0.04
   2   6    -0.08   0.02  -0.01     0.09  -0.07   0.01     0.05  -0.04  -0.05
   3   6     0.02   0.01   0.02     0.02  -0.05  -0.12    -0.13   0.14   0.35
   4   6    -0.04  -0.18  -0.00    -0.07   0.27   0.00    -0.04   0.09   0.01
   5   6    -0.16   0.08  -0.00    -0.21  -0.12  -0.00    -0.05  -0.05  -0.00
   6   6     0.22   0.11   0.01     0.31  -0.02   0.00     0.10  -0.00   0.00
   7   6     0.19   0.03   0.01     0.18  -0.01   0.00     0.07   0.01   0.00
   8   6    -0.17   0.38   0.00    -0.16  -0.21  -0.01    -0.02  -0.08  -0.00
   9   6     0.16  -0.42  -0.01     0.15   0.14   0.00     0.02   0.06   0.00
  10   6    -0.24  -0.02  -0.00    -0.27   0.01  -0.00    -0.08  -0.01  -0.00
  11   6     0.05   0.13   0.00     0.01  -0.25  -0.00     0.02  -0.08  -0.00
  12   6     0.18  -0.11   0.00     0.23   0.07   0.00     0.05   0.04   0.00
  13   6    -0.18  -0.06  -0.00    -0.20   0.09  -0.00    -0.07   0.01  -0.00
  14   1     0.24   0.24  -0.03    -0.04  -0.02  -0.00     0.02  -0.08   0.04
  15   1     0.13  -0.04  -0.28     0.02  -0.02   0.03    -0.02   0.01   0.08
  16   1    -0.02  -0.00   0.12    -0.00  -0.04  -0.03    -0.00   0.01   0.06
  17   1     0.13  -0.08   0.05    -0.13   0.07  -0.03    -0.06   0.02   0.05
  18   1    -0.01  -0.04  -0.02    -0.05   0.12   0.10     0.25  -0.33  -0.29
  19   1     0.00  -0.01  -0.03     0.01   0.05   0.15    -0.04  -0.12  -0.47
  20   1    -0.01   0.01  -0.04    -0.05  -0.00   0.15     0.21  -0.03  -0.41
  21   1    -0.06   0.04   0.00    -0.03  -0.06  -0.00    -0.02  -0.01   0.00
  22   1     0.04   0.02   0.00    -0.17  -0.09  -0.00    -0.06  -0.03  -0.00
  23   1     0.07   0.02  -0.00    -0.18  -0.08  -0.01    -0.10  -0.03   0.00
  24   1    -0.04  -0.00  -0.00     0.21   0.10   0.01     0.08   0.03   0.00
  25   1     0.02   0.09   0.00     0.08   0.26   0.01     0.03   0.07   0.00
  26   1     0.01   0.01   0.00    -0.02   0.10   0.00     0.01   0.01   0.00
  27   1    -0.07  -0.02  -0.00     0.12   0.08   0.00     0.06   0.03   0.00
                     55                     56                     57
                        a                      a                      a 
 Frequencies --  1445.3918              1479.7001              1485.9047
 Red. masses --     9.3308                 1.5497                 1.6586
 Frc consts  --     0.0000                 0.0000                 0.0000
 IR Inten    --     0.3623                 8.7699                 9.3531
 Raman Activ --     0.0000                 0.0000                 0.0000
 Depolar     --     0.0000                 0.0000                 0.0000
 Atom AN      X      Y      Z        X      Y      Z        X      Y      Z
   1   7    -0.01  -0.00  -0.01    -0.00   0.01   0.01     0.00   0.00  -0.01
   2   6    -0.09  -0.01   0.01    -0.00   0.04  -0.03     0.09  -0.01   0.01
   3   6     0.02   0.01   0.03     0.00   0.21  -0.05     0.19   0.01   0.06
   4   6     0.38   0.14   0.01     0.01   0.01   0.00    -0.05  -0.01  -0.00
   5   6    -0.11   0.13  -0.00     0.00  -0.00  -0.00    -0.02   0.01   0.00
   6   6    -0.18  -0.13  -0.00     0.00   0.00   0.00     0.03  -0.00   0.00
   7   6    -0.11  -0.21  -0.01     0.00  -0.00  -0.00    -0.01   0.02   0.00
   8   6    -0.34  -0.02  -0.01    -0.01  -0.00  -0.00     0.05  -0.00   0.00
   9   6     0.25  -0.01   0.00    -0.00  -0.01   0.00    -0.01   0.01   0.00
  10   6     0.14   0.19   0.01     0.01   0.01   0.00    -0.03  -0.01  -0.00
  11   6    -0.24  -0.12  -0.01    -0.00  -0.01  -0.00     0.02  -0.00   0.00
  12   6     0.22  -0.20  -0.00     0.00   0.00   0.00    -0.02   0.03  -0.00
  13   6     0.13   0.19   0.01     0.00   0.00  -0.00    -0.01  -0.02  -0.00
  14   1     0.03   0.02  -0.00    -0.02   0.01  -0.01    -0.02  -0.03   0.01
  15   1     0.01  -0.01  -0.02     0.04  -0.02  -0.00    -0.03   0.01   0.04
  16   1    -0.00  -0.01   0.03    -0.00  -0.05  -0.02     0.00   0.02  -0.02
  17   1    -0.09   0.04  -0.00    -0.01   0.01   0.04    -0.03   0.03   0.00
  18   1    -0.03  -0.06  -0.03    -0.39   0.03   0.12    -0.50  -0.39  -0.14
  19   1     0.00   0.00  -0.02    -0.11  -0.67   0.22     0.03   0.11   0.34
  20   1    -0.03   0.03  -0.07     0.47  -0.21  -0.12    -0.34   0.26  -0.45
  21   1     0.18  -0.15   0.00     0.00  -0.00   0.00    -0.01   0.00   0.00
  22   1     0.16   0.03   0.00    -0.00   0.00  -0.00    -0.01  -0.01   0.00
  23   1     0.11  -0.02   0.00    -0.02  -0.01   0.01    -0.01   0.00  -0.00
  24   1    -0.11   0.01  -0.00    -0.00   0.00  -0.00     0.02   0.00   0.00
  25   1    -0.04   0.11   0.00    -0.00   0.00  -0.00     0.01  -0.00   0.00
  26   1    -0.19   0.17   0.00    -0.00   0.00  -0.00     0.02  -0.01  -0.00
  27   1    -0.18  -0.01  -0.00    -0.00   0.00   0.00     0.02   0.00  -0.00
                     58                     59                     60
                        a                      a                      a 
 Frequencies --  1530.7569              1557.4578              1570.0871
 Red. masses --    10.9588                11.5744                11.3525
 Frc consts  --     0.0000                 0.0000                 0.0000
 IR Inten    --     0.6634                 0.1132                 0.2766
 Raman Activ --     0.0000                 0.0000                 0.0000
 Depolar     --     0.0000                 0.0000                 0.0000
 Atom AN      X      Y      Z        X      Y      Z        X      Y      Z
   1   7     0.01  -0.00   0.00     0.00  -0.00   0.00    -0.00   0.00  -0.00
   2   6     0.05  -0.05  -0.01     0.00  -0.03  -0.00    -0.05  -0.01   0.00
   3   6     0.01  -0.00   0.00     0.00  -0.00   0.00    -0.00   0.00   0.00
   4   6    -0.08   0.45   0.01     0.08   0.31   0.01     0.30   0.07   0.01
   5   6     0.18  -0.37  -0.00     0.11  -0.19  -0.00    -0.37   0.16  -0.00
   6   6     0.15   0.23   0.01    -0.05   0.09   0.00     0.36  -0.01   0.01
   7   6     0.09  -0.13  -0.00    -0.15  -0.18  -0.01    -0.33  -0.13  -0.01
   8   6    -0.25  -0.01  -0.00    -0.00   0.33   0.01     0.08  -0.12  -0.00
   9   6    -0.29  -0.20  -0.01     0.15  -0.31  -0.00     0.00   0.02   0.00
  10   6     0.14  -0.08   0.00    -0.07   0.15   0.00    -0.30  -0.20  -0.01
  11   6    -0.01   0.31   0.01     0.05  -0.42  -0.01     0.21   0.27   0.01
  12   6     0.04  -0.23  -0.00    -0.32   0.39   0.00    -0.25   0.00  -0.00
  13   6     0.18   0.13   0.01     0.15  -0.16  -0.00     0.30   0.04   0.01
  14   1    -0.00  -0.01   0.00     0.00   0.00   0.00     0.00   0.01  -0.00
  15   1     0.00  -0.00   0.01    -0.00   0.00  -0.00     0.00   0.00  -0.01
  16   1     0.00  -0.00   0.00     0.00  -0.00   0.00    -0.00  -0.00   0.01
  17   1    -0.08   0.04  -0.00    -0.06   0.03  -0.00    -0.03   0.01   0.00
  18   1    -0.01  -0.01  -0.00     0.01   0.00  -0.00     0.01   0.01   0.00
  19   1     0.00   0.01   0.01     0.00   0.00  -0.00    -0.00  -0.01  -0.02
  20   1    -0.01   0.01  -0.01    -0.00   0.00   0.01     0.01  -0.01   0.01
  21   1    -0.12   0.05  -0.00    -0.03   0.01  -0.00     0.07  -0.10  -0.00
  22   1    -0.13   0.01  -0.00     0.01   0.03   0.00    -0.05  -0.05  -0.00
  23   1    -0.06  -0.06  -0.00     0.07  -0.01   0.00     0.09   0.02   0.00
  24   1    -0.09  -0.07  -0.00     0.01   0.05   0.00     0.08  -0.01   0.00
  25   1    -0.05  -0.11  -0.00     0.05   0.07   0.00     0.02  -0.10  -0.00
  26   1    -0.07   0.01  -0.00     0.10  -0.07   0.00     0.03  -0.08  -0.00
  27   1    -0.12  -0.02  -0.00     0.02  -0.05  -0.00    -0.05  -0.04  -0.00
                     61                     62                     63
                        a                      a                      a 
 Frequencies --  1590.1343              2898.1085              3021.5283
 Red. masses --    11.5399                 1.7605                 1.9038
 Frc consts  --     0.0000                 0.0000                 0.0000
 IR Inten    --     0.2266                10.0773                39.2273
 Raman Activ --     0.0000                 0.0000                 0.0000
 Depolar     --     0.0000                 0.0000                 0.0000
 Atom AN      X      Y      Z        X      Y      Z        X      Y      Z
   1   7     0.00   0.00  -0.00    -0.00   0.00  -0.00     0.00  -0.00  -0.00
   2   6    -0.01  -0.01   0.00     0.13   0.23   0.03    -0.01  -0.00  -0.00
   3   6    -0.00   0.00   0.00    -0.01  -0.01   0.00    -0.28   0.00  -0.05
   4   6     0.16   0.09   0.00     0.01   0.01   0.00     0.00   0.00   0.00
   5   6    -0.18   0.05  -0.00    -0.00  -0.00  -0.00     0.00   0.00   0.00
   6   6     0.31   0.08   0.01     0.00   0.00  -0.00    -0.00   0.00   0.00
   7   6    -0.30  -0.10  -0.01    -0.00  -0.00   0.00    -0.00   0.00   0.00
   8   6     0.38   0.11   0.01    -0.00   0.00  -0.00     0.00  -0.00  -0.00
   9   6    -0.38  -0.11  -0.01    -0.00  -0.00  -0.00     0.00   0.00   0.00
  10   6     0.34   0.13   0.01     0.00   0.00   0.00    -0.00   0.00   0.00
  11   6    -0.16  -0.14  -0.01    -0.00  -0.00   0.00    -0.00   0.00   0.00
  12   6     0.22  -0.04   0.00    -0.00   0.00   0.00    -0.00  -0.00   0.00
  13   6    -0.36  -0.09  -0.01     0.00   0.00   0.00    -0.00   0.00  -0.00
  14   1     0.00   0.00  -0.00    -0.00   0.00  -0.00    -0.00   0.00   0.00
  15   1    -0.00   0.00  -0.01     0.01   0.02   0.00    -0.00   0.00  -0.00
  16   1     0.00   0.00   0.00     0.00  -0.00  -0.00    -0.00   0.00   0.00
  17   1    -0.02   0.01   0.00    -0.47  -0.84  -0.09     0.01   0.02   0.00
  18   1     0.01   0.00   0.00    -0.01   0.01  -0.01     0.01  -0.12   0.15
  19   1    -0.00   0.00  -0.01     0.01  -0.00   0.00     0.89  -0.14   0.00
  20   1    -0.00  -0.00   0.01     0.02   0.04   0.01     0.09   0.25   0.03
  21   1     0.01  -0.04  -0.00     0.01   0.00   0.00    -0.00  -0.00   0.00
  22   1    -0.08  -0.03  -0.00     0.00  -0.00   0.00     0.00  -0.00  -0.00
  23   1     0.09   0.03   0.00    -0.00   0.00  -0.00     0.00  -0.00  -0.00
  24   1    -0.09  -0.03  -0.00     0.00   0.00   0.00     0.00  -0.00   0.00
  25   1    -0.02   0.05   0.00     0.00   0.00  -0.00     0.00  -0.00  -0.00
  26   1    -0.01   0.06   0.00    -0.00  -0.00  -0.00     0.00   0.00  -0.00
  27   1     0.09   0.04   0.00    -0.00   0.00  -0.00     0.00  -0.00  -0.00
                     64                     65                     66
                        a                      a                      a 
 Frequencies --  3029.1320              3041.4775              3094.4753
 Red. masses --     1.9253                 1.3454                 1.7574
 Frc consts  --     0.0000                 0.0000                 0.0000
 IR Inten    --    17.7074                19.2796                18.0503
 Raman Activ --     0.0000                 0.0000                 0.0000
 Depolar     --     0.0000                 0.0000                 0.0000
 Atom AN      X      Y      Z        X      Y      Z        X      Y      Z
   1   7    -0.00   0.00   0.00     0.00  -0.00  -0.00    -0.00  -0.00  -0.00
   2   6    -0.00  -0.01   0.00     0.00   0.01   0.00     0.00   0.00   0.00
   3   6    -0.02  -0.25   0.15     0.03   0.12   0.13    -0.00   0.00  -0.00
   4   6    -0.00  -0.00   0.00     0.00   0.00   0.00     0.00   0.00   0.00
   5   6     0.00   0.00   0.00    -0.00   0.00   0.00     0.00   0.00   0.00
   6   6     0.00  -0.00  -0.00     0.00   0.00  -0.00     0.00  -0.00  -0.00
   7   6    -0.00   0.00   0.00     0.00  -0.00  -0.00    -0.00  -0.00  -0.00
   8   6     0.00   0.00   0.00    -0.00  -0.00   0.00    -0.00   0.00   0.00
   9   6     0.00   0.00  -0.00     0.00  -0.00  -0.00    -0.00   0.00   0.00
  10   6     0.00  -0.00  -0.00    -0.00   0.00   0.00    -0.01   0.04   0.00
  11   6     0.00   0.00   0.00    -0.00   0.00  -0.00     0.19  -0.04   0.00
  12   6     0.00   0.00  -0.00    -0.00  -0.00  -0.00    -0.11  -0.12  -0.00
  13   6    -0.00  -0.00   0.00     0.00  -0.00   0.00    -0.01   0.03   0.00
  14   1     0.00  -0.00  -0.00    -0.00   0.00   0.01    -0.00   0.00   0.00
  15   1    -0.00  -0.01  -0.00     0.00   0.00   0.00     0.00   0.00   0.00
  16   1     0.00  -0.00  -0.00     0.00   0.00   0.00    -0.00  -0.00  -0.00
  17   1     0.02   0.03   0.00    -0.01  -0.02  -0.00    -0.00  -0.00  -0.00
  18   1    -0.20   0.46  -0.63    -0.11   0.31  -0.37     0.00  -0.00   0.00
  19   1     0.01  -0.04   0.02     0.35  -0.04   0.01     0.00  -0.00  -0.00
  20   1     0.25   0.44   0.09    -0.36  -0.68  -0.09    -0.00  -0.00  -0.00
  21   1    -0.00  -0.00   0.00     0.00   0.00  -0.00    -0.00  -0.00  -0.00
  22   1    -0.00   0.00  -0.00     0.00  -0.00  -0.00    -0.00   0.00   0.00
  23   1     0.00  -0.00   0.00    -0.00   0.01  -0.00    -0.00   0.00   0.00
  24   1    -0.00  -0.00  -0.00     0.00  -0.00  -0.00     0.05  -0.16  -0.00
  25   1    -0.00   0.00  -0.00     0.00  -0.00   0.00    -0.69   0.14  -0.01
  26   1    -0.00  -0.00   0.00     0.00   0.00   0.00     0.42   0.46   0.02
  27   1    -0.00   0.00   0.00    -0.00   0.00   0.00     0.04  -0.12  -0.00
                     67                     68                     69
                        a                      a                      a 
 Frequencies --  3103.8250              3112.1134              3116.4807
 Red. masses --     1.8221                 1.7820                 1.8458
 Frc consts  --     0.0000                 0.0000                 0.0000
 IR Inten    --   113.0605                 8.9992               163.3614
 Raman Activ --     0.0000                 0.0000                 0.0000
 Depolar     --     0.0000                 0.0000                 0.0000
 Atom AN      X      Y      Z        X      Y      Z        X      Y      Z
   1   7    -0.00  -0.00   0.00     0.00   0.00   0.00    -0.00  -0.00   0.00
   2   6     0.00  -0.00   0.00    -0.00  -0.00  -0.00    -0.00   0.00   0.00
   3   6     0.00  -0.00   0.00    -0.00  -0.00   0.00     0.00  -0.00   0.00
   4   6    -0.00   0.00  -0.00    -0.01  -0.00  -0.00    -0.00  -0.00  -0.00
   5   6    -0.01  -0.01  -0.00    -0.13  -0.15  -0.00    -0.02  -0.03  -0.00
   6   6    -0.00   0.01   0.00    -0.05   0.17   0.00     0.00  -0.01  -0.00
   7   6     0.00  -0.00  -0.00     0.00  -0.01  -0.00     0.00  -0.01  -0.00
   8   6    -0.00   0.00   0.00     0.00  -0.00   0.00    -0.01   0.00  -0.00
   9   6     0.00  -0.00  -0.00    -0.00   0.00  -0.00     0.00   0.01   0.00
  10   6     0.03  -0.10  -0.00     0.01  -0.02  -0.00    -0.07   0.20   0.00
  11   6    -0.15   0.03  -0.00     0.02  -0.00   0.00    -0.07   0.01  -0.00
  12   6    -0.12  -0.13  -0.00     0.01   0.01   0.00     0.01   0.01   0.00
  13   6    -0.03   0.08   0.00     0.00  -0.01  -0.00    -0.05   0.15   0.00
  14   1     0.00  -0.00  -0.00     0.00  -0.00   0.00     0.00  -0.00  -0.00
  15   1     0.00   0.00   0.00    -0.00  -0.00  -0.00     0.00   0.00   0.00
  16   1     0.00  -0.00   0.00     0.00   0.00   0.00     0.00  -0.00   0.00
  17   1     0.00   0.00  -0.00     0.01   0.00   0.00     0.00   0.00   0.00
  18   1    -0.00   0.00  -0.00    -0.00   0.00  -0.00    -0.00   0.00  -0.00
  19   1    -0.00   0.00   0.00     0.00  -0.00   0.00    -0.00   0.00  -0.00
  20   1     0.00   0.00   0.00     0.00   0.00   0.00     0.00   0.00   0.00
  21   1     0.02   0.02   0.00     0.48   0.53   0.02     0.08   0.09   0.00
  22   1     0.01  -0.03  -0.00     0.19  -0.61  -0.01    -0.01   0.02   0.00
  23   1    -0.00   0.01   0.00    -0.01   0.02   0.00    -0.01   0.02   0.00
  24   1    -0.12   0.35   0.00    -0.02   0.07   0.00     0.23  -0.70  -0.01
  25   1     0.51  -0.11   0.01    -0.07   0.01  -0.00     0.22  -0.05   0.00
  26   1     0.43   0.47   0.02    -0.03  -0.03  -0.00    -0.03  -0.04  -0.00
  27   1     0.10  -0.32  -0.00    -0.01   0.02   0.00     0.17  -0.53  -0.01
                     70                     71                     72
                        a                      a                      a 
 Frequencies --  3120.8595              3124.6900              3136.1257
 Red. masses --     1.8846                 1.8762                 1.8257
 Frc consts  --     0.0000                 0.0000                 0.0000
 IR Inten    --   137.6289                89.5201                24.2177
 Raman Activ --     0.0000                 0.0000                 0.0000
 Depolar     --     0.0000                 0.0000                 0.0000
 Atom AN      X      Y      Z        X      Y      Z        X      Y      Z
   1   7    -0.00  -0.00  -0.00    -0.00  -0.00   0.00    -0.00  -0.00   0.00
   2   6    -0.00   0.00  -0.00     0.00   0.00   0.00     0.00   0.00  -0.00
   3   6     0.00   0.00   0.00     0.00   0.00  -0.00     0.00   0.00   0.00
   4   6     0.00  -0.00   0.00     0.00  -0.00   0.00    -0.01   0.00  -0.00
   5   6     0.07   0.07   0.00     0.11   0.12   0.00    -0.01  -0.02  -0.00
   6   6    -0.03   0.08   0.00    -0.06   0.18   0.00     0.01  -0.02  -0.00
   7   6     0.00  -0.02  -0.00    -0.01   0.04   0.00    -0.08   0.26   0.00
   8   6    -0.01   0.00  -0.00     0.00  -0.00   0.00     0.00   0.01   0.00
   9   6    -0.00  -0.00  -0.00    -0.00   0.00  -0.00     0.00  -0.00  -0.00
  10   6     0.03  -0.10  -0.00    -0.02   0.08   0.00     0.00  -0.01  -0.00
  11   6     0.08  -0.02   0.00    -0.05   0.01  -0.00     0.01  -0.00   0.00
  12   6     0.07   0.07   0.00    -0.03  -0.04  -0.00     0.01   0.01   0.00
  13   6    -0.06   0.18   0.00     0.02  -0.07  -0.00    -0.01   0.02   0.00
  14   1    -0.00   0.00   0.00     0.00  -0.00  -0.00     0.00  -0.00  -0.00
  15   1     0.00   0.00   0.00     0.00   0.00   0.00     0.00   0.00   0.00
  16   1    -0.00  -0.00  -0.00    -0.00   0.00  -0.00     0.00  -0.00   0.00
  17   1    -0.00  -0.00  -0.00    -0.00  -0.00  -0.00    -0.00  -0.00  -0.00
  18   1    -0.00   0.00   0.00     0.00   0.00   0.00    -0.00   0.00  -0.00
  19   1     0.00  -0.00  -0.00    -0.00   0.00   0.00    -0.00   0.00  -0.00
  20   1    -0.00  -0.00  -0.00    -0.00  -0.00  -0.00    -0.00  -0.01  -0.00
  21   1    -0.22  -0.25  -0.01    -0.36  -0.40  -0.01     0.05   0.06   0.00
  22   1     0.09  -0.29  -0.00     0.19  -0.62  -0.01    -0.02   0.06   0.00
  23   1    -0.01   0.05   0.00     0.04  -0.13  -0.00     0.29  -0.90  -0.02
  24   1    -0.11   0.34   0.00     0.09  -0.26  -0.00    -0.02   0.05   0.00
  25   1    -0.25   0.05  -0.00     0.16  -0.03   0.00    -0.03   0.01  -0.00
  26   1    -0.22  -0.24  -0.01     0.11   0.12   0.00    -0.03  -0.03  -0.00
  27   1     0.19  -0.61  -0.01    -0.08   0.26   0.00     0.03  -0.09  -0.00
                     73                     74                     75
                        a                      a                      a 
 Frequencies --  3259.6829              3268.1992              3288.8441
 Red. masses --     2.0317                 2.0510                 1.2988
 Frc consts  --     0.0000                 0.0000                 0.0000
 IR Inten    --   191.6696               160.5382                59.2087
 Raman Activ --     0.0000                 0.0000                 0.0000
 Depolar     --     0.0000                 0.0000                 0.0000
 Atom AN      X      Y      Z        X      Y      Z        X      Y      Z
   1   7     0.28   0.04  -0.02    -0.02   0.23   0.16    -0.02  -0.08   0.13
   2   6     0.00   0.00   0.00     0.00   0.01   0.00     0.00  -0.01   0.01
   3   6     0.00  -0.00   0.00    -0.00   0.00  -0.00     0.00  -0.00   0.00
   4   6    -0.00   0.00  -0.00     0.00  -0.00  -0.00     0.00  -0.00  -0.00
   5   6    -0.00   0.00   0.00     0.00   0.00   0.00    -0.00  -0.00  -0.00
   6   6     0.00  -0.00   0.00     0.00   0.00  -0.00     0.00  -0.00   0.00
   7   6    -0.00   0.00   0.00     0.00  -0.00  -0.00    -0.00  -0.00   0.00
   8   6    -0.00   0.00   0.00    -0.00   0.00   0.00     0.00  -0.00   0.00
   9   6    -0.00  -0.00   0.00    -0.00  -0.00  -0.00     0.00   0.00  -0.00
  10   6    -0.00  -0.00  -0.00    -0.00   0.00  -0.00     0.00  -0.00  -0.00
  11   6     0.00  -0.00   0.00     0.00  -0.00   0.00     0.00  -0.00  -0.00
  12   6    -0.00   0.00   0.00    -0.00   0.00  -0.00     0.00   0.00  -0.00
  13   6    -0.00   0.00  -0.00    -0.00   0.00   0.00    -0.00   0.00   0.00
  14   1    -0.04   0.09   0.16     0.23  -0.30  -0.59     0.21  -0.29  -0.54
  15   1    -0.14  -0.34  -0.04    -0.29  -0.58  -0.04     0.27   0.55   0.06
  16   1    -0.86   0.11  -0.04     0.13   0.01   0.02    -0.41   0.04  -0.01
  17   1    -0.00  -0.01  -0.00    -0.01  -0.01  -0.00     0.00   0.01  -0.00
  18   1    -0.00   0.00  -0.00     0.00  -0.00   0.00    -0.00   0.00  -0.01
  19   1    -0.00   0.00   0.00     0.01  -0.00  -0.00     0.00  -0.00   0.00
  20   1     0.00  -0.00  -0.00    -0.00  -0.01  -0.00    -0.00  -0.00   0.00
  21   1     0.00   0.00   0.00    -0.00  -0.00  -0.00     0.00   0.00   0.00
  22   1    -0.00   0.00  -0.00     0.00  -0.00  -0.00    -0.00   0.00  -0.00
  23   1     0.00  -0.01   0.00    -0.00   0.00   0.00    -0.00   0.00  -0.00
  24   1     0.00   0.00   0.00     0.00  -0.00  -0.00    -0.00   0.00  -0.00
  25   1     0.00  -0.00   0.00    -0.00   0.00  -0.00    -0.00   0.00   0.00
  26   1    -0.00  -0.00   0.00    -0.00  -0.00   0.00    -0.00  -0.00   0.00
  27   1     0.00  -0.00   0.00     0.00  -0.00   0.00    -0.00   0.00   0.00
