21
 energy: -29.772945529729 gnorm: 0.000186075462 xtb: 6.5.1 (fef0646)
N            3.04484797426949       -0.00199371907824        3.65016600034389
C            2.50304699016769       -0.96118358143647        2.64238479842138
C            2.98646391132667       -0.51809883779827        1.25992105522912
C            4.49222286910388       -0.44598055596215        1.27234191027097
C            5.25915051916453       -1.57309041901782        0.99762437778688
C            6.63666477407800       -1.53132243287192        1.09267109814122
C            7.27008640548719       -0.35407772316645        1.47770644371242
Cl           8.98401953472622       -0.30115892555169        1.60778420539755
C            6.52031990535477        0.78301862892770        1.74669156179266
C            5.13864667523015        0.73186489022216        1.65129299107579
H            3.06555097422271       -0.39359402422861        4.59688863883737
H            2.49613736418595        0.86525523601916        3.66106111312685
H            4.01665692665581        0.22892053771404        3.32016538805228
H            1.41540582077386       -0.98653616117937        2.70151171351631
H            2.89577596685948       -1.95334713780537        2.86778913531438
H            2.55606606527517        0.45084965919373        1.00363881860518
H            2.64587346757823       -1.24113782997322        0.52073391537993
H            4.77467587962799       -2.48738485913575        0.69074765910172
H            7.22486497023708       -2.40499377030408        0.86471414911230
H            7.01478094421951        1.70161808571389        2.01740183908384
H            4.57589206145594        1.64697293971820        1.78758318769781
