 Entering Gaussian System
 *********************************************
 Gaussian 98:
 frequency output generated by the xtb code
 *********************************************
                         Standard orientation:
 --------------------------------------------------------------------
  Center     Atomic     Atomic              Coordinates (Angstroms)
  Number     Number      Type              X           Y           Z
 --------------------------------------------------------------------
    1          7             0       -1.797994   -0.788400    0.126558
    2          6             0       -1.292548    0.576996   -0.208117
    3          6             0        0.136875    0.818070    0.279988
    4          6             0        1.147429   -0.032587   -0.408734
    5          6             0        2.273709   -0.419792    0.153973
    6          1             0       -1.811501   -0.930099    1.141558
    7          1             0       -1.195589   -1.509504   -0.283243
    8          1             0       -2.749456   -0.930936   -0.227869
    9          1             0       -1.972142    1.320741    0.226555
   10          1             0       -1.341681    0.724305   -1.293357
   11          1             0        0.182788    0.631551    1.358238
   12          1             0        0.414070    1.871168    0.148325
   13          1             0        0.958064   -0.291608   -1.438763
   14          1             0        2.509954   -0.150691    1.164502
   15          1             0        2.994804   -1.012506   -0.375109
 --------------------------------------------------------------------
     1 basis functions        1 primitive gaussians
     1 alpha electrons        1 beta electrons

 Harmonic frequencies (cm**-1), IR intensities (km*mol⁻¹),
 Raman scattering activities (A**4/amu), Raman depolarization ratios,
 reduced masses (AMU), force constants (mDyne/A) and normal coordinates:
                      1                      2                      3
                        a                      a                      a 
 Frequencies --  -113.8675               -94.7725                90.7377
 Red. masses --     1.4280                 6.9771                 8.4060
 Frc consts  --     0.0000                 0.0000                 0.0000
 IR Inten    --     0.1124                 2.3475                20.6207
 Raman Activ --     0.0000                 0.0000                 0.0000
 Depolar     --     0.0000                 0.0000                 0.0000
 Atom AN      X      Y      Z        X      Y      Z        X      Y      Z
   1   7    -0.01   0.03   0.03    -0.15   0.09  -0.17     0.49  -0.11  -0.16
   2   6     0.03   0.01  -0.01    -0.00   0.08   0.05    -0.07   0.16   0.17
   3   6    -0.01  -0.03   0.11     0.01  -0.14   0.09    -0.00   0.29  -0.09
   4   6    -0.05  -0.01   0.01    -0.13  -0.40   0.19    -0.27  -0.16   0.08
   5   6     0.03   0.00  -0.14     0.28   0.35  -0.12    -0.24  -0.16   0.04
   6   1    -0.53   0.20   0.03    -0.02  -0.04  -0.06     0.12  -0.10  -0.05
   7   1     0.32   0.02   0.46    -0.08   0.03  -0.10     0.25   0.09  -0.07
   8   1     0.20  -0.19  -0.47    -0.05   0.08  -0.03     0.16  -0.14  -0.08
   9   1    -0.01   0.01  -0.05     0.02   0.03   0.04    -0.05  -0.04   0.15
  10   1     0.06  -0.03  -0.01     0.01   0.07   0.02    -0.09   0.13   0.06
  11   1    -0.01  -0.04   0.03    -0.02  -0.03   0.03     0.04   0.20  -0.01
  12   1     0.01  -0.01   0.06     0.06  -0.06   0.02     0.02   0.06  -0.15
  13   1    -0.05  -0.01   0.01    -0.18  -0.39   0.15    -0.14  -0.16   0.06
  14   1     0.05   0.00  -0.05     0.23   0.37  -0.14     0.00   0.07  -0.04
  15   1    -0.01   0.00  -0.07     0.04   0.02  -0.01    -0.13  -0.15   0.04
                      4                      5                      6
                        a                      a                      a 
 Frequencies --   271.7603               354.2474               470.4879
 Red. masses --     7.0677                 7.4142                 7.8054
 Frc consts  --     0.0000                 0.0000                 0.0000
 IR Inten    --     4.2617                11.9065                 3.9319
 Raman Activ --     0.0000                 0.0000                 0.0000
 Depolar     --     0.0000                 0.0000                 0.0000
 Atom AN      X      Y      Z        X      Y      Z        X      Y      Z
   1   7    -0.26  -0.07  -0.08     0.29   0.19   0.10     0.05   0.09   0.02
   2   6    -0.12   0.03   0.39    -0.09   0.20  -0.07    -0.42   0.18  -0.08
   3   6     0.16  -0.04  -0.32    -0.08  -0.40  -0.02    -0.25  -0.09  -0.16
   4   6     0.21  -0.06  -0.24    -0.08  -0.20  -0.29     0.18  -0.08   0.30
   5   6     0.05   0.09   0.22    -0.16   0.18   0.13     0.38  -0.13  -0.04
   6   1    -0.22  -0.10  -0.03     0.14   0.10   0.03     0.09   0.06   0.01
   7   1    -0.01   0.01   0.01     0.16   0.11   0.04     0.13   0.12   0.01
   8   1    -0.02   0.02  -0.17     0.08  -0.09   0.07     0.02  -0.16   0.05
   9   1     0.06  -0.03   0.32     0.01   0.06   0.03    -0.07   0.03   0.09
  10   1    -0.21   0.15   0.14    -0.06   0.08  -0.01    -0.23   0.11  -0.01
  11   1     0.17   0.08  -0.08    -0.07  -0.34  -0.04    -0.15   0.06  -0.03
  12   1     0.01  -0.01  -0.21     0.08  -0.11   0.23    -0.03  -0.04  -0.10
  13   1     0.15  -0.02  -0.08     0.07  -0.01  -0.11     0.15   0.10   0.03
  14   1    -0.13   0.05   0.09    -0.24   0.07   0.08     0.19  -0.27   0.03
  15   1     0.11   0.05   0.17     0.11   0.14   0.15     0.08   0.09  -0.20
                      7                      8                      9
                        a                      a                      a 
 Frequencies --   577.2307               799.1243               862.1561
 Red. masses --     4.6706                 2.7316                 7.5600
 Frc consts  --     0.0000                 0.0000                 0.0000
 IR Inten    --     8.3971                46.4381                 2.6411
 Raman Activ --     0.0000                 0.0000                 0.0000
 Depolar     --     0.0000                 0.0000                 0.0000
 Atom AN      X      Y      Z        X      Y      Z        X      Y      Z
   1   7    -0.03  -0.03   0.04    -0.13   0.05   0.08     0.13   0.34  -0.13
   2   6    -0.17   0.03  -0.05    -0.20   0.09   0.16     0.06  -0.26   0.13
   3   6    -0.06   0.01  -0.07     0.01  -0.01   0.11    -0.21  -0.44   0.08
   4   6     0.31   0.36  -0.13     0.11  -0.01  -0.13     0.08   0.25  -0.03
   5   6     0.04  -0.19   0.08     0.07  -0.06  -0.02    -0.11  -0.07   0.04
   6   1     0.01   0.02   0.01     0.01  -0.36  -0.03     0.09   0.19  -0.02
   7   1     0.02   0.01   0.02     0.23   0.38  -0.23     0.05   0.06   0.02
   8   1    -0.00  -0.07   0.02     0.02  -0.18  -0.06     0.02   0.03   0.02
   9   1    -0.02  -0.01   0.07    -0.12   0.21  -0.39     0.07  -0.03   0.04
  10   1    -0.14   0.05  -0.00     0.24  -0.33  -0.02     0.12   0.04   0.04
  11   1    -0.08  -0.27  -0.06     0.11   0.08   0.04     0.13   0.24   0.07
  12   1    -0.08   0.06   0.29    -0.02  -0.01  -0.07    -0.27  -0.11  -0.38
  13   1    -0.07  -0.27   0.09     0.02  -0.02  -0.03    -0.07  -0.07   0.04
  14   1     0.22   0.29  -0.12    -0.04   0.07  -0.01     0.09   0.13  -0.06
  15   1    -0.19  -0.41   0.14     0.07  -0.05   0.10    -0.04   0.02  -0.05
                     10                     11                     12
                        a                      a                      a 
 Frequencies --   873.2588               909.6020               937.1348
 Red. masses --     4.5764                 3.6499                 5.3439
 Frc consts  --     0.0000                 0.0000                 0.0000
 IR Inten    --    31.9375                 9.0824                23.1883
 Raman Activ --     0.0000                 0.0000                 0.0000
 Depolar     --     0.0000                 0.0000                 0.0000
 Atom AN      X      Y      Z        X      Y      Z        X      Y      Z
   1   7     0.20   0.15   0.17    -0.02  -0.10   0.02    -0.27  -0.14  -0.01
   2   6     0.16  -0.10   0.09    -0.02   0.10  -0.03     0.17   0.09  -0.07
   3   6    -0.16  -0.09  -0.31     0.04   0.09  -0.00     0.25  -0.15  -0.12
   4   6    -0.08   0.06   0.11     0.09   0.14  -0.07    -0.12   0.10   0.08
   5   6    -0.10   0.06   0.10    -0.17  -0.36   0.13    -0.23   0.18   0.17
   6   1    -0.20  -0.38  -0.02    -0.01  -0.02   0.01     0.13   0.02   0.01
   7   1    -0.04   0.08  -0.16    -0.02  -0.04   0.01     0.16   0.17  -0.01
   8   1     0.10   0.39  -0.22    -0.01  -0.01   0.00    -0.06  -0.41   0.11
   9   1     0.12   0.06  -0.00    -0.04   0.01  -0.03     0.19   0.11   0.04
  10   1    -0.09  -0.20   0.00    -0.00   0.01  -0.01     0.02   0.06  -0.01
  11   1    -0.12  -0.17  -0.10     0.00  -0.01  -0.00     0.15  -0.07  -0.04
  12   1    -0.03  -0.01   0.09     0.07   0.02   0.05     0.09  -0.04  -0.02
  13   1     0.08  -0.06   0.03    -0.15  -0.29   0.09     0.08  -0.03   0.02
  14   1     0.19  -0.11   0.01     0.08   0.19  -0.07     0.28  -0.12  -0.00
  15   1    -0.15   0.07  -0.21     0.36   0.64  -0.23    -0.30   0.06  -0.29
                     13                     14                     15
                        a                      a                      a 
 Frequencies --   986.5879              1005.4503              1013.1189
 Red. masses --     3.6952                 2.3086                 8.6156
 Frc consts  --     0.0000                 0.0000                 0.0000
 IR Inten    --     4.3738                29.7801                13.9592
 Raman Activ --     0.0000                 0.0000                 0.0000
 Depolar     --     0.0000                 0.0000                 0.0000
 Atom AN      X      Y      Z        X      Y      Z        X      Y      Z
   1   7    -0.13  -0.00   0.14     0.05  -0.12   0.03    -0.05   0.37  -0.13
   2   6     0.23  -0.05  -0.25    -0.03   0.18  -0.01    -0.14  -0.56   0.07
   3   6     0.03  -0.08   0.04    -0.03  -0.08   0.03     0.19   0.29  -0.04
   4   6    -0.03   0.10   0.16    -0.06  -0.12   0.01    -0.09  -0.17   0.06
   5   6     0.01  -0.12  -0.15    -0.09  -0.14   0.10    -0.02  -0.07   0.03
   6   1    -0.02  -0.22   0.00    -0.05  -0.02   0.01     0.10   0.14  -0.02
   7   1     0.13   0.21  -0.10    -0.07  -0.11   0.03     0.12   0.20  -0.03
   8   1     0.01  -0.12  -0.04     0.00   0.09  -0.01    -0.01  -0.10   0.03
   9   1     0.35   0.08   0.22    -0.08   0.01  -0.05     0.02  -0.12   0.06
  10   1    -0.31   0.04  -0.04     0.05   0.01  -0.01    -0.11  -0.10   0.03
  11   1    -0.27   0.12   0.05    -0.00   0.03   0.01     0.07  -0.18  -0.05
  12   1     0.01  -0.03  -0.07     0.08  -0.05  -0.08    -0.07   0.13   0.23
  13   1    -0.20   0.23   0.03     0.31   0.52  -0.19     0.11   0.16  -0.06
  14   1    -0.21   0.24  -0.06     0.33   0.52  -0.21     0.08   0.14  -0.05
  15   1     0.17  -0.01   0.18    -0.05  -0.01  -0.04     0.07   0.11  -0.03
                     16                     17                     18
                        a                      a                      a 
 Frequencies --  1089.8387              1163.1835              1194.8880
 Red. masses --     6.9555                 7.2858                 4.0362
 Frc consts  --     0.0000                 0.0000                 0.0000
 IR Inten    --    16.7808                12.2683                 5.7104
 Raman Activ --     0.0000                 0.0000                 0.0000
 Depolar     --     0.0000                 0.0000                 0.0000
 Atom AN      X      Y      Z        X      Y      Z        X      Y      Z
   1   7     0.12   0.09   0.03    -0.04   0.04   0.17    -0.07   0.05  -0.13
   2   6    -0.41  -0.14  -0.21     0.09  -0.04  -0.31     0.17  -0.12   0.26
   3   6     0.41  -0.15   0.22    -0.11   0.16   0.41    -0.24   0.12   0.02
   4   6     0.04   0.14  -0.02     0.08  -0.22  -0.38     0.11  -0.01  -0.22
   5   6    -0.10   0.10   0.05    -0.01   0.05   0.13    -0.02   0.02   0.05
   6   1    -0.08  -0.07  -0.01    -0.04  -0.18   0.01     0.08   0.11  -0.01
   7   1    -0.05  -0.02  -0.04     0.04   0.12  -0.07     0.05   0.02   0.05
   8   1     0.04   0.17  -0.07     0.03   0.02  -0.06    -0.03  -0.10   0.06
   9   1    -0.12  -0.07  -0.02     0.01  -0.15   0.15     0.02  -0.02   0.00
  10   1    -0.28  -0.08  -0.06    -0.11   0.22  -0.04     0.02  -0.15   0.06
  11   1     0.05   0.12   0.08    -0.03   0.17   0.12    -0.56   0.16   0.06
  12   1     0.45  -0.15  -0.14    -0.24   0.08  -0.03     0.52  -0.13  -0.02
  13   1    -0.14  -0.00   0.04     0.23  -0.17  -0.11     0.09  -0.08  -0.05
  14   1     0.03  -0.04   0.01     0.19  -0.10   0.02     0.07  -0.02  -0.00
  15   1    -0.13  -0.03  -0.06    -0.07   0.02  -0.09    -0.06  -0.02  -0.05
                     19                     20                     21
                        a                      a                      a 
 Frequencies --  1235.8824              1282.5225              1318.2552
 Red. masses --     2.9030                 3.0742                 3.6581
 Frc consts  --     0.0000                 0.0000                 0.0000
 IR Inten    --    16.7754                 8.3744                19.6206
 Raman Activ --     0.0000                 0.0000                 0.0000
 Depolar     --     0.0000                 0.0000                 0.0000
 Atom AN      X      Y      Z        X      Y      Z        X      Y      Z
   1   7    -0.10   0.08   0.20    -0.03   0.05   0.02     0.05  -0.18   0.07
   2   6     0.07  -0.12  -0.11     0.06   0.06   0.06    -0.29  -0.21  -0.05
   3   6    -0.08  -0.02  -0.16     0.15  -0.06  -0.12    -0.13   0.13  -0.00
   4   6    -0.02   0.11   0.14     0.10  -0.15  -0.18     0.03  -0.06  -0.12
   5   6     0.00  -0.03  -0.08     0.07   0.05   0.24     0.05   0.01   0.10
   6   1    -0.01  -0.15   0.03     0.01  -0.05  -0.00    -0.00   0.14   0.04
   7   1     0.06   0.17  -0.09    -0.00   0.01   0.01     0.07   0.07  -0.09
   8   1     0.02  -0.02  -0.06     0.00  -0.04   0.01     0.01   0.22  -0.06
   9   1    -0.32  -0.40   0.07    -0.24  -0.17  -0.05     0.44   0.38   0.04
  10   1     0.39   0.46   0.02     0.06   0.05   0.02     0.36   0.30   0.02
  11   1     0.06  -0.09  -0.06    -0.25   0.03  -0.01     0.06  -0.02  -0.01
  12   1     0.31  -0.09  -0.03    -0.22   0.06   0.04     0.16  -0.02   0.03
  13   1     0.04  -0.01   0.04    -0.66   0.34  -0.02    -0.23   0.12  -0.02
  14   1    -0.08   0.04  -0.01     0.15  -0.07   0.05     0.12  -0.06   0.02
  15   1     0.03  -0.02   0.04    -0.08   0.02  -0.10     0.02   0.00   0.02
                     22                     23                     24
                        a                      a                      a 
 Frequencies --  1334.7433              1369.5574              1401.6239
 Red. masses --     4.0007                 2.9374                 2.7319
 Frc consts  --     0.0000                 0.0000                 0.0000
 IR Inten    --     8.9653               195.3185                 0.8275
 Raman Activ --     0.0000                 0.0000                 0.0000
 Depolar     --     0.0000                 0.0000                 0.0000
 Atom AN      X      Y      Z        X      Y      Z        X      Y      Z
   1   7     0.04  -0.05   0.04    -0.16  -0.32   0.04     0.00  -0.01   0.01
   2   6    -0.22  -0.03   0.05     0.12   0.06   0.02    -0.03   0.01   0.02
   3   6     0.42  -0.10  -0.06     0.02  -0.05  -0.00     0.20  -0.10  -0.05
   4   6     0.04   0.00   0.09     0.01   0.01   0.02    -0.24   0.13  -0.02
   5   6    -0.09   0.01  -0.09    -0.00  -0.00  -0.01    -0.13   0.03  -0.09
   6   1    -0.03   0.04   0.01     0.20   0.42   0.06    -0.00   0.02   0.00
   7   1    -0.01   0.00  -0.04     0.36   0.35  -0.11     0.01   0.01  -0.01
   8   1     0.00   0.06  -0.01    -0.04   0.51  -0.14    -0.00   0.02  -0.00
   9   1     0.02   0.08  -0.02    -0.17  -0.12  -0.06    -0.04  -0.02  -0.01
  10   1     0.27   0.17   0.03    -0.18  -0.08  -0.00     0.05   0.02   0.01
  11   1    -0.54   0.14   0.05     0.01   0.02   0.01    -0.20   0.06   0.01
  12   1    -0.29   0.09   0.05    -0.05   0.01   0.02    -0.07   0.01   0.00
  13   1     0.26  -0.13   0.01     0.02  -0.01   0.01     0.08  -0.05  -0.01
  14   1    -0.24   0.12  -0.01    -0.04   0.02   0.00     0.53  -0.29  -0.06
  15   1    -0.13   0.02  -0.17    -0.02   0.00  -0.02     0.38   0.00   0.52
                     25                     26                     27
                        a                      a                      a 
 Frequencies --  1420.4483              1427.6066              1458.1383
 Red. masses --     1.6353                 1.6416                 1.8539
 Frc consts  --     0.0000                 0.0000                 0.0000
 IR Inten    --    77.9241                77.9257                17.6715
 Raman Activ --     0.0000                 0.0000                 0.0000
 Depolar     --     0.0000                 0.0000                 0.0000
 Atom AN      X      Y      Z        X      Y      Z        X      Y      Z
   1   7    -0.11   0.05   0.18     0.16  -0.06   0.12     0.03   0.01  -0.00
   2   6    -0.01   0.01   0.03     0.07   0.01   0.03    -0.01  -0.00  -0.03
   3   6     0.00  -0.02  -0.02    -0.02   0.02   0.02    -0.08  -0.19  -0.18
   4   6     0.00  -0.00  -0.00     0.01  -0.00  -0.00    -0.00  -0.01  -0.01
   5   6    -0.00   0.00  -0.00     0.00  -0.00   0.00     0.00  -0.00  -0.00
   6   1     0.49   0.12   0.04    -0.46   0.43   0.06    -0.11   0.02   0.00
   7   1    -0.32  -0.15  -0.15    -0.25   0.13  -0.62    -0.02   0.02  -0.06
   8   1     0.27  -0.19  -0.66     0.04  -0.26   0.05    -0.02  -0.03   0.06
   9   1     0.01   0.03  -0.02    -0.04  -0.03  -0.02    -0.00  -0.04   0.05
  10   1    -0.02  -0.03   0.01    -0.06  -0.03   0.01     0.02  -0.04  -0.01
  11   1     0.01   0.06   0.01    -0.02  -0.08  -0.01     0.21   0.65   0.09
  12   1     0.00   0.00   0.05     0.00  -0.01  -0.08     0.08   0.05   0.64
  13   1     0.00  -0.00   0.00    -0.01   0.00  -0.00     0.01   0.02  -0.01
  14   1     0.00   0.00  -0.00     0.00  -0.00   0.00    -0.00   0.01  -0.00
  15   1    -0.00  -0.00   0.00    -0.00   0.00  -0.00    -0.01  -0.00  -0.00
                     28                     29                     30
                        a                      a                      a 
 Frequencies --  1477.0085              1725.4555              2935.6210
 Red. masses --     1.8713                11.3561                 1.9039
 Frc consts  --     0.0000                 0.0000                 0.0000
 IR Inten    --    16.9241                 4.9761                 2.7785
 Raman Activ --     0.0000                 0.0000                 0.0000
 Depolar     --     0.0000                 0.0000                 0.0000
 Atom AN      X      Y      Z        X      Y      Z        X      Y      Z
   1   7     0.02  -0.00   0.00     0.00   0.00  -0.00     0.00  -0.00   0.00
   2   6     0.15  -0.19   0.14    -0.01   0.01   0.00     0.01  -0.00   0.01
   3   6    -0.01  -0.02  -0.02    -0.08   0.06   0.01     0.06   0.24  -0.14
   4   6    -0.00   0.01   0.01     0.63  -0.27   0.22    -0.01   0.01  -0.00
   5   6    -0.01   0.00  -0.01    -0.55   0.19  -0.27     0.00  -0.00   0.00
   6   1    -0.02  -0.06  -0.00    -0.00  -0.00  -0.00    -0.00  -0.00  -0.00
   7   1    -0.02  -0.04   0.03     0.00   0.00   0.00    -0.00   0.00   0.00
   8   1    -0.00  -0.03   0.02    -0.00   0.00   0.00    -0.00  -0.00   0.00
   9   1    -0.11   0.25  -0.62    -0.00   0.00   0.00    -0.03   0.03   0.02
  10   1    -0.40   0.53   0.10     0.01  -0.00  -0.00    -0.00   0.01  -0.07
  11   1     0.01   0.05   0.01     0.04  -0.02  -0.01     0.03  -0.04   0.39
  12   1     0.02  -0.00   0.05    -0.02   0.01   0.02    -0.22  -0.84   0.10
  13   1     0.03  -0.01   0.00    -0.05   0.06   0.08     0.00  -0.00  -0.00
  14   1     0.00  -0.00  -0.00     0.07  -0.08  -0.11     0.00   0.00   0.00
  15   1     0.00  -0.00   0.01    -0.02   0.06   0.13     0.00  -0.00  -0.00
                     31                     32                     33
                        a                      a                      a 
 Frequencies --  2956.5832              2968.9928              2983.1033
 Red. masses --     1.9090                 1.6082                 1.5588
 Frc consts  --     0.0000                 0.0000                 0.0000
 IR Inten    --     1.3467                11.2078                 7.6155
 Raman Activ --     0.0000                 0.0000                 0.0000
 Depolar     --     0.0000                 0.0000                 0.0000
 Atom AN      X      Y      Z        X      Y      Z        X      Y      Z
   1   7    -0.00  -0.00   0.00    -0.00  -0.00   0.00    -0.00  -0.00  -0.00
   2   6     0.12  -0.11  -0.22    -0.06   0.07   0.06     0.09  -0.12   0.16
   3   6     0.02   0.02   0.07     0.04   0.06   0.20     0.01  -0.01   0.05
   4   6    -0.00   0.00   0.00    -0.01   0.00  -0.01    -0.00  -0.00  -0.00
   5   6     0.00  -0.00  -0.00     0.00  -0.00  -0.00    -0.00  -0.00  -0.00
   6   1     0.00   0.00  -0.01     0.00   0.00  -0.00    -0.00  -0.00   0.02
   7   1     0.01  -0.01  -0.01    -0.00   0.01   0.00     0.01  -0.01  -0.01
   8   1     0.00   0.00   0.00     0.00   0.00   0.00     0.00  -0.00   0.00
   9   1    -0.45   0.49   0.28     0.23  -0.25  -0.15    -0.30   0.34   0.24
  10   1     0.03  -0.08   0.52    -0.01   0.01  -0.04    -0.01   0.09  -0.80
  11   1    -0.01   0.06  -0.30    -0.03   0.16  -0.79    -0.01   0.04  -0.19
  12   1    -0.04  -0.14   0.03    -0.09  -0.37   0.08     0.00  -0.00   0.01
  13   1    -0.00   0.00   0.00     0.01   0.01   0.04     0.00   0.00   0.01
  14   1    -0.00   0.00   0.00    -0.00   0.00   0.01    -0.00   0.00   0.00
  15   1     0.00  -0.00   0.00    -0.00   0.00   0.00     0.00  -0.00  -0.00
                     34                     35                     36
                        a                      a                      a 
 Frequencies --  3091.5784              3153.2465              3187.6488
 Red. masses --     1.8132                 1.5392                 2.1094
 Frc consts  --     0.0000                 0.0000                 0.0000
 IR Inten    --    30.1334                 2.9145                17.0039
 Raman Activ --     0.0000                 0.0000                 0.0000
 Depolar     --     0.0000                 0.0000                 0.0000
 Atom AN      X      Y      Z        X      Y      Z        X      Y      Z
   1   7    -0.00   0.00   0.00    -0.00  -0.00  -0.00     0.00  -0.00  -0.00
   2   6    -0.00   0.00   0.00     0.00  -0.00   0.00     0.00  -0.00  -0.00
   3   6     0.00   0.00   0.02    -0.00   0.00   0.00    -0.00   0.00  -0.00
   4   6     0.06   0.06   0.26    -0.01   0.00  -0.01    -0.00  -0.01  -0.03
   5   6    -0.00  -0.01  -0.02     0.19  -0.08   0.06     0.07  -0.14  -0.27
   6   1     0.00   0.00  -0.00     0.00  -0.00  -0.00    -0.00  -0.00   0.00
   7   1     0.00  -0.01  -0.00    -0.00   0.00   0.00    -0.00   0.01   0.00
   8   1    -0.00  -0.00  -0.00     0.00   0.00   0.00    -0.00  -0.00  -0.00
   9   1     0.00  -0.00  -0.00    -0.00   0.00   0.00    -0.00   0.00   0.00
  10   1    -0.00   0.00  -0.01    -0.00   0.00  -0.00     0.00  -0.00   0.00
  11   1    -0.00   0.01  -0.04     0.00  -0.00  -0.00    -0.00  -0.00   0.01
  12   1    -0.00  -0.01   0.00    -0.00  -0.00   0.00     0.00   0.00  -0.00
  13   1    -0.17  -0.23  -0.91     0.00   0.00   0.01     0.01   0.02   0.08
  14   1     0.02   0.01   0.06    -0.12  -0.16  -0.58     0.18   0.18   0.69
  15   1    -0.05   0.04   0.03    -0.50   0.42   0.39    -0.41   0.33   0.28
                     37                     38                     39
                        a                      a                      a 
 Frequencies --  3275.8019              3279.0872              3292.7593
 Red. masses --     2.0484                 2.0441                 1.2708
 Frc consts  --     0.0000                 0.0000                 0.0000
 IR Inten    --    86.7864                84.0379                26.4205
 Raman Activ --     0.0000                 0.0000                 0.0000
 Depolar     --     0.0000                 0.0000                 0.0000
 Atom AN      X      Y      Z        X      Y      Z        X      Y      Z
   1   7    -0.24   0.12   0.10     0.13   0.03   0.25    -0.04  -0.12   0.06
   2   6    -0.00   0.01   0.00     0.00  -0.00   0.01    -0.00  -0.01   0.00
   3   6     0.00  -0.00  -0.00    -0.00   0.00  -0.00     0.00  -0.00  -0.00
   4   6     0.00  -0.00  -0.00    -0.00  -0.00  -0.00    -0.00   0.00   0.00
   5   6     0.00  -0.00  -0.00     0.00  -0.00  -0.00    -0.00   0.00   0.00
   6   1    -0.02   0.04  -0.25     0.02   0.08  -0.67     0.00   0.07  -0.64
   7   1     0.46  -0.55  -0.32     0.13  -0.13  -0.05    -0.32   0.36   0.22
   8   1     0.44   0.07   0.19    -0.61  -0.08  -0.21     0.49   0.05   0.19
   9   1     0.01  -0.01  -0.01     0.00  -0.00  -0.00    -0.01   0.01   0.00
  10   1     0.00  -0.00  -0.00    -0.00   0.00  -0.02     0.00   0.00  -0.01
  11   1    -0.00  -0.00   0.00    -0.00  -0.00  -0.00    -0.00  -0.00   0.00
  12   1    -0.00   0.00  -0.00     0.00   0.00  -0.00     0.00   0.00  -0.00
  13   1     0.00   0.00   0.01     0.00   0.00   0.00    -0.00  -0.00  -0.00
  14   1     0.00   0.00   0.01    -0.00  -0.00  -0.00    -0.00  -0.00  -0.00
  15   1    -0.00   0.00   0.00    -0.00   0.00   0.00     0.00  -0.00  -0.00
