      -----------------------------------------------------------      
     |                   =====================                   |     
     |                           x T B                           |     
     |                   =====================                   |     
     |                         S. Grimme                         |     
     |          Mulliken Center for Theoretical Chemistry        |     
     |                    University of Bonn                     |     
      -----------------------------------------------------------      

   * xtb version 6.5.1 (fef0646) compiled by 'conda@b96dff2e9fd6' on 2023-01-04

   xtb is free software: you can redistribute it and/or modify it under
   the terms of the GNU Lesser General Public License as published by
   the Free Software Foundation, either version 3 of the License, or
   (at your option) any later version.
   
   xtb is distributed in the hope that it will be useful,
   but WITHOUT ANY WARRANTY; without even the implied warranty of
   MERCHANTABILITY or FITNESS FOR A PARTICULAR PURPOSE.  See the
   GNU Lesser General Public License for more details.
   
   Cite this work as:
   * C. Bannwarth, E. Caldeweyher, S. Ehlert, A. Hansen, P. Pracht,
     J. Seibert, S. Spicher, S. Grimme, WIREs Comput. Mol. Sci., 2020, 11,
     e01493. DOI: 10.1002/wcms.1493
   
   for GFN2-xTB:
   * C. Bannwarth, S. Ehlert and S. Grimme., J. Chem. Theory Comput., 2019,
     15, 1652-1671. DOI: 10.1021/acs.jctc.8b01176
   for GFN1-xTB:
   * S. Grimme, C. Bannwarth, P. Shushkov, J. Chem. Theory Comput., 2017,
     13, 1989-2009. DOI: 10.1021/acs.jctc.7b00118
   for GFN0-xTB:
   * P. Pracht, E. Caldeweyher, S. Ehlert, S. Grimme, ChemRxiv, 2019, preprint.
     DOI: 10.26434/chemrxiv.8326202.v1
   for GFN-FF:
   * S. Spicher and S. Grimme, Angew. Chem. Int. Ed., 2020, 59, 15665-15673.
     DOI: 10.1002/anie.202004239
   
   for ALPB and GBSA implicit solvation:
   * S. Ehlert, M. Stahn, S. Spicher, S. Grimme, J. Chem. Theory Comput.,
     2021, 17, 4250-4261. DOI: 10.1021/acs.jctc.1c00471
   
   for DFT-D4:
   * E. Caldeweyher, C. Bannwarth and S. Grimme, J. Chem. Phys., 2017,
     147, 034112. DOI: 10.1063/1.4993215
   * E. Caldeweyher, S. Ehlert, A. Hansen, H. Neugebauer, S. Spicher,
     C. Bannwarth and S. Grimme, J. Chem. Phys., 2019, 150, 154122.
     DOI: 10.1063/1.5090222
   * E. Caldeweyher, J.-M. Mewes, S. Ehlert and S. Grimme, Phys. Chem. Chem. Phys.
     2020, 22, 8499-8512. DOI: 10.1039/D0CP00502A
   
   for sTDA-xTB:
   * S. Grimme and C. Bannwarth, J. Chem. Phys., 2016, 145, 054103.
     DOI: 10.1063/1.4959605
   
   in the mass-spec context:
   * V. Asgeirsson, C. Bauer and S. Grimme, Chem. Sci., 2017, 8, 4879.
     DOI: 10.1039/c7sc00601b
   * J. Koopman and S. Grimme, ACS Omega 2019, 4, 12, 15120-15133.
     DOI: 10.1021/acsomega.9b02011
   
   for metadynamics refer to:
   * S. Grimme, J. Chem. Theory Comput., 2019, 155, 2847-2862
     DOI: 10.1021/acs.jctc.9b00143
   
   for SPH calculations refer to:
   * S. Spicher and S. Grimme, J. Chem. Theory Comput., 2021, 17, 1701-1714
     DOI: 10.1021/acs.jctc.0c01306
   
   with help from (in alphabetical order)
   P. Atkinson, C. Bannwarth, F. Bohle, G. Brandenburg, E. Caldeweyher
   M. Checinski, S. Dohm, S. Ehlert, S. Ehrlich, I. Gerasimov, C. Hölzer
   A. Katbashev, J. Koopman, C. Lavigne, S. Lehtola, F. März, M. Müller,
   F. Musil, H. Neugebauer, J. Pisarek, C. Plett, P. Pracht, F. Pultar,
   J. Seibert, P. Shushkov, S. Spicher, M. Stahn, M. Steiner, T. Strunk,
   J. Stückrath, T. Rose, and J. Unsleber
   
 * started run on 2023/01/24 at 14:57:15.439     

           -------------------------------------------------
          |                Calculation Setup                |
           -------------------------------------------------

          program call               : xtb init.xyz --opt -c 1 -u 0 -P 16 --alpb water
          hostname                   : gpg-woodward
          coordinate file            : init.xyz
          omp threads                :                    16

   ID    Z sym.   atoms
    1    7 N      1
    2    6 C      2-21
    3   16 S      22-25
    4    1 H      26-45

           -------------------------------------------------
          |                 G F N 2 - x T B                 |
           -------------------------------------------------

        Reference                      10.1021/acs.jctc.8b01176
      * Hamiltonian:
        H0-scaling (s, p, d)           1.850000    2.230000    2.230000
        zeta-weighting                 0.500000
      * Dispersion:
        s8                             2.700000
        a1                             0.520000
        a2                             5.000000
        s9                             5.000000
      * Repulsion:
        kExp                           1.500000    1.000000
        rExp                           1.000000
      * Coulomb:
        alpha                          2.000000
        third order                    shell-resolved
        anisotropic                    true
        a3                             3.000000
        a5                             4.000000
        cn-shift                       1.200000
        cn-exp                         4.000000
        max-rad                        5.000000

      * Solvation model:               ALPB
        Solvent                        water
        Parameter file                 internal GFN2-xTB/ALPB
        Dielectric constant                8.0200E+01
        Reference state                gsolv [1 M gas/solution]
        Free energy shift                  1.0808E-03 Eh       6.7819E-01 kcal/mol
        Temperature                        2.9815E+02 K
        Density                            1.0000E+00 kg/L
        Solvent mass                       1.8000E+01 g/mol
        Interaction kernel             P16
        Born radius scaling (c1)           1.4744E+00
        Born radii integrator          GBOBC
        Born offset                        0.0000E+00 a0       0.0000E+00 AA
        H-bond correction              true
        Ion screening                  false
        Surface tension                    1.0000E-05 Eh       1.5569E+01 dyn/cm
        Grid points                               230 per atom

          ...................................................
          :                      SETUP                      :
          :.................................................:
          :  # basis functions                 144          :
          :  # atomic orbitals                 140          :
          :  # shells                           74          :
          :  # electrons                       128          :
          :  max. iterations                   250          :
          :  Hamiltonian                  GFN2-xTB          :
          :  restarted?                      false          :
          :  GBSA solvation                   true          :
          :  PC potential                    false          :
          :  electronic temp.          300.0000000     K    :
          :  accuracy                    1.0000000          :
          :  -> integral cutoff          0.2500000E+02      :
          :  -> integral neglect         0.1000000E-07      :
          :  -> SCF convergence          0.1000000E-05 Eh   :
          :  -> wf. convergence          0.1000000E-03 e    :
          :  Broyden damping             0.4000000          :
          ...................................................

 iter      E             dE          RMSdq      gap      omega  full diag
   1    -69.4664041 -0.694664E+02  0.382E+00    2.13       0.0  T
   2    -69.5547167 -0.883126E-01  0.222E+00    2.14       1.0  T
   3    -69.5499668  0.474995E-02  0.109E+00    2.16       1.0  T
   4    -69.5612367 -0.112699E-01  0.584E-01    2.14       1.0  T
   5    -69.5666776 -0.544093E-02  0.222E-01    2.15       1.0  T
   6    -69.5669001 -0.222470E-03  0.136E-01    2.15       1.0  T
   7    -69.5670953 -0.195245E-03  0.555E-02    2.15       1.0  T
   8    -69.5671128 -0.174650E-04  0.277E-02    2.15       1.0  T
   9    -69.5671191 -0.631457E-05  0.123E-02    2.15       1.2  T
  10    -69.5671206 -0.150215E-05  0.696E-03    2.15       2.1  T
  11    -69.5671211 -0.446264E-06  0.314E-03    2.15       4.7  T
  12    -69.5671212 -0.113963E-06  0.103E-03    2.15      14.4  T
  13    -69.5671212 -0.118164E-07  0.593E-04    2.15      25.1  T
  14    -69.5671212 -0.184524E-08  0.289E-04    2.15      51.5  T

   *** convergence criteria satisfied after 14 iterations ***

         #    Occupation            Energy/Eh            Energy/eV
      -------------------------------------------------------------
         1        2.0000           -0.7403623             -20.1463
       ...           ...                  ...                  ...
        58        2.0000           -0.4053471             -11.0301
        59        2.0000           -0.4013698             -10.9218
        60        2.0000           -0.4007127             -10.9039
        61        2.0000           -0.3957501             -10.7689
        62        2.0000           -0.3935501             -10.7090
        63        2.0000           -0.3806694             -10.3585
        64        2.0000           -0.3608007              -9.8179 (HOMO)
        65                         -0.2817658              -7.6672 (LUMO)
        66                         -0.2607530              -7.0954
        67                         -0.2372191              -6.4551
        68                         -0.2198759              -5.9831
        69                         -0.2109615              -5.7406
       ...                                ...                  ...
       140                          0.7044139              19.1681
      -------------------------------------------------------------
                  HL-Gap            0.0790349 Eh            2.1506 eV
             Fermi-level           -0.3212832 Eh           -8.7426 eV

 SCC (total)                   0 d,  0 h,  0 min,  0.252 sec
 SCC setup                      ...        0 min,  0.001 sec (  0.343%)
 Dispersion                     ...        0 min,  0.001 sec (  0.548%)
 classical contributions        ...        0 min,  0.000 sec (  0.030%)
 integral evaluation            ...        0 min,  0.005 sec (  2.090%)
 iterations                     ...        0 min,  0.231 sec ( 91.798%)
 molecular gradient             ...        0 min,  0.010 sec (  4.133%)
 printout                       ...        0 min,  0.002 sec (  0.904%)

         :::::::::::::::::::::::::::::::::::::::::::::::::::::
         ::                     SUMMARY                     ::
         :::::::::::::::::::::::::::::::::::::::::::::::::::::
         :: total energy             -68.588308999616 Eh    ::
         :: total w/o Gsasa/hb       -68.580135212710 Eh    ::
         :: gradient norm              0.083480579064 Eh/a0 ::
         :: HOMO-LUMO gap              2.150649690408 eV    ::
         ::.................................................::
         :: SCC energy               -69.567121193872 Eh    ::
         :: -> isotropic ES            0.133855704455 Eh    ::
         :: -> anisotropic ES         -0.025417527575 Eh    ::
         :: -> anisotropic XC          0.035101687330 Eh    ::
         :: -> dispersion             -0.055216621878 Eh    ::
         :: -> Gsolv                  -0.119680292922 Eh    ::
         ::    -> Gelec               -0.111506506016 Eh    ::
         ::    -> Gsasa                0.001844036623 Eh    ::
         ::    -> Ghb                 -0.011098583226 Eh    ::
         ::    -> Gshift               0.001080759698 Eh    ::
         :: repulsion energy           0.979330157077 Eh    ::
         :: add. restraining           0.000000000000 Eh    ::
         :: total charge               1.000000000000 e     ::
         :::::::::::::::::::::::::::::::::::::::::::::::::::::

      ----------------------------------------------------------- 
     |                   =====================                   |
     |                        A N C O P T                        |
     |                   =====================                   |
     |               Approximate Normal Coordinate               |
     |                Rational Function Optimizer                |
      ----------------------------------------------------------- 

          ...................................................
          :                      SETUP                      :
          :.................................................:
          :   optimization level            normal          :
          :   max. optcycles                   200          :
          :   ANC micro-cycles                  20          :
          :   degrees of freedom               129          :
          :.................................................:
          :   RF solver                   davidson          :
          :   write xtbopt.log                true          :
          :   linear?                        false          :
          :   energy convergence         0.5000000E-05 Eh   :
          :   grad. convergence          0.1000000E-02 Eh/α :
          :   maximium RF displ.         1.0000000          :
          :   Hlow (freq-cutoff)         0.1000000E-01      :
          :   Hmax (freq-cutoff)         5.0000000          :
          :   S6 in model hess.         20.0000000          :
          ...................................................

generating ANC from model Hessian ...
Using Lindh-Hessian (1995)
 Shifting diagonal of input Hessian by    9.8858667284907175E-003
 Lowest  eigenvalues of input Hessian
    0.000000    0.000000    0.000000    0.000000    0.000000    0.000000
    0.010000    0.010226    0.010332    0.010547    0.010642    0.011662
    0.012258    0.012597    0.013179    0.014173    0.014517    0.014770
 Highest eigenvalues
    1.793116    1.822822    1.826605    1.871334    1.909761    1.933585


........................................................................
.............................. CYCLE    1 ..............................
........................................................................
   1    -69.5671212 -0.695671E+02  0.116E-04    2.15       0.0  T
   2    -69.5671212 -0.582219E-10  0.790E-05    2.15     188.7  T
   3    -69.5671212 -0.571134E-10  0.617E-05    2.15     241.7  T
     SCC iter.                  ...        0 min,  0.050 sec
     gradient                   ...        0 min,  0.011 sec
 * total energy  :   -68.5883090 Eh     change       -0.1030173E-08 Eh
   gradient norm :     0.0834806 Eh/α   predicted     0.0000000E+00 (-100.00%)
   displ. norm   :     0.3043076 α      lambda       -0.1083165E-01
   maximum displ.:     0.1068677 α      in ANC's #27, #25, #13, ...

........................................................................
.............................. CYCLE    2 ..............................
........................................................................
   1    -69.6086034 -0.696086E+02  0.165E-01    2.08       0.0  T
   2    -69.6086970 -0.936312E-04  0.104E-01    2.09       1.0  T
   3    -69.6086784  0.186826E-04  0.468E-02    2.09       1.0  T
   4    -69.6087172 -0.387937E-04  0.199E-02    2.09       1.0  T
   5    -69.6087236 -0.640618E-05  0.650E-03    2.09       2.3  T
   6    -69.6087238 -0.215835E-06  0.378E-03    2.09       3.9  T
   7    -69.6087240 -0.245144E-06  0.151E-03    2.09       9.9  T
   8    -69.6087240 -0.444020E-08  0.695E-04    2.09      21.5  T
   9    -69.6087240 -0.373700E-08  0.299E-04    2.09      49.8  T
     SCC iter.                  ...        0 min,  0.153 sec
     gradient                   ...        0 min,  0.009 sec
 * total energy  :   -68.5959246 Eh     change       -0.7615587E-02 Eh
   gradient norm :     0.0411452 Eh/α   predicted    -0.5920371E-02 ( -22.26%)
   displ. norm   :     0.2961105 α      lambda       -0.3999315E-02
   maximum displ.:     0.1296210 α      in ANC's #11, #13, #27, ...

........................................................................
.............................. CYCLE    3 ..............................
........................................................................
   1    -69.6316968 -0.696317E+02  0.128E-01    2.02       0.0  T
   2    -69.6317718 -0.750105E-04  0.766E-02    2.02       1.0  T
   3    -69.6317663  0.551907E-05  0.364E-02    2.02       1.0  T
   4    -69.6317828 -0.164315E-04  0.185E-02    2.03       1.0  T
   5    -69.6317883 -0.558387E-05  0.582E-03    2.02       2.6  T
   6    -69.6317886 -0.221204E-06  0.312E-03    2.02       4.8  T
   7    -69.6317887 -0.174021E-06  0.123E-03    2.02      12.2  T
   8    -69.6317887 -0.300464E-08  0.596E-04    2.02      25.0  T
   9    -69.6317887 -0.225450E-08  0.250E-04    2.02      59.6  T
     SCC iter.                  ...        0 min,  0.150 sec
     gradient                   ...        0 min,  0.010 sec
 * total energy  :   -68.5983242 Eh     change       -0.2399633E-02 Eh
   gradient norm :     0.0120484 Eh/α   predicted    -0.2176028E-02 (  -9.32%)
   displ. norm   :     0.2279114 α      lambda       -0.7777455E-03
   maximum displ.:     0.1101961 α      in ANC's #11, #4, #5, ...

........................................................................
.............................. CYCLE    4 ..............................
........................................................................
   1    -69.6328201 -0.696328E+02  0.755E-02    1.99       0.0  T
   2    -69.6328276 -0.748948E-05  0.417E-02    1.99       1.0  T
   3    -69.6328232  0.433962E-05  0.156E-02    1.99       1.0  T
   4    -69.6328282 -0.499770E-05  0.661E-03    1.99       2.3  T
   5    -69.6328291 -0.830266E-06  0.196E-03    1.99       7.6  T
   6    -69.6328291 -0.515045E-08  0.905E-04    1.99      16.5  T
   7    -69.6328291 -0.176359E-07  0.449E-04    1.99      33.2  T
     SCC iter.                  ...        0 min,  0.112 sec
     gradient                   ...        0 min,  0.011 sec
 * total energy  :   -68.5989249 Eh     change       -0.6006405E-03 Eh
   gradient norm :     0.0060536 Eh/α   predicted    -0.4090771E-03 ( -31.89%)
   displ. norm   :     0.4020874 α      lambda       -0.8730114E-03
   maximum displ.:     0.1825475 α      in ANC's #11, #5, #4, ...

........................................................................
.............................. CYCLE    5 ..............................
........................................................................
   1    -69.6292730 -0.696293E+02  0.118E-01    1.95       0.0  T
   2    -69.6292799 -0.683923E-05  0.657E-02    1.95       1.0  T
   3    -69.6292742  0.566173E-05  0.173E-02    1.95       1.0  T
   4    -69.6292807 -0.651157E-05  0.753E-03    1.95       2.0  T
   5    -69.6292816 -0.913475E-06  0.209E-03    1.95       7.1  T
   6    -69.6292817 -0.253941E-07  0.912E-04    1.95      16.3  T
   7    -69.6292817 -0.132568E-07  0.484E-04    1.95      30.8  T
     SCC iter.                  ...        0 min,  0.112 sec
     gradient                   ...        0 min,  0.010 sec
 * total energy  :   -68.5995626 Eh     change       -0.6377000E-03 Eh
   gradient norm :     0.0109021 Eh/α   predicted    -0.5070830E-03 ( -20.48%)
   displ. norm   :     0.3974464 α      lambda       -0.6102862E-03
   maximum displ.:     0.1916896 α      in ANC's #5, #4, #11, ...

........................................................................
.............................. CYCLE    6 ..............................
........................................................................
   1    -69.6258363 -0.696258E+02  0.107E-01    1.92       0.0  T
   2    -69.6258392 -0.290916E-05  0.605E-02    1.92       1.0  T
   3    -69.6258373  0.197029E-05  0.116E-02    1.92       1.3  T
   4    -69.6258398 -0.248622E-05  0.557E-03    1.92       2.7  T
   5    -69.6258402 -0.430222E-06  0.142E-03    1.92      10.5  T
   6    -69.6258402 -0.381010E-07  0.626E-04    1.92      23.8  T
   7    -69.6258402 -0.493857E-08  0.393E-04    1.92      37.9  T
     SCC iter.                  ...        0 min,  0.111 sec
     gradient                   ...        0 min,  0.009 sec
 * total energy  :   -68.6000472 Eh     change       -0.4846618E-03 Eh
   gradient norm :     0.0139632 Eh/α   predicted    -0.3533489E-03 ( -27.09%)
   displ. norm   :     0.4294372 α      lambda       -0.6736030E-03
   maximum displ.:     0.2248469 α      in ANC's #5, #4, #9, ...

........................................................................
.............................. CYCLE    7 ..............................
........................................................................
   1    -69.6248223 -0.696248E+02  0.108E-01    1.92       0.0  T
   2    -69.6248265 -0.416772E-05  0.613E-02    1.92       1.0  T
   3    -69.6248234  0.301420E-05  0.132E-02    1.92       1.1  T
   4    -69.6248271 -0.362044E-05  0.603E-03    1.92       2.5  T
   5    -69.6248276 -0.566413E-06  0.188E-03    1.92       7.9  T
   6    -69.6248277 -0.305198E-07  0.862E-04    1.92      17.3  T
   7    -69.6248277 -0.151238E-07  0.485E-04    1.92      30.7  T
     SCC iter.                  ...        0 min,  0.099 sec
     gradient                   ...        0 min,  0.009 sec
 * total energy  :   -68.6005931 Eh     change       -0.5458448E-03 Eh
   gradient norm :     0.0115762 Eh/α   predicted    -0.3989293E-03 ( -26.92%)
   displ. norm   :     0.4486298 α      lambda       -0.6809399E-03
   maximum displ.:     0.2541958 α      in ANC's #5, #4, #9, ...

........................................................................
.............................. CYCLE    8 ..............................
........................................................................
   1    -69.6276855 -0.696277E+02  0.106E-01    1.92       0.0  T
   2    -69.6276911 -0.563142E-05  0.591E-02    1.92       1.0  T
   3    -69.6276871  0.401273E-05  0.150E-02    1.92       1.0  T
   4    -69.6276918 -0.469186E-05  0.666E-03    1.92       2.2  T
   5    -69.6276925 -0.743550E-06  0.213E-03    1.92       7.0  T
   6    -69.6276926 -0.210926E-07  0.103E-03    1.92      14.5  T
   7    -69.6276926 -0.224652E-07  0.568E-04    1.92      26.3  T
   8    -69.6276926 -0.156149E-08  0.265E-04    1.92      56.3  T
     SCC iter.                  ...        0 min,  0.081 sec
     gradient                   ...        0 min,  0.008 sec
 * total energy  :   -68.6011160 Eh     change       -0.5228880E-03 Eh
   gradient norm :     0.0058364 Eh/α   predicted    -0.4090291E-03 ( -21.78%)
   displ. norm   :     0.4403651 α      lambda       -0.4682498E-03
   maximum displ.:     0.2627607 α      in ANC's #5, #4, #9, ...

........................................................................
.............................. CYCLE    9 ..............................
........................................................................
   1    -69.6306597 -0.696307E+02  0.963E-02    1.92       0.0  T
   2    -69.6306631 -0.335947E-05  0.537E-02    1.92       1.0  T
   3    -69.6306611  0.196842E-05  0.118E-02    1.92       1.3  T
   4    -69.6306636 -0.242178E-05  0.574E-03    1.92       2.6  T
   5    -69.6306641 -0.514995E-06  0.161E-03    1.92       9.2  T
   6    -69.6306641 -0.172591E-07  0.787E-04    1.92      18.9  T
   7    -69.6306641 -0.858127E-08  0.509E-04    1.92      29.3  T
     SCC iter.                  ...        0 min,  0.068 sec
     gradient                   ...        0 min,  0.010 sec
 * total energy  :   -68.6014842 Eh     change       -0.3682520E-03 Eh
   gradient norm :     0.0049965 Eh/α   predicted    -0.2795403E-03 ( -24.09%)
   displ. norm   :     0.4217158 α      lambda       -0.3721810E-03
   maximum displ.:     0.2645812 α      in ANC's #5, #4, #1, ...

........................................................................
.............................. CYCLE   10 ..............................
........................................................................
   1    -69.6340043 -0.696340E+02  0.845E-02    1.91       0.0  T
   2    -69.6340062 -0.191706E-05  0.473E-02    1.91       1.0  T
   3    -69.6340053  0.923368E-06  0.914E-03    1.91       1.6  T
   4    -69.6340066 -0.130259E-05  0.458E-03    1.91       3.3  T
   5    -69.6340069 -0.277754E-06  0.113E-03    1.91      13.2  T
   6    -69.6340069 -0.129519E-07  0.640E-04    1.91      23.3  T
   7    -69.6340069 -0.365338E-08  0.423E-04    1.91      35.2  T
     SCC iter.                  ...        0 min,  0.115 sec
     gradient                   ...        0 min,  0.011 sec
 * total energy  :   -68.6017949 Eh     change       -0.3106640E-03 Eh
   gradient norm :     0.0063508 Eh/α   predicted    -0.2191863E-03 ( -29.45%)
   displ. norm   :     0.4767705 α      lambda       -0.3948146E-03
   maximum displ.:     0.3040636 α      in ANC's #5, #4, #1, ...

........................................................................
.............................. CYCLE   11 ..............................
........................................................................
   1    -69.6353075 -0.696353E+02  0.901E-02    1.90       0.0  T
   2    -69.6353094 -0.195934E-05  0.505E-02    1.90       1.0  T
   3    -69.6353092  0.242084E-06  0.809E-03    1.90       1.8  T
   4    -69.6353097 -0.509542E-06  0.482E-03    1.90       3.1  T
   5    -69.6353101 -0.405502E-06  0.109E-03    1.90      13.7  T
   6    -69.6353101 -0.100557E-07  0.671E-04    1.90      22.2  T
   7    -69.6353101 -0.896065E-09  0.404E-04    1.90      36.9  T
     SCC iter.                  ...        0 min,  0.116 sec
     gradient                   ...        0 min,  0.011 sec
 * total energy  :   -68.6021426 Eh     change       -0.3477237E-03 Eh
   gradient norm :     0.0065717 Eh/α   predicted    -0.2422831E-03 ( -30.32%)
   displ. norm   :     0.5566110 α      lambda       -0.4944357E-03
   maximum displ.:     0.3547450 α      in ANC's #5, #4, #1, ...

........................................................................
.............................. CYCLE   12 ..............................
........................................................................
   1    -69.6371579 -0.696372E+02  0.101E-01    1.89       0.0  T
   2    -69.6371609 -0.303840E-05  0.566E-02    1.89       1.0  T
   3    -69.6371606  0.344824E-06  0.914E-03    1.89       1.6  T
   4    -69.6371612 -0.678741E-06  0.553E-03    1.89       2.7  T
   5    -69.6371618 -0.554623E-06  0.158E-03    1.89       9.4  T
   6    -69.6371618 -0.282959E-07  0.856E-04    1.89      17.4  T
   7    -69.6371618 -0.499186E-08  0.529E-04    1.89      28.2  T
     SCC iter.                  ...        0 min,  0.113 sec
     gradient                   ...        0 min,  0.011 sec
 * total energy  :   -68.6025746 Eh     change       -0.4319582E-03 Eh
   gradient norm :     0.0062360 Eh/α   predicted    -0.3238133E-03 ( -25.04%)
   displ. norm   :     0.7009966 α      lambda       -0.5652245E-03
   maximum displ.:     0.4417018 α      in ANC's #5, #4, #1, ...

........................................................................
.............................. CYCLE   13 ..............................
........................................................................
   1    -69.6315179 -0.696315E+02  0.131E-01    1.86       0.0  T
   2    -69.6315240 -0.611597E-05  0.735E-02    1.86       1.0  T
   3    -69.6315247 -0.667373E-06  0.108E-02    1.86       1.4  T
   4    -69.6315247 -0.434006E-07  0.605E-03    1.86       2.5  T
   5    -69.6315254 -0.689654E-06  0.231E-03    1.86       6.5  T
   6    -69.6315255 -0.685576E-07  0.119E-03    1.86      12.5  T
   7    -69.6315255 -0.105615E-07  0.753E-04    1.86      19.8  T
   8    -69.6315255 -0.436326E-08  0.251E-04    1.86      59.4  T
     SCC iter.                  ...        0 min,  0.130 sec
     gradient                   ...        0 min,  0.010 sec
 * total energy  :   -68.6030368 Eh     change       -0.4622111E-03 Eh
   gradient norm :     0.0065321 Eh/α   predicted    -0.4214880E-03 (  -8.81%)
   displ. norm   :     0.6750610 α      lambda       -0.5910265E-03
   maximum displ.:     0.4052811 α      in ANC's #5, #4, #1, ...

........................................................................
.............................. CYCLE   14 ..............................
........................................................................
   1    -69.6316936 -0.696317E+02  0.135E-01    1.85       0.0  T
   2    -69.6316998 -0.623236E-05  0.757E-02    1.85       1.0  T
   3    -69.6317002 -0.437326E-06  0.112E-02    1.85       1.3  T
   4    -69.6317004 -0.153151E-06  0.643E-03    1.85       2.3  T
   5    -69.6317011 -0.758598E-06  0.239E-03    1.85       6.2  T
   6    -69.6317012 -0.871625E-07  0.113E-03    1.85      13.1  T
   7    -69.6317012 -0.842168E-08  0.674E-04    1.85      22.1  T
   8    -69.6317012 -0.249642E-08  0.242E-04    1.85      61.7  T
     SCC iter.                  ...        0 min,  0.127 sec
     gradient                   ...        0 min,  0.011 sec
 * total energy  :   -68.6034636 Eh     change       -0.4268647E-03 Eh
   gradient norm :     0.0076919 Eh/α   predicted    -0.4301892E-03 (   0.78%)
   displ. norm   :     0.5569015 α      lambda       -0.3512530E-03
   maximum displ.:     0.3388124 α      in ANC's #5, #4, #1, ...

........................................................................
.............................. CYCLE   15 ..............................
........................................................................
   1    -69.6287863 -0.696288E+02  0.111E-01    1.84       0.0  T
   2    -69.6287896 -0.328590E-05  0.625E-02    1.84       1.0  T
   3    -69.6287901 -0.496571E-06  0.877E-03    1.84       1.7  T
   4    -69.6287902 -0.422063E-07  0.464E-03    1.84       3.2  T
   5    -69.6287906 -0.419755E-06  0.169E-03    1.84       8.8  T
   6    -69.6287906 -0.284057E-07  0.998E-04    1.84      14.9  T
   7    -69.6287906 -0.517223E-08  0.612E-04    1.84      24.4  T
     SCC iter.                  ...        0 min,  0.115 sec
     gradient                   ...        0 min,  0.011 sec
 * total energy  :   -68.6037272 Eh     change       -0.2636066E-03 Eh
   gradient norm :     0.0083378 Eh/α   predicted    -0.2300968E-03 ( -12.71%)
   displ. norm   :     0.4039472 α      lambda       -0.4024915E-03
   maximum displ.:     0.2126122 α      in ANC's #5, #4, #1, ...

........................................................................
.............................. CYCLE   16 ..............................
........................................................................
   1    -69.6350982 -0.696351E+02  0.971E-02    1.84       0.0  T
   2    -69.6351006 -0.238936E-05  0.554E-02    1.84       1.0  T
   3    -69.6351000  0.603053E-06  0.836E-03    1.84       1.8  T
   4    -69.6351011 -0.109868E-05  0.454E-03    1.84       3.3  T
   5    -69.6351014 -0.226075E-06  0.159E-03    1.84       9.4  T
   6    -69.6351014 -0.387059E-07  0.831E-04    1.84      17.9  T
   7    -69.6351014 -0.332068E-08  0.516E-04    1.84      28.9  T
     SCC iter.                  ...        0 min,  0.115 sec
     gradient                   ...        0 min,  0.011 sec
 * total energy  :   -68.6039438 Eh     change       -0.2165645E-03 Eh
   gradient norm :     0.0067872 Eh/α   predicted    -0.2340848E-03 (   8.09%)
   displ. norm   :     0.4698283 α      lambda       -0.2661876E-03
   maximum displ.:     0.2952227 α      in ANC's #5, #4, #1, ...

........................................................................
.............................. CYCLE   17 ..............................
........................................................................
   1    -69.6305756 -0.696306E+02  0.948E-02    1.82       0.0  T
   2    -69.6305787 -0.315607E-05  0.531E-02    1.82       1.0  T
   3    -69.6305783  0.430724E-06  0.905E-03    1.82       1.6  T
   4    -69.6305792 -0.917988E-06  0.491E-03    1.82       3.0  T
   5    -69.6305796 -0.359971E-06  0.186E-03    1.82       8.0  T
   6    -69.6305796 -0.533464E-07  0.904E-04    1.82      16.5  T
   7    -69.6305797 -0.674748E-08  0.587E-04    1.82      25.4  T
     SCC iter.                  ...        0 min,  0.114 sec
     gradient                   ...        0 min,  0.010 sec
 * total energy  :   -68.6041025 Eh     change       -0.1586631E-03 Eh
   gradient norm :     0.0061136 Eh/α   predicted    -0.1624823E-03 (   2.41%)
   displ. norm   :     0.2373326 α      lambda       -0.1661099E-03
   maximum displ.:     0.1368498 α      in ANC's #5, #1, #4, ...

........................................................................
.............................. CYCLE   18 ..............................
........................................................................
   1    -69.6318917 -0.696319E+02  0.490E-02    1.82       0.0  T
   2    -69.6318930 -0.131678E-05  0.275E-02    1.82       1.0  T
   3    -69.6318917  0.126552E-05  0.765E-03    1.82       1.9  T
   4    -69.6318934 -0.161354E-05  0.293E-03    1.82       5.1  T
   5    -69.6318935 -0.100320E-06  0.113E-03    1.82      13.2  T
   6    -69.6318935 -0.150857E-07  0.554E-04    1.82      26.9  T
   7    -69.6318935 -0.419631E-08  0.330E-04    1.82      45.1  T
     SCC iter.                  ...        0 min,  0.113 sec
     gradient                   ...        0 min,  0.010 sec
 * total energy  :   -68.6042153 Eh     change       -0.1128427E-03 Eh
   gradient norm :     0.0060685 Eh/α   predicted    -0.8773677E-04 ( -22.25%)
   displ. norm   :     0.2862678 α      lambda       -0.2258170E-03
   maximum displ.:     0.1479497 α      in ANC's #5, #1, #7, ...

........................................................................
.............................. CYCLE   19 ..............................
........................................................................
   1    -69.6359134 -0.696359E+02  0.577E-02    1.82       0.0  T
   2    -69.6359154 -0.206041E-05  0.321E-02    1.82       1.0  T
   3    -69.6359137  0.171613E-05  0.882E-03    1.82       1.7  T
   4    -69.6359159 -0.212746E-05  0.351E-03    1.82       4.3  T
   5    -69.6359160 -0.172418E-06  0.119E-03    1.82      12.6  T
   6    -69.6359160 -0.169341E-07  0.516E-04    1.82      28.9  T
   7    -69.6359160 -0.504187E-08  0.229E-04    1.82      65.1  T
     SCC iter.                  ...        0 min,  0.108 sec
     gradient                   ...        0 min,  0.010 sec
 * total energy  :   -68.6043531 Eh     change       -0.1377474E-03 Eh
   gradient norm :     0.0059190 Eh/α   predicted    -0.1221641E-03 ( -11.31%)
   displ. norm   :     0.3609965 α      lambda       -0.1886139E-03
   maximum displ.:     0.2148738 α      in ANC's #5, #1, #4, ...

........................................................................
.............................. CYCLE   20 ..............................
........................................................................
   1    -69.6351423 -0.696351E+02  0.696E-02    1.82       0.0  T
   2    -69.6351440 -0.164623E-05  0.390E-02    1.82       1.0  T
   3    -69.6351428  0.116340E-05  0.838E-03    1.82       1.8  T
   4    -69.6351443 -0.148271E-05  0.396E-03    1.82       3.8  T
   5    -69.6351445 -0.204390E-06  0.111E-03    1.82      13.4  T
   6    -69.6351445 -0.159817E-07  0.519E-04    1.82      28.7  T
   7    -69.6351445 -0.288256E-08  0.307E-04    1.82      48.5  T
     SCC iter.                  ...        0 min,  0.106 sec
     gradient                   ...        0 min,  0.010 sec
 * total energy  :   -68.6044660 Eh     change       -0.1129716E-03 Eh
   gradient norm :     0.0059737 Eh/α   predicted    -0.1065982E-03 (  -5.64%)
   displ. norm   :     0.3163779 α      lambda       -0.1826397E-03
   maximum displ.:     0.1750420 α      in ANC's #5, #1, #4, ...
 * RMSD in coord.:     1.0755347 α      energy gain  -0.1615703E-01 Eh

generating ANC from model Hessian ...
Using Lindh-Hessian (1995)
 Shifting diagonal of input Hessian by    9.8792782296918090E-003
 Lowest  eigenvalues of input Hessian
    0.000000    0.000000    0.000000    0.000000    0.000000    0.000000
    0.010000    0.010256    0.010356    0.010548    0.010699    0.011581
    0.012782    0.012829    0.013215    0.014132    0.014373    0.015317
 Highest eigenvalues
    1.855801    1.900645    1.910479    1.959343    2.001561    2.023675


........................................................................
.............................. CYCLE   21 ..............................
........................................................................
   1    -69.6345447 -0.696345E+02  0.655E-02    1.80       0.0  T
   2    -69.6345461 -0.140787E-05  0.368E-02    1.80       1.0  T
   3    -69.6345452  0.935902E-06  0.771E-03    1.80       1.9  T
   4    -69.6345465 -0.136702E-05  0.332E-03    1.80       4.5  T
   5    -69.6345466 -0.856493E-07  0.113E-03    1.80      13.2  T
   6    -69.6345466 -0.232422E-07  0.520E-04    1.80      28.7  T
   7    -69.6345466 -0.225192E-08  0.333E-04    1.80      44.7  T
     SCC iter.                  ...        0 min,  0.106 sec
     gradient                   ...        0 min,  0.009 sec
 * total energy  :   -68.6045778 Eh     change       -0.1117547E-03 Eh
   gradient norm :     0.0051468 Eh/α   predicted     0.0000000E+00 (-100.00%)
   displ. norm   :     0.0588640 α      lambda       -0.9678823E-04
   maximum displ.:     0.0282241 α      in ANC's #7, #16, #4, ...

........................................................................
.............................. CYCLE   22 ..............................
........................................................................
   1    -69.6359913 -0.696360E+02  0.207E-02    1.81       0.0  T
   2    -69.6359916 -0.271492E-06  0.118E-02    1.81       1.3  T
   3    -69.6359911  0.543907E-06  0.459E-03    1.81       3.2  T
   4    -69.6359917 -0.672821E-06  0.129E-03    1.81      11.5  T
   5    -69.6359918 -0.135166E-07  0.510E-04    1.81      29.2  T
   6    -69.6359918 -0.425489E-08  0.216E-04    1.81      68.9  T
     SCC iter.                  ...        0 min,  0.094 sec
     gradient                   ...        0 min,  0.009 sec
 * total energy  :   -68.6046502 Eh     change       -0.7239363E-04 Eh
   gradient norm :     0.0021155 Eh/α   predicted    -0.4862432E-04 ( -32.83%)
   displ. norm   :     0.1105831 α      lambda       -0.8634781E-04
   maximum displ.:     0.0514004 α      in ANC's #7, #4, #16, ...

........................................................................
.............................. CYCLE   23 ..............................
........................................................................
   1    -69.6367412 -0.696367E+02  0.286E-02    1.82       0.0  T
   2    -69.6367416 -0.467051E-06  0.163E-02    1.82       1.0  T
   3    -69.6367404  0.122991E-05  0.681E-03    1.82       2.2  T
   4    -69.6367419 -0.150694E-05  0.170E-03    1.82       8.8  T
   5    -69.6367419 -0.184300E-07  0.621E-04    1.82      24.0  T
   6    -69.6367419 -0.574327E-08  0.286E-04    1.82      52.1  T
     SCC iter.                  ...        0 min,  0.094 sec
     gradient                   ...        0 min,  0.011 sec
 * total energy  :   -68.6047069 Eh     change       -0.5674822E-04 Eh
   gradient norm :     0.0020494 Eh/α   predicted    -0.4370396E-04 ( -22.99%)
   displ. norm   :     0.0982210 α      lambda       -0.3994821E-04
   maximum displ.:     0.0476015 α      in ANC's #4, #7, #1, ...

........................................................................
.............................. CYCLE   24 ..............................
........................................................................
   1    -69.6363871 -0.696364E+02  0.198E-02    1.82       0.0  T
   2    -69.6363873 -0.173646E-06  0.111E-02    1.82       1.3  T
   3    -69.6363869  0.330895E-06  0.363E-03    1.82       4.1  T
   4    -69.6363873 -0.400957E-06  0.117E-03    1.82      12.8  T
   5    -69.6363874 -0.110718E-07  0.333E-04    1.82      44.8  T
   6    -69.6363874 -0.144523E-08  0.153E-04    1.82      97.5  T
     SCC iter.                  ...        0 min,  0.095 sec
     gradient                   ...        0 min,  0.009 sec
 * total energy  :   -68.6047386 Eh     change       -0.3164274E-04 Eh
   gradient norm :     0.0024807 Eh/α   predicted    -0.2034622E-04 ( -35.70%)
   displ. norm   :     0.1401343 α      lambda       -0.5014883E-04
   maximum displ.:     0.0713696 α      in ANC's #4, #1, #3, ...

........................................................................
.............................. CYCLE   25 ..............................
........................................................................
   1    -69.6355233 -0.696355E+02  0.262E-02    1.82       0.0  T
   2    -69.6355235 -0.223528E-06  0.147E-02    1.82       1.0  T
   3    -69.6355234  0.887492E-07  0.282E-03    1.82       5.3  T
   4    -69.6355235 -0.116000E-06  0.147E-03    1.82      10.2  T
   5    -69.6355235 -0.352154E-07  0.410E-04    1.82      36.3  T
   6    -69.6355236 -0.316133E-08  0.172E-04    1.82      86.9  T
     SCC iter.                  ...        0 min,  0.093 sec
     gradient                   ...        0 min,  0.010 sec
 * total energy  :   -68.6047760 Eh     change       -0.3738778E-04 Eh
   gradient norm :     0.0019664 Eh/α   predicted    -0.2560227E-04 ( -31.52%)
   displ. norm   :     0.2003967 α      lambda       -0.3745386E-04
   maximum displ.:     0.1071172 α      in ANC's #4, #1, #3, ...

........................................................................
.............................. CYCLE   26 ..............................
........................................................................
   1    -69.6345820 -0.696346E+02  0.362E-02    1.81       0.0  T
   2    -69.6345823 -0.330709E-06  0.204E-02    1.81       1.0  T
   3    -69.6345821  0.193834E-06  0.392E-03    1.81       3.8  T
   4    -69.6345824 -0.252630E-06  0.208E-03    1.81       7.2  T
   5    -69.6345825 -0.564509E-07  0.458E-04    1.81      32.5  T
   6    -69.6345825 -0.467718E-08  0.251E-04    1.81      59.4  T
     SCC iter.                  ...        0 min,  0.098 sec
     gradient                   ...        0 min,  0.011 sec
 * total energy  :   -68.6048117 Eh     change       -0.3577385E-04 Eh
   gradient norm :     0.0019675 Eh/α   predicted    -0.1906178E-04 ( -46.72%)
   displ. norm   :     0.1168932 α      lambda       -0.2336189E-04
   maximum displ.:     0.0671532 α      in ANC's #1, #4, #3, ...

........................................................................
.............................. CYCLE   27 ..............................
........................................................................
   1    -69.6351634 -0.696352E+02  0.228E-02    1.81       0.0  T
   2    -69.6351636 -0.153034E-06  0.128E-02    1.81       1.2  T
   3    -69.6351632  0.346385E-06  0.373E-03    1.81       4.0  T
   4    -69.6351636 -0.409119E-06  0.134E-03    1.81      11.1  T
   5    -69.6351636 -0.180281E-07  0.355E-04    1.81      42.0  T
   6    -69.6351636 -0.214811E-08  0.178E-04    1.81      83.6  T
     SCC iter.                  ...        0 min,  0.095 sec
     gradient                   ...        0 min,  0.009 sec
 * total energy  :   -68.6048419 Eh     change       -0.3018797E-04 Eh
   gradient norm :     0.0015962 Eh/α   predicted    -0.1179632E-04 ( -60.92%)
   displ. norm   :     0.2557664 α      lambda       -0.4807936E-04
   maximum displ.:     0.1451195 α      in ANC's #1, #4, #5, ...

........................................................................
.............................. CYCLE   28 ..............................
........................................................................
   1    -69.6357221 -0.696357E+02  0.522E-02    1.81       0.0  T
   2    -69.6357228 -0.650054E-06  0.293E-02    1.81       1.0  T
   3    -69.6357219  0.854126E-06  0.636E-03    1.81       2.3  T
   4    -69.6357229 -0.996977E-06  0.293E-03    1.81       5.1  T
   5    -69.6357230 -0.116238E-06  0.718E-04    1.81      20.8  T
   6    -69.6357230 -0.106911E-07  0.317E-04    1.81      47.1  T
     SCC iter.                  ...        0 min,  0.096 sec
     gradient                   ...        0 min,  0.009 sec
 * total energy  :   -68.6048985 Eh     change       -0.5654529E-04 Eh
   gradient norm :     0.0016351 Eh/α   predicted    -0.2474245E-04 ( -56.24%)
   displ. norm   :     0.3162982 α      lambda       -0.4318488E-04
   maximum displ.:     0.1838989 α      in ANC's #1, #4, #5, ...

........................................................................
.............................. CYCLE   29 ..............................
........................................................................
   1    -69.6358409 -0.696358E+02  0.615E-02    1.80       0.0  T
   2    -69.6358416 -0.686057E-06  0.345E-02    1.80       1.0  T
   3    -69.6358414  0.243369E-06  0.531E-03    1.80       2.8  T
   4    -69.6358416 -0.253391E-06  0.335E-03    1.80       4.5  T
   5    -69.6358418 -0.226129E-06  0.657E-04    1.80      22.7  T
   6    -69.6358419 -0.101052E-07  0.327E-04    1.80      45.6  T
     SCC iter.                  ...        0 min,  0.094 sec
     gradient                   ...        0 min,  0.009 sec
 * total energy  :   -68.6049497 Eh     change       -0.5119320E-04 Eh
   gradient norm :     0.0019561 Eh/α   predicted    -0.2255438E-04 ( -55.94%)
   displ. norm   :     0.3073115 α      lambda       -0.3611243E-04
   maximum displ.:     0.1836736 α      in ANC's #1, #4, #5, ...

........................................................................
.............................. CYCLE   30 ..............................
........................................................................
   1    -69.6359365 -0.696359E+02  0.573E-02    1.80       0.0  T
   2    -69.6359371 -0.587505E-06  0.322E-02    1.80       1.0  T
   3    -69.6359371  0.244190E-07  0.453E-03    1.80       3.3  T
   4    -69.6359371  0.923178E-08  0.290E-03    1.80       5.1  T
   5    -69.6359373 -0.225196E-06  0.527E-04    1.80      28.3  T
   6    -69.6359373 -0.398633E-08  0.308E-04    1.80      48.3  T
     SCC iter.                  ...        0 min,  0.094 sec
     gradient                   ...        0 min,  0.010 sec
 * total energy  :   -68.6049937 Eh     change       -0.4402178E-04 Eh
   gradient norm :     0.0014855 Eh/α   predicted    -0.1881548E-04 ( -57.26%)
   displ. norm   :     0.2706959 α      lambda       -0.3107879E-04
   maximum displ.:     0.1669526 α      in ANC's #1, #4, #5, ...

........................................................................
.............................. CYCLE   31 ..............................
........................................................................
   1    -69.6363462 -0.696363E+02  0.477E-02    1.80       0.0  T
   2    -69.6363467 -0.522544E-06  0.268E-02    1.80       1.0  T
   3    -69.6363466  0.136085E-06  0.442E-03    1.80       3.4  T
   4    -69.6363467 -0.165766E-06  0.250E-03    1.80       6.0  T
   5    -69.6363469 -0.127643E-06  0.557E-04    1.80      26.8  T
   6    -69.6363469 -0.390159E-08  0.264E-04    1.80      56.4  T
     SCC iter.                  ...        0 min,  0.095 sec
     gradient                   ...        0 min,  0.011 sec
 * total energy  :   -68.6050313 Eh     change       -0.3764731E-04 Eh
   gradient norm :     0.0008778 Eh/α   predicted    -0.1604611E-04 ( -57.38%)
   displ. norm   :     0.2815912 α      lambda       -0.2815672E-04
   maximum displ.:     0.1737005 α      in ANC's #1, #4, #5, ...

........................................................................
.............................. CYCLE   32 ..............................
........................................................................
   1    -69.6355512 -0.696356E+02  0.480E-02    1.79       0.0  T
   2    -69.6355517 -0.520355E-06  0.270E-02    1.79       1.0  T
   3    -69.6355517 -0.155497E-07  0.386E-03    1.79       3.9  T
   4    -69.6355517  0.161984E-07  0.227E-03    1.79       6.6  T
   5    -69.6355519 -0.136141E-06  0.555E-04    1.79      26.8  T
   6    -69.6355519 -0.412737E-08  0.247E-04    1.79      60.3  T
     SCC iter.                  ...        0 min,  0.094 sec
     gradient                   ...        0 min,  0.009 sec
 * total energy  :   -68.6050644 Eh     change       -0.3302888E-04 Eh
   gradient norm :     0.0011694 Eh/α   predicted    -0.1457503E-04 ( -55.87%)
   displ. norm   :     0.2796929 α      lambda       -0.2937761E-04
   maximum displ.:     0.1769121 α      in ANC's #1, #4, #5, ...

........................................................................
.............................. CYCLE   33 ..............................
........................................................................
   1    -69.6362945 -0.696363E+02  0.500E-02    1.79       0.0  T
   2    -69.6362951 -0.561654E-06  0.280E-02    1.79       1.0  T
   3    -69.6362951 -0.182668E-07  0.411E-03    1.79       3.6  T
   4    -69.6362951  0.569587E-08  0.235E-03    1.79       6.3  T
   5    -69.6362952 -0.132079E-06  0.599E-04    1.79      24.9  T
   6    -69.6362952 -0.626413E-08  0.251E-04    1.79      59.3  T
     SCC iter.                  ...        0 min,  0.092 sec
     gradient                   ...        0 min,  0.011 sec
 * total energy  :   -68.6050948 Eh     change       -0.3041882E-04 Eh
   gradient norm :     0.0020671 Eh/α   predicted    -0.1520240E-04 ( -50.02%)
   displ. norm   :     0.1899070 α      lambda       -0.2448048E-04
   maximum displ.:     0.1195677 α      in ANC's #1, #4, #5, ...

........................................................................
.............................. CYCLE   34 ..............................
........................................................................
   1    -69.6355982 -0.696356E+02  0.332E-02    1.79       0.0  T
   2    -69.6355984 -0.243677E-06  0.186E-02    1.79       1.0  T
   3    -69.6355985 -0.223440E-07  0.256E-03    1.79       5.8  T
   4    -69.6355985  0.915527E-08  0.138E-03    1.79      10.8  T
   5    -69.6355985 -0.477494E-07  0.331E-04    1.79      45.0  T
   6    -69.6355985 -0.146416E-08  0.170E-04    1.79      87.6  T
     SCC iter.                  ...        0 min,  0.067 sec
     gradient                   ...        0 min,  0.010 sec
 * total energy  :   -68.6051145 Eh     change       -0.1976584E-04 Eh
   gradient norm :     0.0016372 Eh/α   predicted    -0.1268684E-04 ( -35.81%)
   displ. norm   :     0.3266504 α      lambda       -0.2650050E-04
   maximum displ.:     0.2093341 α      in ANC's #1, #4, #5, ...

........................................................................
.............................. CYCLE   35 ..............................
........................................................................
   1    -69.6350382 -0.696350E+02  0.601E-02    1.78       0.0  T
   2    -69.6350388 -0.646374E-06  0.336E-02    1.78       1.0  T
   3    -69.6350388 -0.337021E-07  0.458E-03    1.78       3.3  T
   4    -69.6350388  0.596583E-07  0.286E-03    1.78       5.2  T
   5    -69.6350390 -0.214499E-06  0.503E-04    1.78      29.6  T
   6    -69.6350390 -0.495768E-08  0.275E-04    1.78      54.2  T
     SCC iter.                  ...        0 min,  0.075 sec
     gradient                   ...        0 min,  0.009 sec
 * total energy  :   -68.6051447 Eh     change       -0.3020618E-04 Eh
   gradient norm :     0.0015362 Eh/α   predicted    -0.1388346E-04 ( -54.04%)
   displ. norm   :     0.2419223 α      lambda       -0.2084687E-04
   maximum displ.:     0.1611679 α      in ANC's #1, #4, #5, ...

........................................................................
.............................. CYCLE   36 ..............................
........................................................................
   1    -69.6355227 -0.696355E+02  0.480E-02    1.78       0.0  T
   2    -69.6355231 -0.438699E-06  0.266E-02    1.78       1.0  T
   3    -69.6355231  0.180799E-07  0.392E-03    1.78       3.8  T
   4    -69.6355231  0.102992E-07  0.250E-03    1.78       6.0  T
   5    -69.6355233 -0.155536E-06  0.419E-04    1.78      35.6  T
   6    -69.6355233 -0.425429E-08  0.204E-04    1.78      73.0  T
     SCC iter.                  ...        0 min,  0.100 sec
     gradient                   ...        0 min,  0.010 sec
 * total energy  :   -68.6051687 Eh     change       -0.2391686E-04 Eh
   gradient norm :     0.0008219 Eh/α   predicted    -0.1069504E-04 ( -55.28%)
   displ. norm   :     0.1749790 α      lambda       -0.1323293E-04
   maximum displ.:     0.1199844 α      in ANC's #1, #4, #5, ...

........................................................................
.............................. CYCLE   37 ..............................
........................................................................
   1    -69.6360523 -0.696361E+02  0.346E-02    1.78       0.0  T
   2    -69.6360526 -0.245680E-06  0.192E-02    1.78       1.0  T
   3    -69.6360525  0.303811E-07  0.298E-03    1.78       5.0  T
   4    -69.6360526 -0.139528E-07  0.189E-03    1.78       7.9  T
   5    -69.6360526 -0.861909E-07  0.326E-04    1.78      45.7  T
   6    -69.6360526 -0.261763E-08  0.146E-04    1.78     102.3  T
     SCC iter.                  ...        0 min,  0.094 sec
     gradient                   ...        0 min,  0.009 sec
 * total energy  :   -68.6051844 Eh     change       -0.1569845E-04 Eh
   gradient norm :     0.0008734 Eh/α   predicted    -0.6708622E-05 ( -57.27%)
   displ. norm   :     0.1463563 α      lambda       -0.1114693E-04
   maximum displ.:     0.1057058 α      in ANC's #1, #4, #3, ...

........................................................................
.............................. CYCLE   38 ..............................
........................................................................
   1    -69.6360841 -0.696361E+02  0.292E-02    1.78       0.0  T
   2    -69.6360843 -0.179100E-06  0.161E-02    1.78       1.0  T
   3    -69.6360843 -0.150912E-07  0.234E-03    1.78       6.4  T
   4    -69.6360843  0.226324E-07  0.137E-03    1.78      10.9  T
   5    -69.6360844 -0.531970E-07  0.244E-04    1.78      61.0  T
   6    -69.6360844 -0.130967E-08  0.111E-04    1.78     134.1  T
     SCC iter.                  ...        0 min,  0.093 sec
     gradient                   ...        0 min,  0.010 sec
 * total energy  :   -68.6051971 Eh     change       -0.1272059E-04 Eh
   gradient norm :     0.0008426 Eh/α   predicted    -0.5630847E-05 ( -55.73%)
   displ. norm   :     0.1257102 α      lambda       -0.9098676E-05
   maximum displ.:     0.0898175 α      in ANC's #1, #4, #3, ...

........................................................................
.............................. CYCLE   39 ..............................
........................................................................
   1    -69.6362052 -0.696362E+02  0.235E-02    1.78       0.0  T
   2    -69.6362053 -0.114030E-06  0.130E-02    1.78       1.2  T
   3    -69.6362053 -0.825693E-08  0.195E-03    1.78       7.6  T
   4    -69.6362053  0.161875E-07  0.115E-03    1.78      13.0  T
   5    -69.6362053 -0.391137E-07  0.179E-04    1.78      83.2  T
   6    -69.6362053 -0.595406E-09  0.925E-05    1.78     161.1  T
     SCC iter.                  ...        0 min,  0.092 sec
     gradient                   ...        0 min,  0.009 sec
 * total energy  :   -68.6052081 Eh     change       -0.1106365E-04 Eh
   gradient norm :     0.0007496 Eh/α   predicted    -0.4583751E-05 ( -58.57%)
   displ. norm   :     0.1441477 α      lambda       -0.9641628E-05
   maximum displ.:     0.1055120 α      in ANC's #1, #4, #3, ...

........................................................................
.............................. CYCLE   40 ..............................
........................................................................
   1    -69.6361615 -0.696362E+02  0.254E-02    1.78       0.0  T
   2    -69.6361617 -0.125793E-06  0.140E-02    1.78       1.1  T
   3    -69.6361617 -0.114533E-07  0.209E-03    1.78       7.1  T
   4    -69.6361617  0.127359E-07  0.113E-03    1.78      13.2  T
   5    -69.6361617 -0.372429E-07  0.168E-04    1.78      88.9  T
   6    -69.6361617 -0.533177E-09  0.883E-05    1.78     168.9  T
     SCC iter.                  ...        0 min,  0.092 sec
     gradient                   ...        0 min,  0.010 sec
 * total energy  :   -68.6052202 Eh     change       -0.1209202E-04 Eh
   gradient norm :     0.0007139 Eh/α   predicted    -0.4868382E-05 ( -59.74%)
   displ. norm   :     0.1597883 α      lambda       -0.1025404E-04
   maximum displ.:     0.1163180 α      in ANC's #1, #4, #3, ...

........................................................................
.............................. CYCLE   41 ..............................
........................................................................
   1    -69.6359428 -0.696359E+02  0.279E-02    1.78       0.0  T
   2    -69.6359429 -0.153611E-06  0.154E-02    1.78       1.0  T
   3    -69.6359429  0.118578E-07  0.242E-03    1.78       6.2  T
   4    -69.6359429 -0.203880E-08  0.146E-03    1.78      10.2  T
   5    -69.6359430 -0.565585E-07  0.202E-04    1.78      73.8  T
   6    -69.6359430 -0.877407E-09  0.936E-05    1.78     159.3  T
     SCC iter.                  ...        0 min,  0.094 sec
     gradient                   ...        0 min,  0.010 sec
 * total energy  :   -68.6052327 Eh     change       -0.1251551E-04 Eh
   gradient norm :     0.0006565 Eh/α   predicted    -0.5187247E-05 ( -58.55%)
   displ. norm   :     0.1926218 α      lambda       -0.1139038E-04
   maximum displ.:     0.1399658 α      in ANC's #1, #3, #4, ...

........................................................................
.............................. CYCLE   42 ..............................
........................................................................
   1    -69.6358220 -0.696358E+02  0.320E-02    1.78       0.0  T
   2    -69.6358222 -0.208664E-06  0.176E-02    1.78       1.0  T
   3    -69.6358223 -0.815042E-08  0.269E-03    1.78       5.5  T
   4    -69.6358222  0.112258E-07  0.156E-03    1.78       9.5  T
   5    -69.6358223 -0.625108E-07  0.245E-04    1.78      60.8  T
   6    -69.6358223 -0.129607E-08  0.112E-04    1.78     132.6  T
     SCC iter.                  ...        0 min,  0.093 sec
     gradient                   ...        0 min,  0.010 sec
 * total energy  :   -68.6052453 Eh     change       -0.1254485E-04 Eh
   gradient norm :     0.0009424 Eh/α   predicted    -0.5790448E-05 ( -53.84%)
   displ. norm   :     0.1732813 α      lambda       -0.8103299E-05
   maximum displ.:     0.1249367 α      in ANC's #1, #3, #4, ...
 * RMSD in coord.:     0.5689320 α      energy gain  -0.7792682E-03 Eh

generating ANC from model Hessian ...
Using Lindh-Hessian (1995)
 Shifting diagonal of input Hessian by    9.8777350629818145E-003
 Lowest  eigenvalues of input Hessian
    0.000000    0.000000    0.000000    0.000000    0.000000    0.000000
    0.010000    0.010257    0.010347    0.010542    0.010718    0.011462
    0.012750    0.012835    0.013187    0.014124    0.014261    0.015378
 Highest eigenvalues
    1.855817    1.901420    1.910183    1.962017    2.004045    2.026018


........................................................................
.............................. CYCLE   43 ..............................
........................................................................
   1    -69.6355600 -0.696356E+02  0.301E-02    1.78       0.0  T
   2    -69.6355602 -0.189350E-06  0.166E-02    1.78       1.0  T
   3    -69.6355602 -0.392085E-08  0.252E-03    1.78       5.9  T
   4    -69.6355602 -0.122741E-08  0.146E-03    1.78      10.2  T
   5    -69.6355602 -0.526695E-07  0.228E-04    1.78      65.3  T
   6    -69.6355602 -0.112655E-08  0.109E-04    1.78     136.3  T
     SCC iter.                  ...        0 min,  0.095 sec
     gradient                   ...        0 min,  0.009 sec
 * total energy  :   -68.6052540 Eh     change       -0.8723585E-05 Eh
   gradient norm :     0.0008836 Eh/α   predicted     0.0000000E+00 (-100.00%)
   displ. norm   :     0.0204573 α      lambda       -0.7483708E-06
   maximum displ.:     0.0104405 α      in ANC's #9, #16, #7, ...

........................................................................
.............................. CYCLE   44 ..............................
........................................................................
   1    -69.6359789 -0.696360E+02  0.579E-03    1.78       0.0  T
   2    -69.6359789 -0.156141E-07  0.323E-03    1.78       4.6  T
   3    -69.6359789  0.193386E-07  0.935E-04    1.78      15.9  T
   4    -69.6359789 -0.235090E-07  0.370E-04    1.78      40.2  T
     SCC iter.                  ...        0 min,  0.064 sec
     gradient                   ...        0 min,  0.009 sec
 * total energy  :   -68.6052585 Eh     change       -0.4453753E-05 Eh
   gradient norm :     0.0004220 Eh/α   predicted    -0.1969977E-05 ( -55.77%)
   displ. norm   :     0.0539591 α      lambda       -0.6053935E-05
   maximum displ.:     0.0274146 α      in ANC's #9, #3, #16, ...

   *** GEOMETRY OPTIMIZATION CONVERGED AFTER 44 ITERATIONS ***

------------------------------------------------------------------------
 total energy gain   :        -0.0169495 Eh      -10.6360 kcal/mol
 total RMSD          :         1.5237122 a0        0.8063 Å
 total power (kW/mol):        -1.0113825 (step)   -8.5486 (real)
------------------------------------------------------------------------

 ANCopt (total)                0 d,  0 h,  0 min,  5.206 sec
 optimizer setup                ...        0 min,  0.000 sec (  0.004%)
 model hessian                  ...        0 min,  0.024 sec (  0.469%)
 ANC generation                 ...        0 min,  0.028 sec (  0.528%)
 coordinate transformation      ...        0 min,  0.003 sec (  0.058%)
 single point calculation       ...        0 min,  5.129 sec ( 98.524%)
 optimization log               ...        0 min,  0.007 sec (  0.138%)
 hessian update                 ...        0 min,  0.002 sec (  0.047%)
 rational function              ...        0 min,  0.006 sec (  0.117%)

================
 final structure:
================
45
 xtb: 6.5.1 (fef0646)
N            3.31310558829406       -0.96305901317117        0.91975351469785
C            2.67188979972868        0.21627844997211        0.29881967587114
C            3.58129352634712        1.44358643651560        0.40097998279119
C            4.77118333518488        1.35291646464736       -0.49427006580406
C            5.04504246977296        2.07685259339219       -1.61473551551793
C            6.26112580402307        1.72493760968377       -2.23068942545276
C            6.93436190630877        0.72031510566929       -1.58530017358552
C            8.17222174777788        0.10356357570724       -1.92040655853011
C            8.82889243222822       -0.90536672964186       -1.26134411706054
C           10.03826616342810       -1.29456609254346       -1.86099331791211
C           10.90790642132522       -2.37142208952318       -1.31085459058552
C           10.31483313005435       -0.56889380901506       -3.00490157850619
C           11.41257624287378       -0.65109517948850       -3.90490216936158
C           11.62676530596767        0.12097377063964       -5.02539220919174
C           12.79220720291513       -0.20509024918768       -5.72443794439759
C           13.50234321022531       -1.23764209463416       -5.15646073282272
C           14.71572317792489       -1.86904223018757       -5.56961403852623
C           15.64211435256309       -1.49583459829244       -6.52059009276433
C           15.58521436940458       -0.26337753812089       -7.36070613900521
C           16.70578422627717       -2.42417831616806       -6.61420612239801
C           16.59720776298582       -3.47212064142302       -5.75939150584537
S           15.18100274545366       -3.36690081013035       -4.79674154221402
S           12.70122894023109       -1.81020825629014       -3.72046489494725
S            9.06425688044854        0.60624810949824       -3.33298168887127
S            6.05645745782421        0.21192967513662       -0.18333567345798
H            2.73055431432469       -1.79951527845792        0.80884008784222
H            3.47467373778796       -0.79674325974931        1.91929118586482
H            4.23042406072723       -1.12987903089067        0.48008350251893
H            1.73332826584383        0.42671523501308        0.80955092676505
H            2.46370273773407        0.00389712021557       -0.74921502530799
H            3.90997398903873        1.57352752679985        1.43268602337203
H            3.01258446176299        2.32770901682285        0.11586463978200
H            4.40073202192992        2.84773253114530       -1.99715046328313
H            6.64740443682269        2.18626328702078       -3.12276032127860
H            8.45206674603017       -1.35933935990781       -0.36131993401883
H           10.48633483649641       -2.75816574359693       -0.38806969189791
H           11.90989935369242       -1.99269932562071       -1.11139676250218
H           11.00630344072159       -3.18791223354592       -2.02578442517778
H           10.95106999634278        0.90093574040094       -5.33231267349812
H           13.08474374649187        0.29290972448157       -6.62811902986105
H           15.39279371879599        0.61405862193964       -6.74588441593549
H           14.79527949941493       -0.34299906305763       -8.10714544433484
H           16.53112198259605       -0.12878306239440       -7.87814830463209
H           17.52527090488959       -2.30544053797226       -7.30039167115528
H           17.25902354899281       -4.30409605168583       -5.62939127985889

 Bond Distances (Angstroems)
 ---------------------------
N1-C2=1.4790         N1-H26=1.0253        N1-H27=1.0261        N1-H28=1.0308        C2-N1=1.4790         C2-C3=1.5309         
C2-H29=1.0890        C2-H30=1.0894        C3-C2=1.5309         C3-C4=1.4918         C3-H31=1.0906        C3-H32=1.0892        
C4-C3=1.4918         C4-C5=1.3618         C4-S25=1.7466        C5-C4=1.3618         C5-C6=1.4079         C5-H33=1.0750        
C6-C5=1.4079         C6-C7=1.3708         C6-H34=1.0760        C7-C6=1.3708         C7-C8=1.4230         C7-S25=1.7305        
C8-C7=1.4230         C8-C9=1.3724         C8-S24=1.7446        C9-C8=1.3724         C9-C10=1.4049        C9-H35=1.0762        
C10-C9=1.4049        C10-C11=1.4895       C10-C12=1.3826       C11-C10=1.4895       C11-H36=1.0857       C11-H37=1.0896       
C11-H38=1.0897       C12-C10=1.3826       C12-C13=1.4219       C12-S24=1.7472       C13-C12=1.4219       C13-C14=1.3775       
C13-S23=1.7430       C14-C13=1.3775       C14-C15=1.3976       C14-H39=1.0766       C15-C14=1.3976       C15-C16=1.3759       
C15-H40=1.0725       C16-C15=1.3759       C16-C17=1.4289       C16-S23=1.7412       C17-C16=1.4289       C17-C18=1.3791       
C17-S22=1.7485       C18-C17=1.3791       C18-C19=1.4926       C18-C20=1.4149       C19-C18=1.4926       C19-H41=1.0885       
C19-H42=1.0897       C19-H43=1.0866       C20-C18=1.4149       C20-C21=1.3567       C20-H44=1.0754       C21-C20=1.3567       
C21-S22=1.7156       C21-H45=1.0710       S22-C17=1.7485       S22-C21=1.7156       S23-C13=1.7430       S23-C16=1.7412       
S24-C8=1.7446        S24-C12=1.7472       S25-C4=1.7466        S25-C7=1.7305        H26-N1=1.0253        H27-N1=1.0261        
H28-N1=1.0308        H29-C2=1.0890        H30-C2=1.0894        H31-C3=1.0906        H32-C3=1.0892        H33-C5=1.0750        
H34-C6=1.0760        H35-C9=1.0762        H36-C11=1.0857       H37-C11=1.0896       H38-C11=1.0897       H39-C14=1.0766       
H40-C15=1.0725       H41-C19=1.0885       H42-C19=1.0897       H43-C19=1.0866       H44-C20=1.0754       H45-C21=1.0710       
 C  H  Rav=1.0830 sigma=0.0072  Rmin=1.0710  Rmax=1.0906    17
 C  C  Rav=1.4148 sigma=0.0497  Rmin=1.3567  Rmax=1.5309    19
 N  H  Rav=1.0274 sigma=0.0024  Rmin=1.0253  Rmax=1.0308     3
 N  C  Rav=1.4790 sigma=0.0000  Rmin=1.4790  Rmax=1.4790     1
 S  C  Rav=1.7397 sigma=0.0105  Rmin=1.7156  Rmax=1.7485     8

 selected bond angles (degree)
 --------------------
H26-N1-C2=111.02               H27-N1-C2=110.36               H27-N1-H26=109.09              H28-N1-C2=109.62               
H28-N1-H26=109.11              H28-N1-H27=107.55              C3-C2-N1=110.71                H29-C2-N1=109.32               
H29-C2-C3=109.01               H30-C2-N1=109.35               H30-C2-C3=109.51               H30-C2-H29=108.91              
C4-C3-C2=112.65                H31-C3-C2=109.74               H31-C3-C4=109.55               H32-C3-C2=108.85               
H32-C3-C4=107.98               H32-C3-H31=107.96              C5-C4-C3=128.45                S25-C4-C3=121.32               
S25-C4-C5=110.23               C6-C5-C4=113.63                H33-C5-C4=123.60               H33-C5-C6=122.77               
C7-C6-C5=113.67                H34-C6-C5=124.45               H34-C6-C7=121.89               C8-C7-C6=129.35                
S25-C7-C6=110.34               S25-C7-C8=120.32               C9-C8-C7=128.44                S24-C8-C7=120.70               
S24-C8-C9=110.85               C10-C9-C8=114.24               H35-C9-C8=122.97               H35-C9-C10=122.79              
C11-C10-C9=123.04              C12-C10-C9=112.33              C12-C10-C11=124.63             

 selected dihedral angles (degree)
 ---------------------------------
C3-C2-N1-H26=183.10           C3-C2-N1-H27= 62.01           C3-C2-N1-H28=303.72           H29-C2-N1-H26= 63.00          
H29-C2-N1-H27=301.90          H29-C2-N1-H28=183.62          H30-C2-N1-H26=303.85          H30-C2-N1-H27=182.75          
H30-C2-N1-H28= 64.47          C4-C3-C2-N1= 71.18            C4-C3-C2-H29=191.47           C4-C3-C2-H30=310.53           
H31-C3-C2-N1=308.85           H31-C3-C2-H29= 69.14          H31-C3-C2-H30=188.20          H32-C3-C2-N1=190.91           
H32-C3-C2-H29=311.20          H32-C3-C2-H30= 70.26          C5-C4-C3-C2=110.35            C5-C4-C3-H31=232.78           
C5-C4-C3-H32=350.12           S25-C4-C3-C2=290.40           S25-C4-C3-H31= 52.84          S25-C4-C3-H32=170.17          
C6-C5-C4-C3=180.48            C6-C5-C4-S25=  0.43           H33-C5-C4-C3=  0.68           H33-C5-C4-S25=180.63          
C7-C6-C5-C4=  0.09            C7-C6-C5-H33=179.89           H34-C6-C5-C4=180.15           H34-C6-C5-H33=359.95          
C8-C7-C6-C5=179.33            C8-C7-C6-H34=359.27           S25-C7-C6-C5=359.44           S25-C7-C6-H34=179.38          
C9-C8-C7-C6=180.19            C9-C8-C7-S25=  0.07           S24-C8-C7-C6=  0.00           S24-C8-C7-S25=179.89          
C10-C9-C8-C7=179.74           C10-C9-C8-S24=359.91          H35-C9-C8-C7=359.64           H35-C9-C8-S24=179.80          
C11-C10-C9-C8=180.06          C11-C10-C9-H35=  0.17         C12-C10-C9-C8=359.97          C12-C10-C9-H35=180.08         
           -------------------------------------------------
          |                Final Singlepoint                |
           -------------------------------------------------

          ...................................................
          :                      SETUP                      :
          :.................................................:
          :  # basis functions                 144          :
          :  # atomic orbitals                 140          :
          :  # shells                           74          :
          :  # electrons                       128          :
          :  max. iterations                   250          :
          :  Hamiltonian                  GFN2-xTB          :
          :  restarted?                      false          :
          :  GBSA solvation                   true          :
          :  PC potential                    false          :
          :  electronic temp.          300.0000000     K    :
          :  accuracy                    1.0000000          :
          :  -> integral cutoff          0.2500000E+02      :
          :  -> integral neglect         0.1000000E-07      :
          :  -> SCF convergence          0.1000000E-05 Eh   :
          :  -> wf. convergence          0.1000000E-03 e    :
          :  Broyden damping             0.4000000          :
          ...................................................

 iter      E             dE          RMSdq      gap      omega  full diag
   1    -69.6359789 -0.696360E+02  0.104E-04    1.78       0.0  T
   2    -69.6359789 -0.113772E-09  0.678E-05    1.78     220.0  T
   3    -69.6359789 -0.763265E-10  0.397E-05    1.78     375.5  T

   *** convergence criteria satisfied after 3 iterations ***

         #    Occupation            Energy/Eh            Energy/eV
      -------------------------------------------------------------
         1        2.0000           -0.7406553             -20.1543
       ...           ...                  ...                  ...
        58        2.0000           -0.4104560             -11.1691
        59        2.0000           -0.4027096             -10.9583
        60        2.0000           -0.4018791             -10.9357
        61        2.0000           -0.3977520             -10.8234
        62        2.0000           -0.3952369             -10.7549
        63        2.0000           -0.3816885             -10.3863
        64        2.0000           -0.3551220              -9.6634 (HOMO)
        65                         -0.2898635              -7.8876 (LUMO)
        66                         -0.2628489              -7.1525
        67                         -0.2334687              -6.3530
        68                         -0.2252566              -6.1295
        69                         -0.2217533              -6.0342
       ...                                ...                  ...
       140                          0.7000606              19.0496
      -------------------------------------------------------------
                  HL-Gap            0.0652585 Eh            1.7758 eV
             Fermi-level           -0.3224928 Eh           -8.7755 eV

 SCC (total)                   0 d,  0 h,  0 min,  0.062 sec
 SCC setup                      ...        0 min,  0.000 sec (  0.636%)
 Dispersion                     ...        0 min,  0.001 sec (  0.996%)
 classical contributions        ...        0 min,  0.000 sec (  0.083%)
 integral evaluation            ...        0 min,  0.003 sec (  5.162%)
 iterations                     ...        0 min,  0.047 sec ( 75.695%)
 molecular gradient             ...        0 min,  0.009 sec ( 14.166%)
 printout                       ...        0 min,  0.002 sec (  2.790%)

         :::::::::::::::::::::::::::::::::::::::::::::::::::::
         ::                     SUMMARY                     ::
         :::::::::::::::::::::::::::::::::::::::::::::::::::::
         :: total energy             -68.605258472872 Eh    ::
         :: total w/o Gsasa/hb       -68.596482877815 Eh    ::
         :: gradient norm              0.000423461070 Eh/a0 ::
         :: HOMO-LUMO gap              1.775773156706 eV    ::
         ::.................................................::
         :: SCC energy               -69.635978878504 Eh    ::
         :: -> isotropic ES            0.136509698621 Eh    ::
         :: -> anisotropic ES         -0.033247635359 Eh    ::
         :: -> anisotropic XC          0.034202181694 Eh    ::
         :: -> dispersion             -0.055792412213 Eh    ::
         :: -> Gsolv                  -0.122484483284 Eh    ::
         ::    -> Gelec               -0.113708888227 Eh    ::
         ::    -> Gsasa                0.001286997477 Eh    ::
         ::    -> Ghb                 -0.011143352232 Eh    ::
         ::    -> Gshift               0.001080759698 Eh    ::
         :: repulsion energy           1.031390830284 Eh    ::
         :: add. restraining           0.000000000000 Eh    ::
         :: total charge               1.000000000000 e     ::
         :::::::::::::::::::::::::::::::::::::::::::::::::::::

           -------------------------------------------------
          |                Property Printout                |
           -------------------------------------------------

    * Orbital Energies and Occupations

         #    Occupation            Energy/Eh            Energy/eV
      -------------------------------------------------------------
         1        2.0000           -0.7406553             -20.1543
       ...           ...                  ...                  ...
        52        2.0000           -0.4500256             -12.2458
        53        2.0000           -0.4486005             -12.2070
        54        2.0000           -0.4469829             -12.1630
        55        2.0000           -0.4438710             -12.0783
        56        2.0000           -0.4405909             -11.9891
        57        2.0000           -0.4370040             -11.8915
        58        2.0000           -0.4104560             -11.1691
        59        2.0000           -0.4027096             -10.9583
        60        2.0000           -0.4018791             -10.9357
        61        2.0000           -0.3977520             -10.8234
        62        2.0000           -0.3952369             -10.7549
        63        2.0000           -0.3816885             -10.3863
        64        2.0000           -0.3551220              -9.6634 (HOMO)
        65                         -0.2898635              -7.8876 (LUMO)
        66                         -0.2628489              -7.1525
        67                         -0.2334687              -6.3530
        68                         -0.2252566              -6.1295
        69                         -0.2217533              -6.0342
        70                         -0.2090063              -5.6874
        71                         -0.2064886              -5.6188
        72                         -0.1873969              -5.0993
        73                         -0.1845085              -5.0207
        74                         -0.1659859              -4.5167
        75                         -0.1537776              -4.1845
       ...                                ...                  ...
       140                          0.7000606              19.0496
      -------------------------------------------------------------
                  HL-Gap            0.0652585 Eh            1.7758 eV
             Fermi-level           -0.3224928 Eh           -8.7755 eV

     #   Z          covCN         q      C6AA      α(0)
     1   7 N        3.485    -0.163    24.520     7.354
     2   6 C        3.732    -0.041    21.403     6.603
     3   6 C        3.822    -0.096    22.304     6.721
     4   6 C        2.983     0.025    27.430     8.591
     5   6 C        3.110    -0.059    29.315     8.870
     6   6 C        3.121    -0.053    29.130     8.839
     7   6 C        3.018     0.009    27.801     8.649
     8   6 C        3.022     0.021    27.515     8.604
     9   6 C        3.100    -0.065    29.491     8.899
    10   6 C        3.121     0.001    27.820     8.638
    11   6 C        3.756    -0.121    22.880     6.820
    12   6 C        3.018     0.008    27.822     8.652
    13   6 C        3.030     0.018    27.581     8.614
    14   6 C        3.107    -0.057    29.272     8.865
    15   6 C        3.099    -0.058    29.319     8.874
    16   6 C        3.028     0.016    27.634     8.623
    17   6 C        3.034     0.005    27.887     8.662
    18   6 C        3.133    -0.005    27.937     8.652
    19   6 C        3.755    -0.114    22.740     6.799
    20   6 C        3.123    -0.056    29.207     8.850
    21   6 C        2.929    -0.025    28.631     8.775
    22  16 S        2.392    -0.060   143.529    20.164
    23  16 S        2.422    -0.055   143.330    20.150
    24  16 S        2.339    -0.099   145.175    20.279
    25  16 S        2.377    -0.030   142.282    20.076
    26   1 H        0.859     0.321     0.654     1.267
    27   1 H        0.859     0.315     0.670     1.283
    28   1 H        0.859     0.303     0.703     1.314
    29   1 H        0.925     0.126     1.569     1.959
    30   1 H        0.925     0.116     1.648     2.008
    31   1 H        0.924     0.106     1.734     2.059
    32   1 H        0.925     0.094     1.839     2.121
    33   1 H        0.926     0.049     2.338     2.391
    34   1 H        0.926     0.023     2.693     2.566
    35   1 H        0.926     0.065     2.138     2.287
    36   1 H        0.925     0.070     2.087     2.259
    37   1 H        0.925     0.058     2.225     2.333
    38   1 H        0.925     0.062     2.180     2.309
    39   1 H        0.926     0.039     2.465     2.455
    40   1 H        0.926     0.045     2.387     2.416
    41   1 H        0.925     0.054     2.271     2.357
    42   1 H        0.925     0.056     2.248     2.345
    43   1 H        0.925     0.057     2.239     2.340
    44   1 H        0.926     0.045     2.380     2.413
    45   1 H        0.927     0.055     2.261     2.351

 Mol. C6AA /au·bohr⁶  :      33904.751254
 Mol. C8AA /au·bohr⁸  :    1025070.380148
 Mol. α(0) /au        :        297.456082


Wiberg/Mayer (AO) data.
largest (>0.10) Wiberg bond orders for each atom

 ---------------------------------------------------------------------------
     #   Z sym  total        # sym  WBO       # sym  WBO       # sym  WBO
 ---------------------------------------------------------------------------
     1   7 N    3.649 --     2 C    0.973    27 H    0.886    26 H    0.883
                            28 H    0.874
     2   6 C    3.926 --     3 C    0.994     1 N    0.973    30 H    0.965
                            29 H    0.961
     3   6 C    3.983 --     4 C    1.026     2 C    0.994    32 H    0.959
                            31 H    0.952
     4   6 C    3.920 --     5 C    1.580    25 S    1.142     3 C    1.026
     5   6 C    3.985 --     4 C    1.580     6 C    1.297    33 H    0.962
     6   6 C    3.970 --     7 C    1.512     5 C    1.297    34 H    0.961
     7   6 C    3.955 --     6 C    1.512     8 C    1.165    25 S    1.107
     8   6 C    3.921 --     9 C    1.485     7 C    1.165    24 S    1.107
     9   6 C    3.979 --     8 C    1.485    10 C    1.307    35 H    0.958
    10   6 C    3.971 --    12 C    1.441     9 C    1.307    11 C    1.030
    11   6 C    3.992 --    10 C    1.030    36 H    0.979    37 H    0.962
                            38 H    0.961
    12   6 C    3.930 --    10 C    1.441    13 C    1.183    24 S    1.102
    13   6 C    3.936 --    14 C    1.463    12 C    1.183    23 S    1.118
    14   6 C    3.970 --    13 C    1.463    15 C    1.345    39 H    0.961
    15   6 C    3.984 --    16 C    1.472    14 C    1.345    40 H    0.960
    16   6 C    3.931 --    15 C    1.472    17 C    1.161    23 S    1.126
    17   6 C    3.944 --    18 C    1.474    16 C    1.161    22 S    1.118
    18   6 C    3.968 --    17 C    1.474    20 C    1.269    19 C    1.026
    19   6 C    3.995 --    18 C    1.026    43 H    0.982    41 H    0.971
                            42 H    0.965
    20   6 C    3.985 --    21 C    1.611    18 C    1.269    44 H    0.963
    21   6 C    3.924 --    20 C    1.611    22 S    1.187    45 H    0.969
    22  16 S    2.593 --    21 C    1.187    17 C    1.118
    23  16 S    2.587 --    16 C    1.126    13 C    1.118
    24  16 S    2.536 --     8 C    1.107    12 C    1.102
    25  16 S    2.569 --     4 C    1.142     7 C    1.107
    26   1 H    0.897 --     1 N    0.883
    27   1 H    0.901 --     1 N    0.886
    28   1 H    0.908 --     1 N    0.874
    29   1 H    0.983 --     2 C    0.961
    30   1 H    0.987 --     2 C    0.965
    31   1 H    0.987 --     3 C    0.952
    32   1 H    0.991 --     3 C    0.959
    33   1 H    0.997 --     5 C    0.962
    34   1 H    0.999 --     6 C    0.961
    35   1 H    0.995 --     9 C    0.958
    36   1 H    0.994 --    11 C    0.979
    37   1 H    0.996 --    11 C    0.962
    38   1 H    0.995 --    11 C    0.961
    39   1 H    0.998 --    14 C    0.961
    40   1 H    0.998 --    15 C    0.960
    41   1 H    0.996 --    19 C    0.971
    42   1 H    0.995 --    19 C    0.965
    43   1 H    0.996 --    19 C    0.982
    44   1 H    0.997 --    20 C    0.963
    45   1 H    0.996 --    21 C    0.969
 ---------------------------------------------------------------------------

Topologies differ in total number of bonds
Writing topology from bond orders to xtbtopo.mol

molecular dipole:
                 x           y           z       tot (Debye)
 q only:        5.486      -1.476       2.268
   full:        6.678      -1.095       1.204      17.470
molecular quadrupole (traceless):
                xx          xy          yy          xz          yz          zz
 q only:       26.482     -15.287     -14.421      18.297      -7.667     -12.061
  q+dip:       60.530      -8.292     -40.055     -18.617     -10.311     -20.476
   full:       60.667      -7.217     -39.432     -17.282      -8.275     -21.235

           -------------------------------------------------
          |                Geometry Summary                 |
           -------------------------------------------------

      molecular mass/u    :      402.6393858
   center of mass at/Å    :       10.1386236      -0.6714379      -3.0313370
  moments of inertia/u·Å² :        0.7398456E+03   0.9830799E+04   0.1045967E+05
rotational constants/cm⁻¹ :        0.2278534E-01   0.1714777E-02   0.1611679E-02

 * 47 selected distances

     #   Z          #   Z                                           value/Å
     1   7 N        2   6 C                                       1.4790381
     2   6 C        3   6 C                                       1.5309269
     4   6 C        5   6 C                                       1.3618096
     5   6 C        6   6 C                                       1.4078716
     6   6 C        7   6 C                                       1.3707811
     7   6 C        8   6 C                                       1.4230166
     8   6 C        9   6 C                                       1.3724141
     9   6 C       10   6 C                                       1.4048632
    10   6 C       11   6 C                                       1.4894784
    10   6 C       12   6 C                                       1.3826120
    12   6 C       13   6 C                                       1.4218996
    13   6 C       14   6 C                                       1.3774853
    14   6 C       15   6 C                                       1.3975829
    15   6 C       16   6 C                                       1.3758833
    16   6 C       17   6 C                                       1.4288643
    17   6 C       18   6 C                                       1.3790723
    18   6 C       19   6 C                                       1.4926431
    18   6 C       20   6 C                                       1.4149134
    20   6 C       21   6 C                                       1.3567167
    17   6 C       22  16 S                                       1.7485416 (max)
    21   6 C       22  16 S                                       1.7156350
    13   6 C       23  16 S                                       1.7430395
    16   6 C       23  16 S                                       1.7411780
     8   6 C       24  16 S                                       1.7446454
    12   6 C       24  16 S                                       1.7471510
     4   6 C       25  16 S                                       1.7465570
     7   6 C       25  16 S                                       1.7305135
     1   7 N       26   1 H                                       1.0253424 (min)
     1   7 N       27   1 H                                       1.0260804
     1   7 N       28   1 H                                       1.0308307
     2   6 C       29   1 H                                       1.0890491
     2   6 C       30   1 H                                       1.0894148
     3   6 C       31   1 H                                       1.0905655
     3   6 C       32   1 H                                       1.0892170
     5   6 C       33   1 H                                       1.0750038
     6   6 C       34   1 H                                       1.0760220
     9   6 C       35   1 H                                       1.0761656
    11   6 C       36   1 H                                       1.0857373
    11   6 C       37   1 H                                       1.0895891
    11   6 C       38   1 H                                       1.0897078
    14   6 C       39   1 H                                       1.0766175
    15   6 C       40   1 H                                       1.0724837
    19   6 C       41   1 H                                       1.0885430
    19   6 C       42   1 H                                       1.0897287
    19   6 C       43   1 H                                       1.0865558
    20   6 C       44   1 H                                       1.0754106
    21   6 C       45   1 H                                       1.0710198

 * 5 distinct bonds (by element types)

   Z      Z             #   av. dist./Å        max./Å        min./Å
   1 H    6 C          17     1.0829901     1.0905655     1.0710198
   6 C    6 C          18     1.4104908     1.5309269     1.3567167
   1 H    7 N           3     1.0274178     1.0308307     1.0253424
   6 C    7 N           1     1.4790381     1.4790381     1.4790381
   6 C   16 S           8     1.7396576     1.7485416     1.7156350


optimized geometry written to: xtbopt.xyz


           -------------------------------------------------
          | TOTAL ENERGY              -68.605258472872 Eh   |
          | GRADIENT NORM               0.000423461070 Eh/α |
          | HOMO-LUMO GAP               1.775773156706 eV   |
           -------------------------------------------------

------------------------------------------------------------------------
 * finished run on 2023/01/24 at 14:57:20.988     
------------------------------------------------------------------------
 total:
 * wall-time:     0 d,  0 h,  0 min,  5.549 sec
 *  cpu-time:     0 d,  0 h, 13 min,  9.237 sec
 * ratio c/w:   142.234 speedup
 SCF:
 * wall-time:     0 d,  0 h,  0 min,  0.253 sec
 *  cpu-time:     0 d,  0 h,  0 min, 35.941 sec
 * ratio c/w:   142.238 speedup
 ANC optimizer:
 * wall-time:     0 d,  0 h,  0 min,  5.269 sec
 *  cpu-time:     0 d,  0 h, 12 min, 29.611 sec
 * ratio c/w:   142.266 speedup

