 Entering Gaussian System
 *********************************************
 Gaussian 98:
 frequency output generated by the xtb code
 *********************************************
                         Standard orientation:
 --------------------------------------------------------------------
  Center     Atomic     Atomic              Coordinates (Angstroms)
  Number     Number      Type              X           Y           Z
 --------------------------------------------------------------------
    1          7             0       -4.099921    0.400780   -0.753756
    2          6             0       -3.233529   -0.047012    0.375541
    3          6             0       -1.753901   -0.216491   -0.010434
    4          6             0       -0.950461   -0.948873    1.096285
    5          6             0        0.523547   -1.142312    0.699980
    6          6             0        1.198942    0.198734    0.350326
    7          6             0        2.632090   -0.014144   -0.080549
    8          8             0        3.348938   -0.924867    0.602740
    9          8             0        3.082180    0.631722   -0.997702
   10          6             0        0.403452    0.942147   -0.743753
   11          6             0       -1.072425    1.132055   -0.352118
   12          1             0       -5.090470    0.455966   -0.470923
   13          1             0       -4.044927   -0.253242   -1.548656
   14          1             0       -3.831377    1.334078   -1.097899
   15          1             0       -3.620993   -0.997770    0.760224
   16          1             0       -3.314923    0.663230    1.205521
   17          1             0       -1.715998   -0.842903   -0.914853
   18          1             0       -1.418466   -1.913130    1.330478
   19          1             0       -1.007505   -0.364941    2.021244
   20          1             0        0.595710   -1.807964   -0.167559
   21          1             0        1.091217   -1.644303    1.495219
   22          1             0        1.222009    0.826206    1.253634
   23          1             0        4.250826   -0.941582    0.239447
   24          1             0        0.478786    0.371345   -1.676522
   25          1             0        0.891387    1.902134   -0.961757
   26          1             0       -1.617566    1.644837   -1.152987
   27          1             0       -1.138779    1.794517    0.517521
 --------------------------------------------------------------------
     1 basis functions        1 primitive gaussians
     1 alpha electrons        1 beta electrons

 Harmonic frequencies (cm**-1), IR intensities (km*mol⁻¹),
 Raman scattering activities (A**4/amu), Raman depolarization ratios,
 reduced masses (AMU), force constants (mDyne/A) and normal coordinates:
                      1                      2                      3
                        a                      a                      a 
 Frequencies --    59.5342               100.0777               113.6620
 Red. masses --    11.7765                13.3914                 8.7100
 Frc consts  --     0.0000                 0.0000                 0.0000
 IR Inten    --     4.1216                11.7938                13.7712
 Raman Activ --     0.0000                 0.0000                 0.0000
 Depolar     --     0.0000                 0.0000                 0.0000
 Atom AN      X      Y      Z        X      Y      Z        X      Y      Z
   1   7     0.11  -0.19  -0.28     0.05  -0.26  -0.20    -0.25  -0.45   0.06
   2   6    -0.02  -0.09  -0.14    -0.02   0.05  -0.02     0.03   0.27   0.13
   3   6     0.05   0.09   0.06     0.02   0.06   0.11    -0.02   0.19  -0.03
   4   6    -0.00   0.04   0.06    -0.00   0.17   0.20    -0.00  -0.01  -0.18
   5   6     0.01   0.09   0.09    -0.02   0.09   0.19    -0.04  -0.05  -0.27
   6   6     0.05   0.09   0.16     0.01   0.02   0.01     0.02  -0.02  -0.06
   7   6    -0.05  -0.08  -0.09    -0.00  -0.00  -0.03     0.05  -0.04   0.04
   8   8     0.03   0.01  -0.05    -0.15  -0.44  -0.47    -0.01  -0.02   0.16
   9   8    -0.22  -0.36  -0.37     0.11   0.35   0.26     0.14  -0.09   0.06
  10   6     0.01   0.27   0.30    -0.00  -0.02  -0.01     0.07   0.12   0.00
  11   6     0.00   0.17   0.30     0.01   0.04   0.02     0.08   0.17   0.05
  12   1     0.01  -0.10  -0.12     0.00  -0.08  -0.08    -0.04  -0.05   0.08
  13   1     0.09  -0.04  -0.08     0.05  -0.11  -0.01    -0.14  -0.27   0.13
  14   1     0.00  -0.04  -0.05    -0.00  -0.08  -0.10    -0.08  -0.19  -0.18
  15   1     0.01  -0.04  -0.06     0.00   0.03   0.04     0.05   0.13   0.20
  16   1    -0.06  -0.03  -0.04    -0.04   0.06  -0.05     0.03   0.20  -0.06
  17   1     0.06   0.05  -0.00     0.02  -0.01   0.05    -0.05   0.08  -0.03
  18   1     0.00   0.01  -0.00    -0.01   0.06   0.09    -0.02  -0.01  -0.08
  19   1    -0.01  -0.00   0.03     0.00   0.08   0.04     0.02  -0.04  -0.03
  20   1     0.01   0.04   0.02    -0.02  -0.01   0.08    -0.03   0.03  -0.11
  21   1     0.00   0.02   0.02    -0.00   0.05   0.07    -0.01  -0.06  -0.11
  22   1     0.06  -0.00   0.06     0.02   0.03  -0.02    -0.01  -0.04   0.01
  23   1    -0.01  -0.03  -0.06    -0.04  -0.11  -0.13     0.00  -0.01   0.06
  24   1     0.01   0.12   0.06    -0.02  -0.02   0.01     0.01   0.06  -0.01
  25   1    -0.00   0.09   0.13     0.01  -0.01  -0.02     0.03   0.03   0.03
  26   1     0.00   0.08   0.11    -0.00   0.00   0.01     0.02   0.08   0.04
  27   1    -0.01   0.01   0.12     0.01   0.02  -0.00     0.04   0.03   0.03
                      4                      5                      6
                        a                      a                      a 
 Frequencies --   148.1097               177.3063               204.2050
 Red. masses --     7.6686                 5.4388                10.9045
 Frc consts  --     0.0000                 0.0000                 0.0000
 IR Inten    --     9.9185                 1.2042                 5.6239
 Raman Activ --     0.0000                 0.0000                 0.0000
 Depolar     --     0.0000                 0.0000                 0.0000
 Atom AN      X      Y      Z        X      Y      Z        X      Y      Z
   1   7    -0.23  -0.08   0.23     0.03  -0.05  -0.14    -0.36   0.00   0.09
   2   6     0.03  -0.22  -0.03    -0.06   0.21   0.05    -0.01   0.10  -0.11
   3   6     0.04   0.05  -0.12    -0.05   0.12   0.14    -0.03   0.00  -0.22
   4   6     0.05   0.13  -0.08    -0.05   0.01   0.08    -0.13   0.02  -0.11
   5   6     0.05   0.18  -0.02    -0.10  -0.18  -0.08    -0.02  -0.01   0.25
   6   6     0.04   0.18  -0.03    -0.02  -0.22  -0.08     0.10  -0.06   0.28
   7   6     0.03  -0.03   0.03     0.02  -0.02  -0.03     0.06  -0.02   0.07
   8   8    -0.21  -0.21   0.09     0.22   0.16   0.02     0.38   0.00  -0.21
   9   8     0.24  -0.16   0.05    -0.06   0.11   0.01    -0.23   0.05  -0.02
  10   6     0.04   0.17  -0.05    -0.01  -0.19  -0.06     0.20  -0.05   0.20
  11   6    -0.02   0.08  -0.13     0.07   0.04   0.10     0.09  -0.06  -0.20
  12   1    -0.09  -0.35   0.04    -0.06  -0.42  -0.18    -0.08  -0.05   0.10
  13   1     0.14   0.18  -0.09     0.37   0.16  -0.15    -0.13   0.01   0.01
  14   1    -0.31   0.13   0.29    -0.29   0.15   0.19    -0.17   0.02   0.01
  15   1     0.07  -0.12  -0.08    -0.02   0.07   0.05     0.01   0.04   0.01
  16   1    -0.01  -0.14   0.06    -0.05   0.10  -0.02     0.04   0.05  -0.04
  17   1     0.03   0.01  -0.03    -0.03   0.03   0.04    -0.02  -0.01  -0.06
  18   1     0.03   0.03  -0.01    -0.04   0.02   0.03    -0.04   0.00  -0.05
  19   1    -0.00   0.05  -0.03     0.04   0.00   0.02    -0.09   0.01  -0.04
  20   1     0.03   0.05  -0.00    -0.07  -0.04  -0.03     0.05  -0.02   0.09
  21   1     0.01   0.06   0.00    -0.02  -0.08  -0.04    -0.07   0.01   0.12
  22   1     0.02   0.06  -0.01    -0.02  -0.07  -0.02     0.04  -0.02   0.08
  23   1    -0.05  -0.10   0.04     0.06   0.10   0.01     0.07   0.03  -0.13
  24   1     0.03   0.06  -0.02    -0.05  -0.07  -0.01     0.12  -0.01   0.06
  25   1    -0.00   0.06   0.00     0.03  -0.08  -0.05     0.06  -0.01   0.09
  26   1    -0.00  -0.00  -0.05     0.01   0.03   0.05     0.09  -0.05  -0.12
  27   1    -0.03   0.03  -0.05     0.07   0.01   0.03    -0.05   0.01  -0.09
                      7                      8                      9
                        a                      a                      a 
 Frequencies --   237.5093               250.0789               289.3154
 Red. masses --     8.9861                 6.8592                10.6676
 Frc consts  --     0.0000                 0.0000                 0.0000
 IR Inten    --     6.8724                 0.2067                 5.0403
 Raman Activ --     0.0000                 0.0000                 0.0000
 Depolar     --     0.0000                 0.0000                 0.0000
 Atom AN      X      Y      Z        X      Y      Z        X      Y      Z
   1   7    -0.31   0.04  -0.02    -0.01  -0.00  -0.01    -0.12   0.11  -0.15
   2   6    -0.18  -0.23  -0.18    -0.07  -0.15  -0.02    -0.28   0.18   0.06
   3   6    -0.07   0.12  -0.01    -0.03  -0.02   0.08    -0.26  -0.24   0.12
   4   6    -0.08   0.15   0.04     0.06   0.34   0.24    -0.01  -0.15   0.02
   5   6    -0.05   0.02   0.09    -0.16  -0.14  -0.29     0.07   0.17  -0.03
   6   6     0.09  -0.10  -0.16     0.02  -0.16  -0.02     0.16   0.16  -0.01
   7   6     0.15  -0.06  -0.08     0.05  -0.08   0.00     0.20   0.02  -0.06
   8   8     0.24   0.05   0.03     0.18   0.01   0.01     0.15  -0.03  -0.03
   9   8     0.28   0.01   0.02     0.02   0.01   0.06     0.41  -0.08  -0.06
  10   6    -0.07  -0.15  -0.10     0.05   0.17   0.16    -0.08   0.11   0.12
  11   6     0.05   0.14   0.31    -0.10  -0.04  -0.19    -0.20  -0.28   0.04
  12   1    -0.05   0.13   0.07     0.00   0.07   0.01    -0.05  -0.01  -0.10
  13   1    -0.23  -0.01  -0.00    -0.06  -0.01   0.00     0.04   0.03  -0.04
  14   1     0.00  -0.03  -0.04     0.06  -0.02  -0.01    -0.05   0.04  -0.02
  15   1    -0.01  -0.12  -0.16    -0.01  -0.07  -0.06    -0.15   0.11   0.08
  16   1    -0.11  -0.16   0.02    -0.05  -0.09   0.03    -0.05   0.12  -0.04
  17   1     0.04   0.07  -0.02     0.02  -0.07   0.07    -0.12  -0.09   0.05
  18   1    -0.03   0.05   0.04    -0.03   0.16   0.25     0.07  -0.08  -0.01
  19   1    -0.02   0.07  -0.00     0.16   0.23  -0.01    -0.03  -0.07   0.02
  20   1    -0.02  -0.05   0.07    -0.19   0.04  -0.15     0.04   0.06  -0.02
  21   1    -0.03   0.04   0.06    -0.01  -0.16  -0.18     0.02   0.04  -0.01
  22   1     0.05   0.00  -0.07     0.01  -0.12   0.04     0.08   0.04   0.00
  23   1     0.07   0.06   0.04     0.05   0.04   0.01     0.04  -0.03  -0.01
  24   1    -0.13  -0.09  -0.01     0.09   0.15  -0.01     0.03   0.08   0.01
  25   1     0.01  -0.08  -0.11    -0.00   0.09   0.17    -0.11   0.08   0.07
  26   1    -0.01   0.16   0.18     0.01  -0.10  -0.14    -0.05  -0.10  -0.01
  27   1     0.12  -0.04   0.16    -0.13   0.06  -0.12    -0.10  -0.07   0.00
                     10                     11                     12
                        a                      a                      a 
 Frequencies --   375.7332               380.2294               431.1308
 Red. masses --     9.2834                 8.4199                 9.6276
 Frc consts  --     0.0000                 0.0000                 0.0000
 IR Inten    --     5.8174                 2.4163                 1.4764
 Raman Activ --     0.0000                 0.0000                 0.0000
 Depolar     --     0.0000                 0.0000                 0.0000
 Atom AN      X      Y      Z        X      Y      Z        X      Y      Z
   1   7    -0.26   0.10  -0.05    -0.22   0.07  -0.10     0.11  -0.03   0.08
   2   6     0.16   0.16  -0.24    -0.09   0.03  -0.12     0.15  -0.01  -0.00
   3   6     0.18  -0.24  -0.05     0.02  -0.04   0.10     0.02  -0.23  -0.13
   4   6     0.10  -0.02   0.21     0.23   0.05   0.07    -0.24   0.04   0.08
   5   6     0.06  -0.15   0.10     0.15   0.09  -0.29    -0.30   0.28  -0.10
   6   6    -0.02  -0.15  -0.14     0.08   0.22   0.25    -0.08   0.17  -0.09
   7   6    -0.08   0.02  -0.17    -0.00   0.16   0.20    -0.03  -0.10   0.14
   8   8    -0.32   0.10   0.08    -0.10  -0.06  -0.02     0.27  -0.06  -0.04
   9   8     0.01   0.13  -0.08    -0.21  -0.05  -0.04    -0.14  -0.07   0.14
  10   6     0.08   0.13   0.03     0.07  -0.26  -0.02     0.08   0.15  -0.25
  11   6     0.13  -0.19   0.14     0.14  -0.11   0.11     0.15  -0.21   0.14
  12   1    -0.04  -0.05   0.11    -0.04   0.01   0.02     0.03  -0.03   0.03
  13   1    -0.13   0.04  -0.03    -0.10   0.03  -0.04     0.04   0.00   0.02
  14   1    -0.18   0.05  -0.04    -0.08   0.02  -0.03     0.01   0.00   0.03
  15   1     0.00   0.10   0.02    -0.03   0.01  -0.05     0.02   0.03   0.05
  16   1     0.13   0.11  -0.12    -0.04   0.00  -0.03     0.12   0.03  -0.02
  17   1     0.09  -0.09   0.01     0.02  -0.02   0.04     0.01  -0.08  -0.02
  18   1     0.02   0.02   0.16     0.09   0.02   0.08    -0.02  -0.00   0.06
  19   1     0.06   0.08   0.00     0.14   0.04   0.00    -0.11   0.05  -0.01
  20   1    -0.01  -0.10   0.07    -0.02   0.18  -0.20    -0.14   0.12  -0.06
  21   1     0.05   0.01   0.04     0.07  -0.12  -0.20    -0.04   0.04  -0.09
  22   1     0.02  -0.06  -0.03    -0.06   0.06   0.07    -0.04   0.09  -0.05
  23   1    -0.04   0.01   0.12    -0.07  -0.12  -0.10     0.04   0.05  -0.09
  24   1     0.06   0.15  -0.06    -0.01  -0.23   0.09     0.05   0.08  -0.09
  25   1     0.01   0.07   0.14     0.01  -0.11  -0.18    -0.03   0.08  -0.03
  26   1    -0.01  -0.00   0.11     0.03   0.00   0.06    -0.03   0.08   0.18
  27   1     0.04  -0.13   0.10     0.09  -0.04   0.04     0.13  -0.20   0.15
                     13                     14                     15
                        a                      a                      a 
 Frequencies --   443.1571               467.7910               522.1328
 Red. masses --     8.0564                10.9488                 9.2570
 Frc consts  --     0.0000                 0.0000                 0.0000
 IR Inten    --     2.1396                 9.4666                 9.8480
 Raman Activ --     0.0000                 0.0000                 0.0000
 Depolar     --     0.0000                 0.0000                 0.0000
 Atom AN      X      Y      Z        X      Y      Z        X      Y      Z
   1   7    -0.17   0.03  -0.08    -0.10   0.07  -0.07     0.04   0.00   0.03
   2   6    -0.09  -0.05  -0.07     0.09   0.10  -0.12     0.34   0.05  -0.19
   3   6     0.12   0.13   0.38     0.13  -0.01   0.02     0.21  -0.02  -0.03
   4   6    -0.07  -0.34   0.29     0.29  -0.03   0.01    -0.18  -0.09   0.18
   5   6    -0.07   0.05   0.01     0.26  -0.07   0.01    -0.23  -0.01  -0.01
   6   6    -0.05   0.05  -0.10    -0.16   0.03  -0.13    -0.08   0.05   0.16
   7   6    -0.03  -0.04   0.01    -0.07  -0.15   0.21     0.01   0.12  -0.04
   8   8     0.05   0.00  -0.02     0.34  -0.14  -0.01     0.02   0.11  -0.13
   9   8    -0.04  -0.01   0.03    -0.17  -0.15   0.22     0.36  -0.11  -0.05
  10   6     0.20   0.16  -0.20    -0.31   0.14  -0.12    -0.24  -0.12   0.16
  11   6     0.19   0.07  -0.14    -0.29   0.14   0.00    -0.18   0.10   0.01
  12   1    -0.03   0.03   0.03    -0.01  -0.01   0.05     0.04  -0.05   0.13
  13   1    -0.10   0.01  -0.02    -0.07   0.02  -0.02    -0.06   0.01  -0.00
  14   1    -0.04   0.00  -0.03    -0.08   0.03  -0.04    -0.08   0.02  -0.01
  15   1     0.01  -0.07  -0.12    -0.00   0.06   0.01     0.08   0.04  -0.00
  16   1    -0.13  -0.08   0.03     0.05   0.06  -0.06     0.15   0.04  -0.07
  17   1     0.07   0.02   0.12     0.07   0.00   0.01     0.14  -0.01  -0.00
  18   1     0.00  -0.16  -0.14     0.07   0.01   0.03    -0.07  -0.04  -0.03
  19   1    -0.07  -0.29   0.20     0.12   0.01  -0.01    -0.09  -0.08   0.08
  20   1    -0.06   0.03  -0.02     0.12  -0.07   0.05    -0.15   0.10  -0.09
  21   1     0.05   0.01  -0.05     0.11   0.08   0.04    -0.03  -0.12  -0.10
  22   1    -0.03   0.03  -0.04    -0.09   0.03  -0.05    -0.01  -0.00   0.06
  23   1     0.01   0.03  -0.01     0.05   0.07  -0.10    -0.02   0.01  -0.09
  24   1     0.09   0.09  -0.08    -0.14   0.05  -0.05    -0.14  -0.16   0.11
  25   1     0.06   0.06   0.00    -0.08   0.03  -0.03    -0.03  -0.09  -0.10
  26   1     0.01  -0.12  -0.10    -0.13  -0.00   0.00    -0.04  -0.07  -0.06
  27   1     0.05   0.15  -0.14    -0.10   0.05  -0.01    -0.13   0.09  -0.05
                     16                     17                     18
                        a                      a                      a 
 Frequencies --   586.1647               646.4355               713.7767
 Red. masses --     7.7891                 7.8706                 9.2037
 Frc consts  --     0.0000                 0.0000                 0.0000
 IR Inten    --    30.4752                83.7738               136.3506
 Raman Activ --     0.0000                 0.0000                 0.0000
 Depolar     --     0.0000                 0.0000                 0.0000
 Atom AN      X      Y      Z        X      Y      Z        X      Y      Z
   1   7    -0.01  -0.00   0.00    -0.02   0.00  -0.01    -0.01   0.00  -0.01
   2   6    -0.08  -0.02   0.05    -0.07  -0.00   0.04    -0.02   0.00   0.01
   3   6    -0.04   0.01  -0.01    -0.02   0.00  -0.01     0.00  -0.00   0.01
   4   6    -0.03  -0.02  -0.00     0.09   0.01  -0.04     0.09   0.03  -0.05
   5   6    -0.01  -0.28   0.05     0.06  -0.01   0.01     0.04   0.15  -0.02
   6   6    -0.19  -0.04   0.01    -0.17   0.08   0.14    -0.02  -0.01  -0.01
   7   6    -0.02   0.37   0.27    -0.34  -0.05  -0.02    -0.35  -0.42  -0.30
   8   8     0.00   0.19  -0.15    -0.09   0.12  -0.35     0.02   0.34   0.08
   9   8     0.25  -0.24  -0.03     0.23  -0.26   0.17     0.09   0.02   0.29
  10   6     0.07   0.08  -0.12     0.09  -0.03   0.03     0.04  -0.05   0.10
  11   6     0.09  -0.00  -0.02     0.12  -0.03  -0.02     0.06  -0.04   0.01
  12   1    -0.01   0.01  -0.04    -0.01   0.01  -0.03    -0.00   0.00  -0.01
  13   1     0.02  -0.00   0.00     0.01  -0.01   0.00    -0.00  -0.00  -0.00
  14   1     0.02  -0.00   0.01     0.01  -0.01  -0.00    -0.00   0.00  -0.00
  15   1    -0.02  -0.02  -0.00    -0.01  -0.01  -0.00    -0.00  -0.00  -0.00
  16   1    -0.04  -0.02   0.02    -0.04  -0.01   0.02    -0.01  -0.00   0.01
  17   1    -0.04   0.00  -0.00    -0.04  -0.00  -0.00    -0.01  -0.00  -0.00
  18   1    -0.07   0.05   0.09     0.01   0.02   0.04     0.06  -0.01  -0.03
  19   1     0.06   0.07  -0.04     0.06   0.04  -0.03     0.01  -0.01  -0.00
  20   1     0.04  -0.15   0.08     0.06   0.02  -0.02     0.01   0.06  -0.02
  21   1    -0.01   0.01   0.08     0.02  -0.00  -0.00     0.02   0.03  -0.02
  22   1    -0.23  -0.04   0.03    -0.03   0.02   0.04     0.16   0.01  -0.02
  23   1    -0.16  -0.24  -0.44     0.11   0.63   0.20    -0.19  -0.23  -0.45
  24   1     0.07   0.10  -0.08     0.07  -0.03   0.03     0.00  -0.04   0.04
  25   1     0.03   0.04   0.07     0.04  -0.01   0.01     0.02  -0.03   0.00
  26   1    -0.01   0.06   0.06     0.03   0.03   0.02     0.05  -0.02  -0.02
  27   1     0.09  -0.04   0.03     0.07  -0.03   0.02    -0.00   0.00  -0.01
                     19                     20                     21
                        a                      a                      a 
 Frequencies --   787.4930               814.8209               823.4002
 Red. masses --     6.0975                 4.8992                 4.8878
 Frc consts  --     0.0000                 0.0000                 0.0000
 IR Inten    --    19.6270                 6.3762                26.8329
 Raman Activ --     0.0000                 0.0000                 0.0000
 Depolar     --     0.0000                 0.0000                 0.0000
 Atom AN      X      Y      Z        X      Y      Z        X      Y      Z
   1   7     0.09   0.05  -0.00    -0.01   0.03   0.02     0.02   0.10   0.02
   2   6     0.18   0.19  -0.05    -0.00   0.07   0.03     0.01   0.15   0.06
   3   6     0.01   0.18   0.17    -0.02   0.11  -0.15    -0.02  -0.10  -0.07
   4   6     0.00   0.18  -0.17     0.11   0.07   0.16    -0.10  -0.25   0.05
   5   6    -0.04   0.13  -0.09     0.16  -0.09   0.23    -0.02  -0.18   0.02
   6   6    -0.01  -0.07  -0.11     0.00  -0.04   0.18    -0.02   0.19   0.15
   7   6    -0.00   0.07   0.09     0.01  -0.04  -0.07     0.00  -0.11  -0.15
   8   8    -0.02  -0.00  -0.04     0.01   0.01   0.03     0.06  -0.03   0.07
   9   8    -0.01  -0.05   0.01     0.03   0.03  -0.02     0.03   0.09  -0.03
  10   6    -0.12  -0.18   0.10    -0.13  -0.10  -0.13     0.04   0.23  -0.09
  11   6     0.00  -0.35   0.10    -0.17   0.02  -0.27     0.01   0.08  -0.04
  12   1     0.06  -0.11   0.14    -0.02  -0.01  -0.04    -0.01  -0.09  -0.03
  13   1     0.01  -0.14   0.13     0.07  -0.06   0.07     0.14  -0.20   0.21
  14   1    -0.22  -0.00  -0.24    -0.03  -0.01  -0.08    -0.18  -0.02  -0.28
  15   1     0.13  -0.11  -0.32     0.03  -0.04  -0.09    -0.00  -0.08  -0.27
  16   1    -0.13  -0.19   0.17    -0.03  -0.07   0.08    -0.06  -0.20   0.21
  17   1    -0.05   0.03   0.05    -0.04  -0.05   0.01    -0.09  -0.00  -0.04
  18   1     0.02   0.02  -0.14     0.02  -0.03  -0.16    -0.11   0.04   0.28
  19   1    -0.00  -0.04   0.01    -0.11  -0.12   0.12     0.12   0.15  -0.12
  20   1     0.04  -0.04   0.04    -0.16   0.20  -0.13     0.09  -0.03  -0.00
  21   1    -0.07   0.10   0.06     0.11  -0.29  -0.15     0.01  -0.02   0.02
  22   1    -0.05  -0.01  -0.03     0.03   0.05   0.00     0.05   0.02   0.06
  23   1    -0.01   0.04  -0.01     0.00  -0.04   0.01     0.02  -0.06   0.04
  24   1     0.05   0.10  -0.05     0.16   0.13  -0.11    -0.06  -0.13   0.09
  25   1    -0.14   0.04   0.19    -0.07   0.04   0.19     0.04  -0.00  -0.24
  26   1     0.01  -0.16  -0.01    -0.12   0.30   0.17    -0.05   0.01   0.02
  27   1    -0.01  -0.03  -0.02     0.18  -0.22   0.12    -0.03  -0.01   0.01
                     22                     23                     24
                        a                      a                      a 
 Frequencies --   875.1309               924.4929               928.2722
 Red. masses --     6.2527                 5.6209                 5.5608
 Frc consts  --     0.0000                 0.0000                 0.0000
 IR Inten    --     6.1974                40.2840                25.2999
 Raman Activ --     0.0000                 0.0000                 0.0000
 Depolar     --     0.0000                 0.0000                 0.0000
 Atom AN      X      Y      Z        X      Y      Z        X      Y      Z
   1   7    -0.11   0.12   0.05    -0.26   0.02  -0.00     0.22  -0.07   0.05
   2   6    -0.09   0.01   0.09     0.03   0.01   0.09    -0.04   0.04  -0.12
   3   6     0.05  -0.17  -0.25     0.26   0.11  -0.07    -0.24   0.02  -0.05
   4   6     0.07   0.03   0.15    -0.05  -0.09  -0.07    -0.14  -0.20   0.02
   5   6     0.05   0.17   0.03     0.01  -0.03   0.10     0.20  -0.01   0.19
   6   6     0.07  -0.21  -0.28    -0.16   0.13   0.04     0.17  -0.02  -0.13
   7   6     0.00   0.13   0.19     0.00  -0.03  -0.09    -0.01   0.02   0.10
   8   8    -0.08   0.04  -0.07     0.08  -0.07   0.06    -0.07   0.06  -0.05
   9   8    -0.06  -0.10   0.05     0.04   0.06  -0.05    -0.06  -0.06   0.06
  10   6     0.07  -0.03   0.14    -0.19  -0.15  -0.02     0.01  -0.10  -0.07
  11   6     0.05   0.15   0.07     0.17  -0.15   0.17     0.04   0.09   0.14
  12   1    -0.11  -0.01  -0.24    -0.16   0.13  -0.36     0.13  -0.08   0.26
  13   1     0.23  -0.17   0.20     0.16  -0.01   0.03    -0.13   0.04  -0.05
  14   1    -0.04  -0.04  -0.18     0.19  -0.04   0.07    -0.08   0.03   0.02
  15   1    -0.10  -0.00  -0.06     0.10  -0.02   0.05    -0.02   0.01  -0.03
  16   1     0.12  -0.09   0.12     0.04  -0.01   0.04    -0.07   0.03  -0.05
  17   1     0.06  -0.04  -0.07     0.11   0.15  -0.10    -0.14   0.16  -0.12
  18   1     0.15  -0.08  -0.07    -0.10   0.05   0.11    -0.03   0.00   0.23
  19   1    -0.18  -0.05   0.06     0.03   0.11  -0.10    -0.05   0.16  -0.13
  20   1    -0.17   0.03  -0.00     0.02   0.12  -0.07    -0.05   0.20  -0.12
  21   1     0.12   0.02  -0.09     0.03  -0.10  -0.05     0.13  -0.21  -0.13
  22   1    -0.00  -0.05  -0.07    -0.09   0.16  -0.08     0.09   0.17  -0.16
  23   1    -0.03   0.07  -0.06     0.03  -0.05   0.04    -0.03   0.06  -0.05
  24   1    -0.16  -0.01   0.02     0.01   0.14  -0.10    -0.05   0.14  -0.12
  25   1     0.13  -0.08  -0.01    -0.14   0.05   0.18    -0.00   0.01   0.12
  26   1     0.13  -0.01  -0.09     0.06  -0.22  -0.08     0.09  -0.10  -0.10
  27   1    -0.17   0.05  -0.01     0.01   0.13  -0.09    -0.06   0.16  -0.08
                     25                     26                     27
                        a                      a                      a 
 Frequencies --   937.2819               959.7838               983.2798
 Red. masses --     7.8633                 6.6382                 8.0825
 Frc consts  --     0.0000                 0.0000                 0.0000
 IR Inten    --     2.0299                 4.6505                 7.2220
 Raman Activ --     0.0000                 0.0000                 0.0000
 Depolar     --     0.0000                 0.0000                 0.0000
 Atom AN      X      Y      Z        X      Y      Z        X      Y      Z
   1   7    -0.06  -0.00  -0.02    -0.00   0.17  -0.15    -0.13   0.03  -0.41
   2   6    -0.01   0.02   0.05     0.01  -0.25   0.18     0.30  -0.03   0.48
   3   6     0.14   0.03   0.06     0.09  -0.20   0.20     0.00  -0.04  -0.06
   4   6    -0.04   0.24  -0.16     0.09   0.07  -0.26     0.11  -0.05  -0.04
   5   6     0.05  -0.27   0.18    -0.16   0.07   0.08    -0.07   0.06   0.13
   6   6     0.32  -0.01   0.01    -0.01  -0.09   0.17    -0.13  -0.06  -0.06
   7   6    -0.02  -0.01   0.09     0.03  -0.02  -0.03     0.01   0.05   0.00
   8   8    -0.11   0.09  -0.07    -0.02   0.04  -0.02     0.03  -0.04   0.02
   9   8    -0.06  -0.07   0.09     0.03   0.01  -0.02     0.02   0.01  -0.04
  10   6     0.05   0.31  -0.22     0.09  -0.10  -0.19    -0.01   0.08   0.07
  11   6    -0.06  -0.23   0.16    -0.10   0.19   0.09     0.07  -0.00  -0.04
  12   1    -0.03   0.04  -0.07     0.02  -0.09   0.07     0.02   0.04   0.07
  13   1     0.01   0.02  -0.02    -0.01  -0.08   0.07    -0.23   0.14  -0.22
  14   1     0.05  -0.00   0.03    -0.23   0.04  -0.23    -0.06   0.05   0.01
  15   1     0.04  -0.01   0.01    -0.28   0.07   0.11     0.18  -0.09   0.02
  16   1    -0.04  -0.00   0.02     0.20   0.02  -0.01    -0.16  -0.04   0.13
  17   1     0.03  -0.00   0.02     0.13   0.05  -0.01    -0.26  -0.02  -0.02
  18   1    -0.08   0.05  -0.21     0.07   0.01  -0.02     0.10  -0.03   0.04
  19   1    -0.11  -0.04   0.02     0.03   0.04  -0.08    -0.08   0.06  -0.06
  20   1    -0.11   0.02  -0.04     0.01   0.10  -0.04    -0.14   0.06  -0.01
  21   1    -0.06  -0.26  -0.02    -0.20  -0.11   0.05     0.04  -0.04  -0.05
  22   1     0.18  -0.01   0.01    -0.02   0.08  -0.03    -0.04  -0.01  -0.02
  23   1    -0.04   0.08  -0.06     0.01  -0.03   0.03     0.01  -0.02   0.01
  24   1    -0.11  -0.07   0.02     0.09   0.11  -0.13    -0.11  -0.03   0.04
  25   1    -0.05   0.06  -0.29     0.09  -0.02   0.13     0.08  -0.04  -0.05
  26   1    -0.11  -0.21   0.00    -0.15  -0.08   0.03     0.06   0.02  -0.01
  27   1    -0.12  -0.00  -0.01     0.07   0.16  -0.06    -0.08  -0.06   0.03
                     28                     29                     30
                        a                      a                      a 
 Frequencies --   984.5638              1019.2912              1053.1611
 Red. masses --     8.4193                 7.4188                 8.0337
 Frc consts  --     0.0000                 0.0000                 0.0000
 IR Inten    --    48.0636                 6.2387                20.1492
 Raman Activ --     0.0000                 0.0000                 0.0000
 Depolar     --     0.0000                 0.0000                 0.0000
 Atom AN      X      Y      Z        X      Y      Z        X      Y      Z
   1   7     0.18  -0.03   0.11     0.00   0.14  -0.18     0.08  -0.00   0.04
   2   6    -0.24   0.03  -0.11     0.09  -0.30   0.21    -0.20  -0.01  -0.01
   3   6    -0.03  -0.08  -0.04    -0.10   0.10  -0.04     0.15  -0.05  -0.02
   4   6     0.14   0.23  -0.08    -0.28   0.13   0.12     0.25  -0.10  -0.07
   5   6     0.07  -0.09   0.15     0.25  -0.20  -0.11    -0.30  -0.04   0.11
   6   6    -0.42   0.05   0.06     0.05   0.22  -0.12     0.11   0.03  -0.07
   7   6    -0.07  -0.00  -0.17    -0.06  -0.01  -0.02     0.02   0.07   0.08
   8   8     0.16  -0.15   0.12     0.03  -0.05   0.05    -0.01  -0.02   0.00
   9   8     0.10   0.11  -0.12    -0.02   0.01   0.02    -0.02  -0.03   0.01
  10   6     0.02   0.13   0.01    -0.11  -0.03   0.11    -0.40   0.08   0.12
  11   6     0.21  -0.08   0.13     0.16  -0.05  -0.04     0.37   0.03  -0.20
  12   1     0.08  -0.07   0.16     0.03  -0.06   0.07     0.04  -0.04   0.08
  13   1    -0.03  -0.02   0.03    -0.04  -0.04   0.01    -0.02  -0.01   0.02
  14   1    -0.07   0.01  -0.02    -0.18   0.04  -0.17    -0.05   0.01  -0.02
  15   1    -0.13   0.04  -0.02    -0.18   0.04   0.15    -0.12   0.03   0.01
  16   1    -0.06   0.03  -0.04     0.22   0.02  -0.01    -0.07   0.02  -0.02
  17   1    -0.02  -0.02  -0.01     0.08  -0.02   0.03     0.01  -0.05   0.02
  18   1     0.08  -0.00  -0.19    -0.25   0.08  -0.11     0.08  -0.02   0.02
  19   1    -0.15  -0.05   0.03    -0.06  -0.07   0.10     0.13  -0.02  -0.02
  20   1    -0.14   0.04  -0.02     0.07  -0.09   0.00    -0.07   0.01   0.02
  21   1     0.11  -0.09  -0.07     0.18   0.05  -0.04    -0.20  -0.10   0.06
  22   1    -0.30   0.00   0.03     0.01   0.01   0.00     0.23   0.03  -0.04
  23   1     0.05  -0.09   0.07    -0.01   0.04  -0.04    -0.02   0.05  -0.05
  24   1    -0.12  -0.03   0.03     0.03  -0.02   0.04    -0.12   0.02   0.03
  25   1     0.10  -0.03  -0.07    -0.20   0.07  -0.02    -0.27   0.09  -0.04
  26   1     0.12  -0.13  -0.07     0.18   0.06  -0.05     0.20   0.12  -0.05
  27   1    -0.09   0.04  -0.02     0.08   0.00  -0.02     0.16  -0.03  -0.02
                     31                     32                     33
                        a                      a                      a 
 Frequencies --  1066.2342              1081.4994              1107.0639
 Red. masses --     2.1359                 7.7963                 8.5990
 Frc consts  --     0.0000                 0.0000                 0.0000
 IR Inten    --     1.4186                 4.7917                14.8156
 Raman Activ --     0.0000                 0.0000                 0.0000
 Depolar     --     0.0000                 0.0000                 0.0000
 Atom AN      X      Y      Z        X      Y      Z        X      Y      Z
   1   7     0.02   0.03  -0.01     0.07  -0.04  -0.00     0.07   0.03  -0.02
   2   6     0.00  -0.05   0.00    -0.28   0.10   0.13    -0.16  -0.05   0.08
   3   6    -0.09   0.11  -0.09     0.53  -0.13   0.06     0.17   0.25  -0.19
   4   6     0.12  -0.06   0.08    -0.26  -0.01  -0.12     0.24  -0.13   0.05
   5   6    -0.02   0.06  -0.01     0.18   0.13  -0.05    -0.27  -0.09   0.10
   6   6     0.04  -0.06   0.08    -0.04  -0.10  -0.08    -0.03   0.20  -0.21
   7   6    -0.02   0.01  -0.01     0.00   0.05   0.03    -0.05   0.06   0.01
   8   8     0.00  -0.01   0.01     0.00  -0.02   0.01     0.03  -0.09   0.07
   9   8     0.01   0.00  -0.00    -0.01  -0.01   0.00    -0.00   0.03  -0.04
  10   6    -0.07   0.05  -0.10    -0.06  -0.03   0.12     0.31  -0.12   0.11
  11   6    -0.01  -0.07   0.06    -0.02   0.03  -0.14    -0.30  -0.16   0.06
  12   1     0.01  -0.01   0.01     0.05  -0.02   0.10     0.04  -0.03   0.07
  13   1     0.00  -0.01   0.01    -0.08   0.03  -0.04    -0.04  -0.01   0.01
  14   1    -0.03   0.01  -0.03    -0.04   0.02   0.03    -0.07   0.02  -0.04
  15   1    -0.01   0.01   0.04    -0.11   0.02  -0.02    -0.08   0.02   0.07
  16   1     0.06   0.02  -0.02    -0.25   0.02   0.03    -0.04   0.04  -0.02
  17   1    -0.02   0.32  -0.23     0.11  -0.00  -0.01     0.08   0.17  -0.12
  18   1     0.25  -0.10   0.09    -0.18   0.07   0.03    -0.12   0.05  -0.02
  19   1    -0.22   0.09  -0.06    -0.18   0.14  -0.13     0.18  -0.04   0.02
  20   1    -0.24  -0.14   0.10     0.00   0.04  -0.02    -0.14  -0.05   0.04
  21   1     0.15   0.11  -0.04     0.19   0.09  -0.08     0.05   0.03  -0.03
  22   1     0.02  -0.34   0.24     0.08  -0.12   0.05     0.07   0.16  -0.13
  23   1    -0.00   0.01  -0.00    -0.01   0.01  -0.02    -0.03   0.08  -0.08
  24   1     0.24  -0.10   0.06     0.05  -0.05   0.06     0.19  -0.09   0.07
  25   1    -0.26   0.12  -0.10     0.06  -0.05   0.04     0.02  -0.01  -0.01
  26   1    -0.14  -0.13   0.03    -0.21  -0.00   0.10    -0.02   0.02   0.02
  27   1     0.24   0.16  -0.11     0.11  -0.05   0.02    -0.16  -0.11   0.07
                     34                     35                     36
                        a                      a                      a 
 Frequencies --  1117.3650              1134.9337              1160.4905
 Red. masses --     8.9653                 7.9495                 8.0331
 Frc consts  --     0.0000                 0.0000                 0.0000
 IR Inten    --   164.6959                76.8944                43.7340
 Raman Activ --     0.0000                 0.0000                 0.0000
 Depolar     --     0.0000                 0.0000                 0.0000
 Atom AN      X      Y      Z        X      Y      Z        X      Y      Z
   1   7     0.07  -0.02  -0.05    -0.01   0.09   0.04    -0.07  -0.03   0.04
   2   6    -0.16   0.04   0.14     0.05  -0.19  -0.11     0.12   0.06  -0.10
   3   6     0.16   0.04  -0.25    -0.10   0.26   0.14    -0.04  -0.22   0.25
   4   6     0.05  -0.01   0.17     0.02  -0.11  -0.12     0.05   0.06  -0.20
   5   6    -0.04  -0.01  -0.12     0.03   0.18   0.17    -0.05  -0.22   0.08
   6   6     0.08   0.05   0.17    -0.24  -0.23  -0.09    -0.02   0.34  -0.25
   7   6     0.26  -0.27   0.03     0.15  -0.02   0.09     0.12  -0.13   0.04
   8   8    -0.13   0.33  -0.29    -0.03   0.17  -0.19    -0.03   0.14  -0.13
   9   8    -0.06  -0.08   0.15    -0.03  -0.08   0.07    -0.06  -0.05   0.10
  10   6    -0.05  -0.05  -0.11    -0.01   0.20   0.13     0.07  -0.10   0.22
  11   6     0.01  -0.01   0.07     0.03  -0.23  -0.13    -0.04   0.17  -0.04
  12   1     0.05  -0.03   0.10    -0.02  -0.02  -0.04    -0.03   0.03  -0.06
  13   1    -0.08   0.02  -0.04     0.07  -0.05   0.07     0.04   0.01   0.00
  14   1    -0.05   0.02   0.00    -0.03  -0.00  -0.08     0.06  -0.02   0.03
  15   1    -0.05   0.00   0.01    -0.02   0.02   0.11     0.00   0.00  -0.08
  16   1    -0.11   0.00   0.04     0.14   0.05  -0.10     0.01  -0.02   0.01
  17   1     0.05   0.03  -0.07    -0.02   0.08   0.02    -0.09  -0.06   0.06
  18   1    -0.03  -0.00  -0.03    -0.13   0.06   0.05     0.04   0.00  -0.04
  19   1    -0.00  -0.04   0.07     0.17   0.02  -0.05    -0.17   0.07  -0.10
  20   1     0.01  -0.10   0.04     0.00   0.18  -0.07    -0.27  -0.14   0.06
  21   1    -0.01   0.09   0.03     0.14  -0.01  -0.08     0.10  -0.03  -0.05
  22   1    -0.24   0.04   0.02     0.08  -0.04  -0.04    -0.09   0.14  -0.10
  23   1     0.10  -0.27   0.27     0.09  -0.25   0.22     0.06  -0.15   0.14
  24   1    -0.07   0.08  -0.09    -0.08  -0.10   0.12     0.20  -0.09   0.11
  25   1    -0.10   0.04   0.02     0.08  -0.03  -0.12    -0.07   0.02   0.02
  26   1     0.10  -0.01  -0.05    -0.05   0.01   0.05    -0.02   0.08   0.02
  27   1    -0.15  -0.02   0.02     0.08  -0.11   0.02     0.15   0.08  -0.02
                     37                     38                     39
                        a                      a                      a 
 Frequencies --  1194.5808              1206.8442              1219.3394
 Red. masses --     4.4699                 3.6712                 3.9439
 Frc consts  --     0.0000                 0.0000                 0.0000
 IR Inten    --    10.6922                 7.4074                15.2914
 Raman Activ --     0.0000                 0.0000                 0.0000
 Depolar     --     0.0000                 0.0000                 0.0000
 Atom AN      X      Y      Z        X      Y      Z        X      Y      Z
   1   7    -0.00  -0.15  -0.07    -0.04  -0.06   0.01    -0.01  -0.17  -0.07
   2   6    -0.01   0.20   0.09     0.06   0.06  -0.03    -0.02   0.16   0.06
   3   6    -0.11  -0.15  -0.18     0.01  -0.05   0.10    -0.07   0.02  -0.03
   4   6     0.04   0.10   0.07     0.06  -0.11  -0.19     0.02  -0.02   0.01
   5   6    -0.02  -0.03  -0.01    -0.06   0.18   0.18     0.01   0.07   0.06
   6   6    -0.23  -0.05  -0.03     0.06  -0.11   0.07     0.08  -0.02  -0.06
   7   6    -0.10   0.16   0.05     0.00  -0.01  -0.02     0.23  -0.19   0.01
   8   8     0.08   0.01  -0.07    -0.02  -0.01   0.03    -0.12   0.02   0.04
   9   8     0.00  -0.06   0.03     0.02   0.02  -0.02    -0.02   0.06  -0.04
  10   6    -0.00  -0.01  -0.05     0.07  -0.07  -0.18    -0.04   0.10   0.16
  11   6     0.01   0.07   0.14    -0.06   0.12   0.11     0.03  -0.09  -0.09
  12   1     0.02   0.03   0.05    -0.01   0.01  -0.01     0.02   0.04   0.04
  13   1    -0.08   0.07  -0.11     0.00   0.02  -0.03    -0.08   0.07  -0.12
  14   1     0.06  -0.00   0.12     0.05  -0.02   0.04     0.07  -0.01   0.14
  15   1    -0.12   0.02  -0.17    -0.11   0.03  -0.09    -0.25   0.06  -0.19
  16   1     0.16  -0.13   0.20     0.05  -0.04   0.05     0.34  -0.16   0.22
  17   1     0.07  -0.04  -0.04    -0.01  -0.19   0.15     0.09   0.11  -0.08
  18   1    -0.10   0.05  -0.12    -0.30   0.13  -0.04    -0.08   0.03  -0.01
  19   1     0.15  -0.12   0.11     0.19   0.00  -0.06     0.13  -0.05   0.04
  20   1     0.13   0.05  -0.04    -0.17   0.07   0.02    -0.01   0.05  -0.01
  21   1     0.05   0.04  -0.01     0.26   0.11  -0.11    -0.05  -0.05   0.01
  22   1     0.48   0.01  -0.03    -0.12  -0.27   0.18    -0.37   0.03  -0.03
  23   1     0.09  -0.22   0.18    -0.03   0.06  -0.05    -0.10   0.23  -0.20
  24   1     0.18  -0.06   0.03     0.10   0.02  -0.06    -0.09  -0.03   0.07
  25   1    -0.01   0.01   0.01    -0.28   0.13  -0.07     0.08  -0.04  -0.03
  26   1    -0.05  -0.11  -0.01     0.29   0.13  -0.11    -0.16  -0.05   0.07
  27   1     0.11   0.17  -0.07    -0.19  -0.01   0.05     0.21   0.04  -0.05
                     40                     41                     42
                        a                      a                      a 
 Frequencies --  1235.6559              1249.6528              1272.1636
 Red. masses --     2.9906                 4.6499                 5.9226
 Frc consts  --     0.0000                 0.0000                 0.0000
 IR Inten    --    10.4593                34.1787                54.4938
 Raman Activ --     0.0000                 0.0000                 0.0000
 Depolar     --     0.0000                 0.0000                 0.0000
 Atom AN      X      Y      Z        X      Y      Z        X      Y      Z
   1   7    -0.00   0.02   0.03    -0.03  -0.12  -0.02     0.03   0.03  -0.02
   2   6     0.04  -0.06  -0.06     0.03   0.05  -0.01    -0.07   0.01   0.03
   3   6    -0.05  -0.02  -0.03     0.08   0.17   0.22    -0.06  -0.01  -0.13
   4   6     0.14  -0.01  -0.02    -0.02  -0.06  -0.04    -0.01  -0.07  -0.03
   5   6    -0.14  -0.04  -0.05     0.01  -0.03  -0.08     0.02   0.09   0.13
   6   6     0.09   0.14   0.20     0.14   0.06   0.08     0.32   0.18  -0.22
   7   6     0.08  -0.03   0.02    -0.29   0.17  -0.06    -0.35   0.14  -0.09
   8   8    -0.04  -0.00   0.01     0.12  -0.03  -0.01     0.14  -0.03  -0.02
   9   8    -0.01   0.01  -0.01     0.02  -0.04   0.04    -0.00  -0.06   0.08
  10   6    -0.14  -0.04  -0.06     0.03  -0.02  -0.05    -0.03  -0.05   0.07
  11   6     0.14  -0.01  -0.02    -0.06  -0.13  -0.13     0.02   0.01  -0.01
  12   1    -0.01   0.00  -0.03    -0.00   0.03   0.00     0.01  -0.01   0.02
  13   1     0.02  -0.01   0.02    -0.03   0.04  -0.07    -0.01  -0.01   0.01
  14   1    -0.00  -0.00  -0.02     0.05  -0.01   0.09    -0.03   0.01  -0.02
  15   1    -0.02   0.01   0.01    -0.30   0.09  -0.14     0.16  -0.05   0.06
  16   1    -0.00   0.02  -0.05     0.28  -0.10   0.12    -0.02   0.01   0.00
  17   1    -0.25  -0.02  -0.02     0.05   0.18  -0.04     0.10  -0.12   0.05
  18   1    -0.24   0.10  -0.12     0.13  -0.05   0.09    -0.11   0.04   0.02
  19   1     0.07  -0.04   0.02    -0.20   0.11  -0.10     0.24  -0.08   0.05
  20   1    -0.25  -0.18   0.11    -0.12  -0.12   0.06    -0.12   0.02   0.02
  21   1     0.31   0.25  -0.09    -0.00   0.02   0.00    -0.13  -0.14   0.03
  22   1     0.22   0.03   0.05     0.07   0.02   0.02    -0.27  -0.27   0.17
  23   1    -0.03   0.08  -0.06     0.08  -0.18   0.16     0.10  -0.21   0.19
  24   1    -0.25   0.15  -0.13    -0.23   0.11  -0.11    -0.08   0.04  -0.02
  25   1     0.32  -0.14   0.18     0.11  -0.04   0.04     0.13  -0.07   0.07
  26   1    -0.20  -0.15   0.06     0.16   0.14  -0.03    -0.18  -0.10   0.06
  27   1     0.06   0.03  -0.03    -0.15  -0.20   0.09     0.13   0.08  -0.05
                     43                     44                     45
                        a                      a                      a 
 Frequencies --  1279.3537              1285.1852              1308.4420
 Red. masses --     3.4724                 4.6452                 3.5823
 Frc consts  --     0.0000                 0.0000                 0.0000
 IR Inten    --    15.5834                24.8988                 1.2701
 Raman Activ --     0.0000                 0.0000                 0.0000
 Depolar     --     0.0000                 0.0000                 0.0000
 Atom AN      X      Y      Z        X      Y      Z        X      Y      Z
   1   7     0.04   0.02  -0.10     0.01   0.02  -0.02     0.02  -0.04   0.00
   2   6    -0.18   0.08   0.07    -0.06   0.03   0.02    -0.06  -0.07  -0.04
   3   6    -0.13   0.11  -0.01    -0.05  -0.04  -0.03     0.12   0.30  -0.12
   4   6    -0.13  -0.02  -0.19    -0.03   0.02  -0.06    -0.10  -0.04  -0.02
   5   6    -0.01  -0.07   0.06    -0.11  -0.02  -0.04     0.04  -0.01   0.01
   6   6    -0.10   0.12   0.04     0.20  -0.32   0.21    -0.03   0.01  -0.04
   7   6     0.16  -0.08   0.04    -0.22   0.12  -0.07     0.01  -0.00   0.00
   8   8    -0.06   0.02  -0.00     0.06  -0.04   0.02    -0.00   0.00  -0.00
   9   8    -0.01   0.02  -0.02     0.04  -0.01  -0.00    -0.00  -0.00   0.00
  10   6    -0.05  -0.01  -0.06     0.12   0.05   0.12     0.00  -0.10   0.02
  11   6    -0.00  -0.05   0.01     0.00   0.04  -0.06     0.24   0.15   0.02
  12   1     0.04  -0.02   0.10     0.01  -0.00   0.02     0.00   0.02  -0.01
  13   1    -0.03  -0.02  -0.00    -0.01  -0.01   0.00    -0.02   0.01  -0.02
  14   1    -0.02   0.03   0.02    -0.01   0.01  -0.00    -0.01   0.00   0.01
  15   1     0.29  -0.08   0.09     0.14  -0.04   0.04    -0.16   0.04  -0.02
  16   1     0.16  -0.05   0.10     0.01  -0.01   0.02     0.22  -0.04   0.03
  17   1     0.54  -0.20   0.19     0.11  -0.07   0.04    -0.32  -0.32   0.23
  18   1     0.29  -0.12   0.13     0.05  -0.02  -0.00     0.21  -0.09   0.10
  19   1     0.08   0.03  -0.06     0.06  -0.01  -0.00     0.03   0.01  -0.01
  20   1    -0.14  -0.07   0.04    -0.03  -0.05   0.03    -0.03  -0.02   0.01
  21   1     0.17   0.04  -0.07     0.28   0.20  -0.10    -0.02  -0.03   0.01
  22   1     0.16  -0.04   0.06    -0.18   0.42  -0.29     0.01   0.01  -0.02
  23   1    -0.03   0.07  -0.06     0.03  -0.06   0.06     0.00  -0.00   0.00
  24   1    -0.01   0.03  -0.03    -0.14   0.01   0.02     0.13  -0.04   0.03
  25   1     0.14  -0.06   0.06    -0.28   0.13  -0.15    -0.16   0.06   0.02
  26   1     0.07   0.02  -0.02    -0.15  -0.02   0.06    -0.37  -0.23   0.12
  27   1    -0.03  -0.03   0.01     0.13   0.07  -0.05    -0.32  -0.09   0.08
                     46                     47                     48
                        a                      a                      a 
 Frequencies --  1326.3838              1330.7514              1339.0074
 Red. masses --     3.9777                 3.5946                 4.3924
 Frc consts  --     0.0000                 0.0000                 0.0000
 IR Inten    --     3.0820                 4.8269                 0.7231
 Raman Activ --     0.0000                 0.0000                 0.0000
 Depolar     --     0.0000                 0.0000                 0.0000
 Atom AN      X      Y      Z        X      Y      Z        X      Y      Z
   1   7     0.01   0.04  -0.08     0.02   0.04  -0.12    -0.00  -0.01   0.02
   2   6    -0.20   0.04  -0.07    -0.30   0.02  -0.07     0.05  -0.00  -0.00
   3   6     0.09  -0.26   0.20     0.14   0.05   0.03     0.02  -0.05   0.03
   4   6    -0.17   0.13  -0.03     0.20  -0.07   0.08    -0.07   0.15  -0.02
   5   6     0.08   0.03   0.02    -0.07  -0.02  -0.04    -0.27  -0.21   0.16
   6   6    -0.00  -0.01   0.01    -0.04   0.03  -0.02    -0.01   0.16  -0.12
   7   6     0.00   0.00  -0.00     0.02  -0.00   0.00     0.05  -0.03   0.01
   8   8     0.00  -0.00  -0.00    -0.00   0.00  -0.00    -0.01   0.02  -0.01
   9   8    -0.00  -0.00   0.00    -0.00   0.00  -0.00    -0.02  -0.00   0.01
  10   6    -0.06  -0.03  -0.03     0.12  -0.03   0.03     0.21  -0.15   0.09
  11   6     0.13   0.11  -0.11    -0.14  -0.03   0.05    -0.01   0.03  -0.09
  12   1     0.02  -0.03   0.05     0.04  -0.05   0.11    -0.01   0.02  -0.03
  13   1    -0.01  -0.05   0.03     0.00  -0.07   0.04    -0.01   0.01  -0.00
  14   1     0.00   0.03   0.04     0.02   0.03   0.05    -0.01  -0.00   0.00
  15   1     0.33  -0.09   0.12     0.34  -0.11   0.11    -0.06   0.02  -0.03
  16   1     0.25  -0.07   0.07     0.42  -0.08   0.09    -0.06   0.01  -0.02
  17   1    -0.19   0.38  -0.28    -0.28  -0.14   0.10    -0.02   0.11  -0.08
  18   1     0.02  -0.00  -0.03    -0.18   0.07  -0.05     0.24  -0.08   0.01
  19   1     0.30  -0.14   0.12    -0.33   0.12  -0.08     0.06  -0.05   0.05
  20   1    -0.11  -0.03   0.03     0.16   0.07  -0.05     0.38   0.25  -0.15
  21   1     0.01  -0.01   0.00    -0.07   0.01   0.04     0.26   0.12  -0.08
  22   1    -0.00   0.00  -0.00     0.03  -0.06   0.04     0.02  -0.24   0.17
  23   1     0.00  -0.00   0.00    -0.00   0.00  -0.00    -0.00   0.00  -0.00
  24   1     0.11  -0.03   0.01    -0.15   0.05  -0.05    -0.32   0.15  -0.13
  25   1    -0.05   0.01   0.01    -0.06   0.03  -0.02    -0.15   0.06  -0.04
  26   1    -0.01   0.03   0.01     0.07   0.04  -0.02    -0.11  -0.01   0.04
  27   1    -0.27  -0.16   0.10     0.18   0.10  -0.06     0.02  -0.03   0.01
                     49                     50                     51
                        a                      a                      a 
 Frequencies --  1350.3435              1360.2324              1389.6688
 Red. masses --     4.5219                 4.9476                 2.9791
 Frc consts  --     0.0000                 0.0000                 0.0000
 IR Inten    --     1.0689                 6.0385               215.7448
 Raman Activ --     0.0000                 0.0000                 0.0000
 Depolar     --     0.0000                 0.0000                 0.0000
 Atom AN      X      Y      Z        X      Y      Z        X      Y      Z
   1   7    -0.01   0.00  -0.02    -0.00   0.00  -0.01    -0.25   0.13  -0.25
   2   6     0.03   0.04   0.02    -0.03  -0.00  -0.02     0.08  -0.02  -0.00
   3   6    -0.30  -0.06   0.08     0.02   0.04   0.03     0.01   0.02  -0.03
   4   6     0.29  -0.08   0.05     0.06   0.04   0.00    -0.03   0.01   0.00
   5   6    -0.05   0.02  -0.03    -0.28  -0.13   0.07     0.00  -0.00   0.00
   6   6    -0.01  -0.00  -0.04     0.29  -0.05  -0.04     0.01   0.00  -0.00
   7   6     0.00   0.00   0.00    -0.09   0.02  -0.02    -0.01   0.01  -0.00
   8   8     0.00   0.00  -0.00     0.01  -0.00  -0.00     0.00  -0.00   0.00
   9   8    -0.00  -0.00   0.00     0.00  -0.01   0.01     0.00  -0.00   0.00
  10   6     0.01  -0.08   0.03    -0.34   0.13  -0.10    -0.00  -0.00   0.01
  11   6     0.28   0.12  -0.13     0.05  -0.02   0.06     0.01   0.00   0.00
  12   1     0.01   0.01   0.03     0.00  -0.01   0.01     0.12  -0.23   0.50
  13   1     0.02  -0.00   0.00     0.00   0.00  -0.00     0.35  -0.24   0.22
  14   1     0.01   0.00   0.02     0.01  -0.00   0.00     0.44  -0.02   0.26
  15   1     0.08  -0.02   0.02     0.01  -0.00   0.01    -0.13   0.06   0.02
  16   1    -0.04  -0.01   0.02     0.07  -0.01   0.02    -0.13  -0.02   0.00
  17   1     0.38   0.11  -0.04    -0.05  -0.01   0.02    -0.02  -0.01  -0.00
  18   1    -0.29   0.13  -0.07     0.05  -0.01  -0.01     0.03  -0.01   0.01
  19   1    -0.33   0.10  -0.08    -0.13   0.04  -0.02     0.04  -0.01   0.01
  20   1     0.10   0.04  -0.03     0.33   0.16  -0.10    -0.00  -0.00   0.00
  21   1    -0.06  -0.01   0.02     0.24   0.15  -0.09     0.00  -0.00  -0.00
  22   1     0.01  -0.03   0.01    -0.19   0.03  -0.03    -0.01   0.00  -0.00
  23   1    -0.00  -0.00  -0.00     0.01  -0.03   0.02     0.00  -0.00   0.00
  24   1     0.01   0.01  -0.01     0.41  -0.15   0.13    -0.00   0.00   0.00
  25   1    -0.12   0.04  -0.02     0.30  -0.13   0.09     0.00  -0.00   0.00
  26   1    -0.28  -0.09   0.11     0.10   0.01  -0.04    -0.03  -0.02   0.00
  27   1    -0.33  -0.16   0.09    -0.10  -0.03   0.03     0.01  -0.00   0.00
                     52                     53                     54
                        a                      a                      a 
 Frequencies --  1435.6051              1436.9399              1474.5833
 Red. masses --     1.6468                 1.6427                 1.8520
 Frc consts  --     0.0000                 0.0000                 0.0000
 IR Inten    --    81.2561                79.8327                14.4928
 Raman Activ --     0.0000                 0.0000                 0.0000
 Depolar     --     0.0000                 0.0000                 0.0000
 Atom AN      X      Y      Z        X      Y      Z        X      Y      Z
   1   7    -0.04   0.15   0.15    -0.15  -0.13   0.07    -0.02   0.00  -0.00
   2   6    -0.04   0.02   0.03    -0.06  -0.01   0.02    -0.09  -0.05   0.25
   3   6     0.01  -0.00  -0.00     0.03  -0.01   0.00     0.00  -0.01   0.01
   4   6    -0.00  -0.00   0.00    -0.01   0.00   0.01     0.01   0.02  -0.04
   5   6     0.00  -0.00  -0.00    -0.00   0.00   0.00     0.00  -0.00  -0.00
   6   6    -0.00   0.00  -0.00    -0.00   0.00  -0.00     0.00  -0.00   0.00
   7   6    -0.00   0.00  -0.00    -0.00   0.00   0.00    -0.00   0.00  -0.00
   8   8     0.00  -0.00  -0.00     0.00  -0.00   0.00     0.00  -0.00   0.00
   9   8    -0.00  -0.00   0.00     0.00   0.00  -0.00     0.00  -0.00   0.00
  10   6     0.01  -0.01   0.00     0.00  -0.00  -0.00    -0.01  -0.00   0.00
  11   6     0.02  -0.02  -0.01     0.01  -0.02   0.00     0.00   0.03  -0.00
  12   1    -0.06  -0.61  -0.05     0.10   0.34   0.34     0.01  -0.02   0.03
  13   1    -0.21   0.26  -0.20     0.54   0.38  -0.28     0.03  -0.04   0.04
  14   1     0.44  -0.26  -0.39    -0.04  -0.16  -0.40     0.04   0.00   0.05
  15   1     0.02  -0.01  -0.02     0.05  -0.03   0.01     0.07  -0.28  -0.60
  16   1     0.05  -0.00   0.02     0.04   0.01  -0.01     0.21   0.49  -0.39
  17   1     0.01   0.01  -0.00    -0.02   0.01  -0.01     0.02   0.01  -0.01
  18   1     0.00  -0.00  -0.00     0.01  -0.00  -0.01    -0.02   0.03   0.09
  19   1     0.00   0.00  -0.00     0.01   0.00   0.00    -0.03  -0.08   0.04
  20   1    -0.00   0.00  -0.00     0.00  -0.00   0.00    -0.01   0.00  -0.00
  21   1    -0.00  -0.00   0.00     0.00  -0.00  -0.00    -0.00   0.01   0.01
  22   1     0.00  -0.00   0.00     0.00  -0.00   0.00    -0.00   0.00  -0.00
  23   1     0.00  -0.00  -0.00    -0.00  -0.00  -0.00     0.00  -0.00   0.00
  24   1    -0.01  -0.00  -0.00    -0.01   0.00  -0.00     0.01   0.01  -0.00
  25   1    -0.01   0.00   0.00    -0.00   0.00   0.00    -0.00  -0.00  -0.01
  26   1    -0.03   0.03   0.03    -0.01   0.04   0.03     0.00  -0.04  -0.03
  27   1    -0.03   0.03  -0.02    -0.02   0.03  -0.03     0.00  -0.04   0.04
                     55                     56                     57
                        a                      a                      a 
 Frequencies --  1498.3862              1503.6459              1507.1394
 Red. masses --     1.8821                 1.9540                 1.9110
 Frc consts  --     0.0000                 0.0000                 0.0000
 IR Inten    --     0.7168                 4.2354                11.3460
 Raman Activ --     0.0000                 0.0000                 0.0000
 Depolar     --     0.0000                 0.0000                 0.0000
 Atom AN      X      Y      Z        X      Y      Z        X      Y      Z
   1   7     0.01   0.00  -0.01     0.00  -0.00  -0.01     0.00   0.00  -0.01
   2   6    -0.01  -0.01   0.03    -0.00  -0.00   0.01     0.01   0.00  -0.01
   3   6     0.00  -0.02   0.02     0.01   0.00  -0.01     0.02  -0.00  -0.01
   4   6    -0.07  -0.04   0.14    -0.04  -0.03   0.07     0.05   0.05  -0.15
   5   6    -0.05   0.09   0.02     0.10  -0.17  -0.01     0.04  -0.08  -0.01
   6   6    -0.00   0.02  -0.01     0.00  -0.01   0.00     0.01  -0.00  -0.01
   7   6     0.01   0.00  -0.00    -0.01  -0.00   0.01    -0.00   0.00  -0.00
   8   8    -0.00   0.00  -0.00     0.00  -0.00  -0.00    -0.00   0.00  -0.00
   9   8    -0.00  -0.00   0.00     0.00   0.00  -0.00    -0.00  -0.00   0.00
  10   6     0.04   0.02  -0.08    -0.07  -0.04   0.12     0.06   0.04  -0.13
  11   6     0.08  -0.15  -0.01     0.05  -0.11   0.01     0.05  -0.13  -0.00
  12   1    -0.00   0.01  -0.01     0.00   0.01  -0.00    -0.00   0.01  -0.00
  13   1    -0.02  -0.04   0.03    -0.01  -0.02   0.02    -0.01  -0.02   0.01
  14   1    -0.01   0.02   0.05    -0.01   0.01   0.03    -0.01   0.01   0.03
  15   1     0.01  -0.04  -0.08    -0.00  -0.01  -0.03    -0.01   0.02   0.03
  16   1     0.02   0.07  -0.06     0.01   0.03  -0.02    -0.02  -0.02   0.02
  17   1    -0.00   0.00  -0.00     0.00  -0.01   0.01    -0.00  -0.00  -0.01
  18   1     0.05  -0.12  -0.38     0.03  -0.06  -0.17    -0.04   0.11   0.39
  19   1     0.17   0.31  -0.18     0.08   0.14  -0.09    -0.16  -0.32   0.19
  20   1     0.14  -0.15   0.13    -0.26   0.29  -0.25    -0.12   0.14  -0.12
  21   1     0.05  -0.20  -0.16    -0.10   0.35   0.30    -0.04   0.17   0.14
  22   1     0.00  -0.01   0.01     0.00  -0.00   0.00     0.01  -0.00  -0.00
  23   1    -0.00  -0.00  -0.00     0.00  -0.00   0.00     0.00   0.00   0.00
  24   1    -0.10  -0.17   0.09     0.17   0.27  -0.15    -0.16  -0.28   0.15
  25   1    -0.03   0.06   0.22     0.07  -0.11  -0.33    -0.05   0.10   0.34
  26   1    -0.06   0.33   0.25    -0.04   0.21   0.17    -0.04   0.27   0.20
  27   1    -0.22   0.28  -0.23    -0.15   0.19  -0.15    -0.17   0.23  -0.19
                     58                     59                     60
                        a                      a                      a 
 Frequencies --  1511.9602              1741.0113              2885.8516
 Red. masses --     1.9561                13.3136                 1.7412
 Frc consts  --     0.0000                 0.0000                 0.0000
 IR Inten    --     1.1755               412.9126                24.1012
 Raman Activ --     0.0000                 0.0000                 0.0000
 Depolar     --     0.0000                 0.0000                 0.0000
 Atom AN      X      Y      Z        X      Y      Z        X      Y      Z
   1   7     0.00   0.00  -0.01    -0.00   0.00  -0.00    -0.00  -0.00   0.00
   2   6     0.00  -0.00  -0.01     0.00   0.00   0.00     0.00   0.01   0.00
   3   6     0.03   0.00  -0.01     0.00  -0.00   0.00     0.01  -0.14  -0.19
   4   6     0.04   0.05  -0.11    -0.00  -0.00   0.00     0.00   0.02   0.01
   5   6    -0.07   0.13   0.00     0.01   0.00  -0.01     0.01   0.00   0.02
   6   6    -0.03   0.00   0.01     0.04   0.00  -0.02    -0.00  -0.05  -0.07
   7   6     0.01  -0.01   0.01    -0.33  -0.40   0.59     0.00  -0.00  -0.00
   8   8    -0.00   0.00   0.00    -0.00   0.05  -0.06    -0.00   0.00   0.00
   9   8     0.00   0.01  -0.01     0.24   0.31  -0.45    -0.00  -0.00   0.00
  10   6    -0.06  -0.05   0.15    -0.00  -0.00   0.00     0.00   0.02   0.01
  11   6     0.04  -0.12   0.01    -0.00   0.00  -0.01     0.01  -0.00   0.03
  12   1    -0.00   0.00  -0.01    -0.00  -0.00   0.00     0.00  -0.00  -0.00
  13   1    -0.01  -0.01   0.01     0.00  -0.00   0.00     0.00   0.00   0.01
  14   1    -0.01   0.01   0.02     0.00   0.00   0.00     0.00   0.00  -0.00
  15   1    -0.01   0.01   0.02     0.00  -0.00  -0.00    -0.01  -0.01   0.01
  16   1    -0.01  -0.01   0.01     0.00   0.00   0.00     0.00  -0.03  -0.04
  17   1    -0.04  -0.01  -0.00     0.00   0.00  -0.00    -0.04   0.51   0.73
  18   1    -0.04   0.09   0.28    -0.00   0.00  -0.00    -0.02  -0.05   0.01
  19   1    -0.12  -0.24   0.14     0.00   0.00  -0.00     0.00  -0.04  -0.06
  20   1     0.19  -0.23   0.19    -0.00  -0.00   0.00     0.00  -0.03  -0.04
  21   1     0.08  -0.26  -0.23     0.01   0.00  -0.00    -0.02   0.02  -0.03
  22   1     0.02   0.00   0.00     0.02  -0.00   0.00     0.00   0.19   0.27
  23   1    -0.00   0.00  -0.00     0.03  -0.08   0.07     0.00  -0.00  -0.00
  24   1     0.18   0.31  -0.17    -0.02  -0.00   0.00     0.00  -0.02  -0.04
  25   1     0.07  -0.12  -0.37    -0.01   0.01   0.01    -0.02  -0.03   0.01
  26   1    -0.04   0.22   0.17    -0.01  -0.00   0.00    -0.04   0.04  -0.06
  27   1    -0.14   0.20  -0.16     0.00  -0.00   0.00     0.00  -0.05  -0.06
                     61                     62                     63
                        a                      a                      a 
 Frequencies --  2886.6472              2918.1741              2923.1368
 Red. masses --     1.7424                 1.9023                 1.9330
 Frc consts  --     0.0000                 0.0000                 0.0000
 IR Inten    --     1.8489                57.0023                 2.6082
 Raman Activ --     0.0000                 0.0000                 0.0000
 Depolar     --     0.0000                 0.0000                 0.0000
 Atom AN      X      Y      Z        X      Y      Z        X      Y      Z
   1   7     0.00   0.00  -0.00    -0.00  -0.00   0.00    -0.00   0.00  -0.00
   2   6    -0.00  -0.00  -0.00     0.00   0.00  -0.00     0.00   0.00   0.00
   3   6    -0.00   0.05   0.07     0.00   0.01   0.02    -0.00   0.00  -0.00
   4   6     0.00  -0.00   0.00    -0.02  -0.05  -0.02     0.01   0.01  -0.01
   5   6     0.01  -0.00   0.02    -0.01   0.01  -0.02     0.06  -0.01   0.14
   6   6    -0.00  -0.14  -0.20     0.00   0.00  -0.00    -0.00  -0.01  -0.00
   7   6     0.00  -0.00  -0.01    -0.00  -0.00   0.00     0.00  -0.00   0.00
   8   8    -0.00   0.00   0.00     0.00  -0.00  -0.00     0.00   0.00  -0.00
   9   8    -0.00  -0.00   0.00     0.00   0.00  -0.00    -0.00   0.00  -0.00
  10   6     0.00   0.02   0.01    -0.00  -0.03  -0.02    -0.08  -0.22  -0.06
  11   6     0.00   0.00  -0.00     0.11  -0.05   0.25    -0.01   0.01  -0.00
  12   1    -0.00   0.00   0.00     0.00  -0.00  -0.00    -0.00  -0.00   0.00
  13   1    -0.00  -0.00  -0.00    -0.00   0.00   0.00     0.00   0.00   0.00
  14   1    -0.00  -0.00   0.00    -0.00   0.02  -0.01     0.00  -0.00   0.00
  15   1     0.00   0.00  -0.00    -0.00  -0.01   0.00    -0.00  -0.01   0.00
  16   1    -0.00   0.01   0.01     0.00   0.01   0.01     0.00  -0.00  -0.01
  17   1     0.02  -0.19  -0.27     0.00  -0.04  -0.06     0.00   0.00   0.00
  18   1     0.00   0.00  -0.00     0.06   0.12  -0.03    -0.03  -0.07   0.01
  19   1    -0.00   0.01   0.01    -0.01   0.05   0.08    -0.00   0.02   0.02
  20   1     0.00  -0.04  -0.05    -0.00   0.01   0.01     0.02  -0.17  -0.21
  21   1    -0.02   0.02  -0.03     0.04  -0.03   0.06    -0.22   0.20  -0.31
  22   1     0.01   0.51   0.74    -0.00  -0.00  -0.01     0.00   0.01   0.02
  23   1     0.00  -0.00  -0.00     0.00  -0.00  -0.00    -0.00  -0.00   0.00
  24   1     0.00  -0.03  -0.05    -0.01   0.07   0.11    -0.04   0.19   0.34
  25   1    -0.02  -0.04   0.01     0.02   0.04  -0.01     0.31   0.61  -0.14
  26   1     0.00  -0.00   0.00    -0.42   0.40  -0.63     0.04  -0.03   0.06
  27   1    -0.00   0.01   0.01     0.03  -0.23  -0.27     0.00  -0.03  -0.05
                     64                     65                     66
                        a                      a                      a 
 Frequencies --  2925.0429              2928.0922              2958.2314
 Red. masses --     1.9329                 1.8802                 1.5420
 Frc consts  --     0.0000                 0.0000                 0.0000
 IR Inten    --     7.9534                42.8332                 2.6558
 Raman Activ --     0.0000                 0.0000                 0.0000
 Depolar     --     0.0000                 0.0000                 0.0000
 Atom AN      X      Y      Z        X      Y      Z        X      Y      Z
   1   7    -0.00  -0.00   0.00    -0.00  -0.00   0.00     0.00   0.00  -0.00
   2   6    -0.00  -0.00   0.00    -0.00  -0.01   0.00    -0.01  -0.05  -0.01
   3   6     0.00   0.01   0.01     0.00   0.02   0.02    -0.00   0.00   0.00
   4   6     0.05   0.16   0.04     0.08   0.20   0.03    -0.02  -0.01   0.06
   5   6    -0.07   0.01  -0.19     0.06  -0.03   0.12     0.05  -0.12  -0.05
   6   6    -0.00  -0.02  -0.02     0.00   0.01   0.02    -0.00  -0.01  -0.01
   7   6     0.00   0.00  -0.00    -0.00   0.00   0.00     0.00  -0.00  -0.00
   8   8    -0.00  -0.00   0.00     0.00  -0.00  -0.00     0.00   0.00  -0.00
   9   8    -0.00  -0.00   0.00     0.00   0.00  -0.00    -0.00  -0.00   0.00
  10   6    -0.04  -0.10  -0.02     0.03   0.09   0.01     0.03   0.00  -0.09
  11   6    -0.00  -0.00   0.00     0.03  -0.02   0.04    -0.03   0.09   0.05
  12   1    -0.00   0.00   0.00    -0.00   0.00  -0.00     0.00   0.00  -0.00
  13   1     0.00  -0.00  -0.00    -0.00  -0.00  -0.00     0.00  -0.00  -0.00
  14   1     0.00   0.00   0.00    -0.00   0.00  -0.00    -0.00  -0.01   0.00
  15   1    -0.00   0.00  -0.00     0.00   0.01  -0.01     0.05   0.12  -0.05
  16   1     0.00   0.00   0.00     0.00   0.01   0.01    -0.01   0.07   0.08
  17   1     0.00  -0.01  -0.01     0.00  -0.06  -0.08     0.00  -0.00  -0.01
  18   1    -0.21  -0.43   0.11    -0.29  -0.61   0.14     0.08   0.17  -0.03
  19   1     0.02  -0.16  -0.27     0.02  -0.12  -0.23     0.01  -0.14  -0.20
  20   1    -0.03   0.23   0.28     0.02  -0.08  -0.09    -0.02   0.32   0.44
  21   1     0.28  -0.25   0.39    -0.23   0.20  -0.33    -0.16   0.13  -0.25
  22   1     0.00   0.04   0.06    -0.00  -0.05  -0.07    -0.00   0.02   0.03
  23   1     0.00  -0.00  -0.00    -0.00   0.00   0.00    -0.00  -0.00   0.00
  24   1    -0.01   0.07   0.14     0.01  -0.05  -0.10    -0.02   0.20   0.30
  25   1     0.15   0.30  -0.07    -0.13  -0.26   0.06    -0.10  -0.20   0.03
  26   1     0.00   0.00   0.00    -0.10   0.09  -0.16     0.10  -0.08   0.17
  27   1     0.00  -0.01  -0.01     0.00  -0.01   0.00     0.01  -0.25  -0.36
                     67                     68                     69
                        a                      a                      a 
 Frequencies --  2959.2158              2961.2662              2963.7990
 Red. masses --     1.5575                 1.7024                 1.7656
 Frc consts  --     0.0000                 0.0000                 0.0000
 IR Inten    --    28.2118                 1.2347                13.6786
 Raman Activ --     0.0000                 0.0000                 0.0000
 Depolar     --     0.0000                 0.0000                 0.0000
 Atom AN      X      Y      Z        X      Y      Z        X      Y      Z
   1   7    -0.00  -0.00  -0.00     0.00   0.00   0.00     0.00   0.00   0.00
   2   6     0.02   0.09   0.00    -0.04  -0.16  -0.01    -0.04  -0.20  -0.03
   3   6     0.00  -0.00   0.00    -0.00  -0.01  -0.01    -0.00  -0.01  -0.00
   4   6    -0.03  -0.02   0.07     0.02  -0.02  -0.09    -0.03   0.02   0.13
   5   6     0.05  -0.11  -0.03     0.02  -0.05  -0.03    -0.01   0.04   0.04
   6   6     0.00  -0.01   0.00     0.00  -0.00   0.01     0.00   0.00   0.00
   7   6     0.00  -0.00   0.00     0.00  -0.00   0.00    -0.00   0.00   0.00
   8   8     0.00   0.00  -0.00    -0.00   0.00  -0.00    -0.00  -0.00  -0.00
   9   8     0.00   0.00  -0.00     0.00   0.00  -0.00     0.00   0.00  -0.00
  10   6    -0.04  -0.01   0.09    -0.04   0.01   0.13    -0.00  -0.01  -0.00
  11   6     0.03  -0.09  -0.04    -0.01   0.05   0.05     0.02  -0.06  -0.03
  12   1     0.00  -0.00  -0.00    -0.00   0.00   0.00    -0.00   0.00   0.00
  13   1    -0.00   0.00   0.00     0.00  -0.00  -0.00     0.00  -0.01  -0.01
  14   1     0.00   0.01  -0.01    -0.00  -0.01   0.01    -0.00  -0.01   0.00
  15   1    -0.10  -0.24   0.10     0.16   0.41  -0.16     0.19   0.46  -0.19
  16   1     0.01  -0.09  -0.11    -0.02   0.16   0.20    -0.03   0.25   0.31
  17   1     0.00  -0.00  -0.00    -0.00   0.01   0.02    -0.00   0.01   0.01
  18   1     0.09   0.20  -0.03    -0.06  -0.13   0.01     0.10   0.23  -0.03
  19   1     0.01  -0.15  -0.22    -0.01   0.20   0.30     0.01  -0.30  -0.43
  20   1    -0.02   0.27   0.38    -0.01   0.13   0.18     0.01  -0.13  -0.18
  21   1    -0.16   0.13  -0.25    -0.05   0.04  -0.08     0.03  -0.02   0.05
  22   1     0.00   0.00   0.01     0.00  -0.01  -0.01    -0.00  -0.01  -0.01
  23   1    -0.00  -0.00   0.00     0.00  -0.00  -0.00     0.00   0.00   0.00
  24   1     0.02  -0.20  -0.30     0.03  -0.30  -0.45    -0.00   0.01   0.02
  25   1     0.12   0.25  -0.04     0.12   0.26  -0.03     0.01   0.02  -0.00
  26   1    -0.10   0.09  -0.17     0.02  -0.02   0.05    -0.06   0.05  -0.11
  27   1    -0.01   0.22   0.32     0.01  -0.15  -0.21    -0.01   0.16   0.23
                     70                     71                     72
                        a                      a                      a 
 Frequencies --  2966.2423              2988.8949              3198.8564
 Red. masses --     1.6521                 1.5408                 2.0270
 Frc consts  --     0.0000                 0.0000                 0.0000
 IR Inten    --    80.4264                 9.5937                91.9791
 Raman Activ --     0.0000                 0.0000                 0.0000
 Depolar     --     0.0000                 0.0000                 0.0000
 Atom AN      X      Y      Z        X      Y      Z        X      Y      Z
   1   7     0.00  -0.00   0.00    -0.00   0.00   0.00    -0.24  -0.05   0.14
   2   6    -0.02  -0.07   0.01     0.06  -0.03  -0.21    -0.00  -0.00   0.01
   3   6    -0.00  -0.02  -0.02     0.01  -0.01  -0.01     0.00   0.00  -0.00
   4   6     0.02  -0.03  -0.11     0.01  -0.00  -0.02    -0.00  -0.00   0.00
   5   6     0.02  -0.06  -0.05     0.00  -0.00  -0.00    -0.00   0.00  -0.00
   6   6    -0.00  -0.01  -0.01    -0.00  -0.00  -0.00     0.00   0.00  -0.00
   7   6     0.00   0.00  -0.00     0.00   0.00  -0.00    -0.00   0.00  -0.00
   8   8     0.00   0.00   0.00     0.00  -0.00   0.00     0.00  -0.00   0.00
   9   8    -0.00  -0.00   0.00    -0.00  -0.00   0.00    -0.00  -0.00   0.00
  10   6     0.02  -0.03  -0.10     0.00  -0.00  -0.01    -0.00   0.00   0.00
  11   6     0.03  -0.11  -0.09    -0.00  -0.00  -0.01    -0.00   0.00  -0.00
  12   1    -0.00   0.00   0.00     0.00   0.00  -0.00     0.79  -0.04  -0.24
  13   1     0.00   0.00   0.00     0.00  -0.02  -0.02    -0.01  -0.17  -0.18
  14   1    -0.00  -0.00  -0.00     0.00   0.02  -0.01     0.09   0.38  -0.12
  15   1     0.09   0.23  -0.09    -0.17  -0.46   0.15     0.01   0.01  -0.01
  16   1    -0.01   0.03   0.05    -0.04   0.55   0.60     0.00  -0.01  -0.01
  17   1    -0.00   0.04   0.06    -0.00   0.02   0.04     0.00  -0.00  -0.00
  18   1    -0.06  -0.14   0.01    -0.02  -0.04   0.01    -0.00  -0.00   0.00
  19   1    -0.01   0.25   0.38    -0.00   0.05   0.08    -0.00   0.00   0.00
  20   1    -0.01   0.18   0.25    -0.00   0.01   0.02     0.00  -0.00  -0.00
  21   1    -0.05   0.03  -0.08    -0.00   0.00  -0.00    -0.00  -0.00   0.00
  22   1     0.00   0.03   0.04     0.00   0.00   0.00     0.00   0.00   0.00
  23   1    -0.00  -0.00  -0.00    -0.00   0.00  -0.00     0.00   0.00  -0.00
  24   1    -0.02   0.22   0.34    -0.00   0.01   0.02     0.00  -0.00  -0.00
  25   1    -0.06  -0.13   0.01    -0.00  -0.01   0.00    -0.00  -0.00  -0.00
  26   1    -0.08   0.06  -0.14     0.00  -0.00   0.00     0.01  -0.00   0.01
  27   1    -0.02   0.32   0.45    -0.00   0.02   0.02    -0.00   0.00  -0.00
                     73                     74                     75
                        a                      a                      a 
 Frequencies --  3205.2286              3225.7666              3420.5878
 Red. masses --     2.0445                 1.2794                 1.8543
 Frc consts  --     0.0000                 0.0000                 0.0000
 IR Inten    --    81.3221                23.0906                62.6491
 Raman Activ --     0.0000                 0.0000                 0.0000
 Depolar     --     0.0000                 0.0000                 0.0000
 Atom AN      X      Y      Z        X      Y      Z        X      Y      Z
   1   7    -0.01  -0.26  -0.10     0.06  -0.05   0.12    -0.00  -0.00  -0.00
   2   6    -0.00  -0.01  -0.00     0.00  -0.00   0.01    -0.00  -0.00   0.00
   3   6    -0.00   0.00   0.00    -0.00  -0.00  -0.00     0.00   0.00   0.00
   4   6     0.00  -0.00   0.00    -0.00  -0.00   0.00    -0.00  -0.00  -0.00
   5   6    -0.00   0.00  -0.00     0.00  -0.00  -0.00    -0.00   0.00  -0.00
   6   6     0.00   0.00  -0.00    -0.00   0.00  -0.00    -0.00  -0.00   0.00
   7   6    -0.00   0.00   0.00     0.00   0.00  -0.00     0.01  -0.01   0.00
   8   8     0.00   0.00   0.00     0.00   0.00  -0.00     0.22  -0.00  -0.09
   9   8    -0.00  -0.00  -0.00    -0.00  -0.00   0.00     0.00   0.00  -0.00
  10   6    -0.00   0.00   0.00     0.00   0.00  -0.00     0.00  -0.00   0.00
  11   6    -0.00   0.00  -0.00    -0.00   0.00  -0.00     0.00  -0.00   0.00
  12   1    -0.09  -0.02   0.02    -0.46   0.02   0.16     0.00   0.00  -0.00
  13   1    -0.05   0.46   0.56     0.05  -0.39  -0.44     0.00   0.00   0.00
  14   1     0.17   0.55  -0.21     0.18   0.57  -0.19     0.00  -0.00  -0.00
  15   1     0.01   0.01  -0.00     0.00   0.02  -0.01     0.00   0.00  -0.00
  16   1    -0.00   0.01   0.01     0.00  -0.01  -0.01     0.00  -0.00  -0.00
  17   1    -0.00  -0.00  -0.00     0.00   0.00   0.00    -0.00  -0.00  -0.00
  18   1    -0.00  -0.00   0.00     0.00   0.00  -0.00    -0.00  -0.00   0.00
  19   1     0.00  -0.00  -0.00     0.00  -0.00  -0.00    -0.00   0.00   0.00
  20   1     0.00   0.00   0.00    -0.00   0.00   0.00     0.00  -0.00  -0.00
  21   1     0.00  -0.00   0.00    -0.00   0.00  -0.00     0.00  -0.00   0.00
  22   1    -0.00  -0.00  -0.00     0.00  -0.00  -0.00     0.00   0.00   0.00
  23   1     0.00   0.00  -0.00    -0.00   0.00   0.00    -0.91   0.03   0.35
  24   1     0.00   0.00  -0.00    -0.00   0.00   0.00     0.00  -0.00  -0.00
  25   1    -0.00  -0.00   0.00    -0.00  -0.00   0.00     0.00   0.00  -0.00
  26   1     0.01  -0.01   0.01     0.01  -0.00   0.01    -0.00   0.00  -0.00
  27   1    -0.00  -0.00  -0.00    -0.00  -0.00  -0.00    -0.00   0.00   0.00
