 Entering Gaussian System
 *********************************************
 Gaussian 98:
 frequency output generated by the xtb code
 *********************************************
                         Standard orientation:
 --------------------------------------------------------------------
  Center     Atomic     Atomic              Coordinates (Angstroms)
  Number     Number      Type              X           Y           Z
 --------------------------------------------------------------------
    1          7             0       -4.423193    0.291616    1.644375
    2          6             0       -4.798201    1.374746    0.695164
    3          6             0       -4.123196    1.200061   -0.663248
    4          6             0       -2.628676    1.106443   -0.559683
    5          6             0       -1.846190    2.251039   -0.508278
    6          6             0       -0.476560    2.162672   -0.373182
    7          6             0        0.159184    0.924329   -0.279402
    8          6             0        1.610784    0.870481   -0.134787
    9          6             0        2.350818   -0.247573   -0.138998
   10          6             0        3.802199   -0.301870    0.009387
   11          6             0        4.567886    0.821857    0.327723
   12          6             0        5.938076    0.729440    0.462328
   13          6             0        6.573909   -0.483584    0.284118
   14          6             0        5.834462   -1.607641   -0.028218
   15          6             0        4.464512   -1.518864   -0.163193
   16          6             0       -0.635262   -0.221867   -0.318447
   17          6             0       -2.004872   -0.128820   -0.453773
   18         17             0       -4.480765   -2.709477   -0.137380
   19          1             0       -4.961900    0.330760    2.525737
   20          1             0       -3.421472    0.346701    1.885702
   21          1             0       -4.575270   -0.639394    1.212587
   22          1             0       -4.521684    2.344666    1.126132
   23          1             0       -5.888991    1.402062    0.577118
   24          1             0       -4.389574    2.023721   -1.336938
   25          1             0       -4.502263    0.292512   -1.147625
   26          1             0       -2.322915    3.215421   -0.572188
   27          1             0        0.118785    3.060429   -0.338416
   28          1             0        2.109180    1.818029   -0.030761
   29          1             0        1.855983   -1.193040   -0.274774
   30          1             0        4.085561    1.772100    0.480093
   31          1             0        6.514871    1.607147    0.709265
   32          1             0        7.645439   -0.553349    0.390024
   33          1             0        6.329117   -2.556234   -0.166668
   34          1             0        3.889886   -2.397441   -0.407689
   35          1             0       -0.179167   -1.193030   -0.230507
   36          1             0       -2.609667   -1.021617   -0.463899
 --------------------------------------------------------------------
     1 basis functions        1 primitive gaussians
     1 alpha electrons        1 beta electrons

 Harmonic frequencies (cm**-1), IR intensities (km*mol⁻¹),
 Raman scattering activities (A**4/amu), Raman depolarization ratios,
 reduced masses (AMU), force constants (mDyne/A) and normal coordinates:
                      1                      2                      3
                        a                      a                      a 
 Frequencies --  -140.8418               -81.4553               -53.1288
 Red. masses --    19.1600                 7.8974                 9.7815
 Frc consts  --     0.0000                 0.0000                 0.0000
 IR Inten    --   125.6768                 0.3069                 0.0927
 Raman Activ --     0.0000                 0.0000                 0.0000
 Depolar     --     0.0000                 0.0000                 0.0000
 Atom AN      X      Y      Z        X      Y      Z        X      Y      Z
   1   7     0.06   0.54   0.29     0.02  -0.01   0.04    -0.00   0.02   0.00
   2   6     0.02   0.27   0.01     0.01   0.02   0.08     0.01  -0.00  -0.02
   3   6    -0.02  -0.03   0.03    -0.01   0.07   0.07     0.01  -0.03  -0.02
   4   6    -0.01  -0.03   0.02    -0.01   0.04   0.03     0.01  -0.02  -0.02
   5   6    -0.02  -0.02   0.02     0.02   0.02   0.05     0.02  -0.02  -0.28
   6   6    -0.02  -0.02   0.02     0.03  -0.01  -0.07     0.02  -0.01  -0.27
   7   6    -0.01  -0.01   0.01     0.02  -0.02  -0.19     0.01   0.00   0.01
   8   6    -0.01  -0.01   0.02     0.04  -0.04  -0.38     0.01   0.00   0.02
   9   6    -0.00  -0.00  -0.02    -0.05  -0.10   0.43     0.00  -0.00  -0.04
  10   6    -0.00   0.00  -0.01    -0.03  -0.05   0.22    -0.00  -0.01  -0.01
  11   6    -0.01   0.00   0.01    -0.05  -0.04   0.21    -0.05  -0.07   0.34
  12   6    -0.01   0.00   0.01    -0.03   0.03   0.03    -0.05  -0.06   0.35
  13   6    -0.01   0.01   0.01     0.01   0.08  -0.16    -0.00   0.01   0.01
  14   6    -0.00   0.01  -0.01     0.03   0.06  -0.13     0.04   0.08  -0.33
  15   6    -0.00   0.01  -0.02     0.01  -0.01   0.07     0.04   0.07  -0.34
  16   6    -0.01  -0.02   0.01    -0.01  -0.00  -0.19    -0.01   0.00   0.26
  17   6    -0.01  -0.03   0.02    -0.02   0.03  -0.08    -0.01  -0.01   0.25
  18  17     0.04  -0.51  -0.30     0.01  -0.04  -0.02    -0.03   0.04   0.06
  19   1     0.08   0.25   0.11     0.01  -0.01   0.01     0.01   0.02   0.00
  20   1     0.04   0.12  -0.00     0.00  -0.00   0.01     0.00  -0.01  -0.01
  21   1    -0.07   0.14   0.18     0.00   0.00   0.00    -0.02   0.00   0.01
  22   1     0.01   0.11  -0.06     0.01   0.00   0.03     0.01   0.00  -0.01
  23   1     0.00   0.07   0.02     0.00   0.01   0.03     0.00   0.00  -0.01
  24   1    -0.01  -0.05  -0.04    -0.00   0.03   0.03     0.00  -0.02  -0.01
  25   1    -0.01  -0.04   0.06    -0.01   0.03   0.01     0.00  -0.01   0.00
  26   1    -0.01  -0.01   0.01     0.01   0.01   0.04     0.01  -0.01  -0.15
  27   1    -0.01  -0.00   0.00     0.01  -0.00  -0.02     0.01  -0.00  -0.14
  28   1    -0.01  -0.00   0.02     0.05   0.00  -0.39     0.00  -0.00   0.01
  29   1     0.00   0.00  -0.02    -0.04  -0.06   0.40     0.00   0.00  -0.04
  30   1    -0.00  -0.00   0.00    -0.03  -0.03   0.12    -0.03  -0.04   0.18
  31   1    -0.00   0.00   0.01    -0.01   0.01   0.01    -0.03  -0.03   0.18
  32   1    -0.00   0.00   0.00     0.01   0.04  -0.09    -0.00   0.01   0.00
  33   1     0.00   0.00  -0.00     0.02   0.03  -0.08     0.02   0.04  -0.17
  34   1     0.00   0.00  -0.01     0.01  -0.01   0.03     0.02   0.03  -0.18
  35   1    -0.00  -0.00  -0.00    -0.01  -0.01  -0.11    -0.01   0.01   0.14
  36   1    -0.00  -0.01   0.01    -0.01   0.01  -0.03    -0.00  -0.00   0.12
                      4                      5                      6
                        a                      a                      a 
 Frequencies --    33.7051                40.1699                57.4712
 Red. masses --    11.7625                18.4617                21.1983
 Frc consts  --     0.0000                 0.0000                 0.0000
 IR Inten    --     1.0331                 1.7754                13.9428
 Raman Activ --     0.0000                 0.0000                 0.0000
 Depolar     --     0.0000                 0.0000                 0.0000
 Atom AN      X      Y      Z        X      Y      Z        X      Y      Z
   1   7    -0.14   0.06  -0.16    -0.08   0.13   0.05    -0.05  -0.20   0.05
   2   6    -0.08   0.01  -0.21     0.03   0.08  -0.05     0.09  -0.02   0.18
   3   6     0.05  -0.03  -0.14     0.03  -0.12  -0.02     0.04   0.07   0.15
   4   6     0.04  -0.03   0.01     0.03  -0.15  -0.01     0.05   0.05   0.08
   5   6     0.04  -0.03  -0.02     0.02  -0.15   0.16     0.07   0.04  -0.14
   6   6     0.03  -0.03   0.10     0.01  -0.16   0.16     0.08   0.04  -0.23
   7   6     0.01  -0.02   0.25     0.02  -0.16  -0.01     0.07   0.04  -0.09
   8   6     0.01  -0.02   0.26     0.02  -0.14   0.01     0.08   0.04  -0.16
   9   6     0.01  -0.02   0.31     0.08  -0.10  -0.08     0.07   0.04  -0.05
  10   6     0.03  -0.01   0.15     0.08  -0.01  -0.04     0.07   0.04  -0.04
  11   6     0.06   0.02  -0.03    -0.01   0.03   0.06     0.08   0.06  -0.13
  12   6     0.09   0.05  -0.29    -0.01   0.14   0.10     0.07   0.05  -0.06
  13   6     0.08   0.06  -0.37     0.09   0.20   0.04     0.06   0.02   0.11
  14   6     0.04   0.03  -0.16     0.20   0.16  -0.05     0.05   0.00   0.18
  15   6     0.01  -0.01   0.11     0.19   0.06  -0.09     0.06   0.02   0.10
  16   6     0.01  -0.02   0.31     0.04  -0.17  -0.18     0.04   0.05   0.13
  17   6     0.02  -0.02   0.19     0.03  -0.15  -0.17     0.04   0.05   0.20
  18  17    -0.18  -0.01  -0.13    -0.48   0.29   0.07    -0.60  -0.22  -0.20
  19   1    -0.05   0.03  -0.05    -0.01   0.07   0.02     0.01  -0.04   0.03
  20   1    -0.04   0.02  -0.03    -0.02   0.01   0.01    -0.00  -0.12  -0.02
  21   1    -0.03   0.01  -0.03    -0.06   0.03   0.04    -0.09  -0.03  -0.01
  22   1    -0.04   0.01  -0.06     0.03   0.03  -0.04     0.06  -0.03   0.09
  23   1    -0.02  -0.01  -0.09     0.01   0.05  -0.01     0.03   0.04   0.06
  24   1     0.03  -0.01  -0.06     0.02  -0.06  -0.04     0.01   0.03   0.06
  25   1     0.03  -0.01  -0.04    -0.00  -0.05   0.03     0.00   0.03   0.03
  26   1     0.02  -0.01  -0.04     0.00  -0.04   0.08     0.02   0.01  -0.07
  27   1     0.01  -0.01   0.02     0.00  -0.05   0.09     0.03   0.01  -0.12
  28   1     0.01  -0.00   0.05    -0.01  -0.04   0.04     0.03   0.01  -0.08
  29   1    -0.00  -0.01   0.12     0.04  -0.03  -0.06     0.02   0.01   0.02
  30   1     0.02   0.00   0.01    -0.03  -0.00   0.03     0.02   0.03  -0.07
  31   1     0.04   0.02  -0.13    -0.03   0.05   0.05     0.02   0.02  -0.03
  32   1     0.03   0.03  -0.17     0.03   0.08   0.02     0.01   0.00   0.05
  33   1     0.01   0.01  -0.06     0.08   0.06  -0.03     0.01  -0.01   0.09
  34   1    -0.00  -0.01   0.08     0.08   0.01  -0.05     0.02   0.00   0.05
  35   1    -0.00  -0.00   0.13     0.02  -0.05  -0.09     0.01   0.02   0.07
  36   1     0.00  -0.01   0.06     0.01  -0.04  -0.07     0.01   0.02   0.09
                      7                      8                      9
                        a                      a                      a 
 Frequencies --    73.6118                88.0910                95.9661
 Red. masses --    14.2354                19.6793                10.8944
 Frc consts  --     0.0000                 0.0000                 0.0000
 IR Inten    --     5.6373                23.3765                19.1230
 Raman Activ --     0.0000                 0.0000                 0.0000
 Depolar     --     0.0000                 0.0000                 0.0000
 Atom AN      X      Y      Z        X      Y      Z        X      Y      Z
   1   7     0.05  -0.00   0.00     0.02  -0.07  -0.24     0.50  -0.09   0.04
   2   6     0.04   0.10   0.13     0.02   0.06  -0.08     0.32  -0.02   0.16
   3   6    -0.03   0.22   0.08     0.05   0.34  -0.10    -0.02  -0.04  -0.00
   4   6    -0.03   0.06   0.03     0.04   0.22  -0.07    -0.01  -0.04  -0.22
   5   6     0.08  -0.01  -0.10     0.12   0.16   0.07    -0.04  -0.03  -0.21
   6   6     0.07  -0.14  -0.11     0.10   0.04   0.13    -0.05  -0.00  -0.07
   7   6    -0.06  -0.20   0.02     0.01  -0.01   0.06    -0.05   0.01   0.05
   8   6    -0.07  -0.28   0.03    -0.01  -0.10   0.12    -0.08   0.02   0.27
   9   6    -0.05  -0.26  -0.06    -0.01  -0.10  -0.05    -0.06   0.04   0.12
  10   6    -0.04  -0.13  -0.03    -0.01  -0.07  -0.02    -0.07   0.02   0.16
  11   6    -0.17  -0.02  -0.12    -0.07  -0.05   0.06    -0.04   0.02   0.11
  12   6    -0.16   0.16  -0.09    -0.06   0.03   0.06    -0.03   0.02  -0.04
  13   6    -0.01   0.22   0.03     0.01   0.08  -0.01    -0.05   0.02  -0.13
  14   6     0.12   0.11   0.12     0.07   0.05  -0.08    -0.08   0.02  -0.03
  15   6     0.11  -0.07   0.08     0.06  -0.02  -0.08    -0.09   0.02   0.12
  16   6    -0.17  -0.13   0.14    -0.07   0.05  -0.09    -0.02  -0.01  -0.09
  17   6    -0.16   0.00   0.14    -0.06   0.16  -0.15    -0.01  -0.04  -0.21
  18  17     0.30   0.19  -0.20    -0.14  -0.51   0.33    -0.16   0.06  -0.03
  19   1     0.01  -0.04   0.00     0.03  -0.02  -0.05     0.23   0.01   0.07
  20   1     0.01  -0.00   0.01     0.01  -0.05  -0.09     0.17  -0.08  -0.10
  21   1     0.02   0.01  -0.04    -0.04  -0.02  -0.06     0.02  -0.01   0.03
  22   1     0.03   0.02   0.06    -0.00  -0.00   0.03     0.15  -0.02   0.03
  23   1     0.01   0.04   0.05     0.01   0.02  -0.03     0.08   0.02   0.13
  24   1     0.01   0.09   0.06     0.03   0.15   0.03    -0.04  -0.01   0.02
  25   1    -0.04   0.09  -0.01     0.00   0.14  -0.10    -0.04  -0.01   0.02
  26   1     0.05   0.01  -0.06     0.06   0.06   0.04    -0.01  -0.01  -0.08
  27   1     0.05  -0.06  -0.06     0.05  -0.00   0.07    -0.02   0.00  -0.01
  28   1    -0.02  -0.08   0.03     0.00  -0.04   0.09    -0.03   0.00   0.16
  29   1    -0.00  -0.08  -0.04     0.00  -0.02  -0.07    -0.01   0.02  -0.04
  30   1    -0.08  -0.02  -0.06    -0.03  -0.02   0.03    -0.01   0.01   0.04
  31   1    -0.08   0.07  -0.05    -0.03   0.01   0.03     0.00   0.01  -0.03
  32   1    -0.00   0.10   0.01     0.00   0.04  -0.00    -0.01   0.01  -0.08
  33   1     0.07   0.05   0.06     0.04   0.03  -0.04    -0.03   0.01  -0.02
  34   1     0.06  -0.05   0.04     0.03  -0.01  -0.04    -0.03   0.01   0.05
  35   1    -0.07  -0.05   0.07    -0.04   0.00  -0.04    -0.00  -0.00  -0.01
  36   1    -0.07   0.02   0.06    -0.03   0.06  -0.07    -0.00  -0.01  -0.07
                     10                     11                     12
                        a                      a                      a 
 Frequencies --   146.3159               182.6694               192.3230
 Red. masses --     9.7524                 8.3217                10.3660
 Frc consts  --     0.0000                 0.0000                 0.0000
 IR Inten    --    22.3979                 4.6902                 0.7494
 Raman Activ --     0.0000                 0.0000                 0.0000
 Depolar     --     0.0000                 0.0000                 0.0000
 Atom AN      X      Y      Z        X      Y      Z        X      Y      Z
   1   7    -0.49  -0.06   0.14     0.17   0.08   0.21     0.11   0.03  -0.05
   2   6     0.03   0.16   0.18    -0.36  -0.32  -0.05    -0.16   0.01   0.05
   3   6    -0.04   0.05   0.15    -0.04  -0.01   0.05    -0.20   0.19  -0.01
   4   6    -0.02  -0.01  -0.06    -0.02   0.13   0.08    -0.20   0.02  -0.04
   5   6     0.01  -0.02  -0.19     0.04   0.10  -0.05    -0.10  -0.05  -0.06
   6   6     0.01  -0.02  -0.18     0.06   0.05  -0.16    -0.11  -0.15  -0.02
   7   6     0.01  -0.02  -0.08     0.04   0.03  -0.13    -0.13  -0.16   0.03
   8   6    -0.01   0.00   0.22     0.03  -0.05   0.07    -0.09  -0.04   0.03
   9   6     0.05   0.04   0.00     0.04  -0.05  -0.11     0.12   0.09   0.14
  10   6     0.04   0.02   0.14     0.02  -0.09   0.11     0.18   0.18  -0.01
  11   6     0.09  -0.01   0.14     0.00  -0.08   0.14     0.32   0.10  -0.05
  12   6     0.10  -0.03  -0.02     0.02   0.01  -0.01     0.32  -0.08   0.04
  13   6     0.08  -0.02  -0.16     0.08   0.06  -0.14     0.20  -0.16   0.12
  14   6     0.03  -0.01  -0.04     0.09   0.00   0.03     0.09  -0.04  -0.03
  15   6     0.01   0.01   0.11     0.07  -0.07   0.16     0.11   0.14  -0.08
  16   6     0.01  -0.01  -0.22    -0.01   0.07  -0.14    -0.23  -0.11  -0.02
  17   6     0.00  -0.01  -0.20    -0.01   0.12  -0.02    -0.24  -0.01  -0.03
  18  17     0.12  -0.05   0.02    -0.13   0.03  -0.04     0.00   0.02   0.00
  19   1    -0.25  -0.07  -0.03     0.01  -0.01   0.04     0.08  -0.00   0.02
  20   1    -0.17  -0.04   0.19     0.03   0.19   0.08     0.04   0.03  -0.08
  21   1    -0.07   0.01  -0.04     0.18  -0.02   0.10     0.02   0.01  -0.01
  22   1     0.10   0.01   0.08    -0.32  -0.02  -0.03    -0.08   0.01   0.02
  23   1     0.01   0.17   0.04    -0.10  -0.31  -0.08    -0.05  -0.05   0.03
  24   1    -0.02   0.01   0.04    -0.03   0.01   0.04    -0.03   0.10   0.04
  25   1    -0.04   0.02   0.06     0.05  -0.00  -0.04    -0.09   0.09  -0.05
  26   1     0.01  -0.00  -0.06     0.02   0.03  -0.01    -0.00  -0.00  -0.03
  27   1     0.00  -0.01  -0.06     0.02   0.01  -0.07    -0.02  -0.05  -0.01
  28   1    -0.03  -0.00   0.20     0.00  -0.03   0.15    -0.06   0.01  -0.04
  29   1     0.03   0.02  -0.13     0.02  -0.00  -0.16     0.06   0.00   0.10
  30   1     0.03   0.00   0.05    -0.01  -0.03   0.05     0.12   0.05  -0.03
  31   1     0.04  -0.01  -0.02    -0.00   0.01  -0.02     0.12  -0.04   0.02
  32   1     0.03  -0.01  -0.10     0.03   0.04  -0.10     0.05  -0.08   0.07
  33   1    -0.00  -0.01  -0.03     0.04   0.01   0.00    -0.01  -0.03  -0.02
  34   1    -0.01   0.00   0.05     0.03  -0.03   0.07     0.01   0.06  -0.04
  35   1     0.00  -0.00  -0.07    -0.01   0.01  -0.05    -0.08  -0.04  -0.01
  36   1     0.00  -0.00  -0.05    -0.01   0.04  -0.00    -0.08   0.00  -0.02
                     13                     14                     15
                        a                      a                      a 
 Frequencies --   228.4506               253.8463               272.0223
 Red. masses --     8.0581                 7.4296                 8.4036
 Frc consts  --     0.0000                 0.0000                 0.0000
 IR Inten    --     4.6768                 0.9494                 0.2818
 Raman Activ --     0.0000                 0.0000                 0.0000
 Depolar     --     0.0000                 0.0000                 0.0000
 Atom AN      X      Y      Z        X      Y      Z        X      Y      Z
   1   7     0.02   0.03   0.22    -0.18  -0.07   0.08    -0.11  -0.00   0.02
   2   6     0.03  -0.10   0.02    -0.09  -0.09   0.02    -0.16  -0.09  -0.03
   3   6     0.05  -0.03   0.01    -0.13  -0.19   0.01     0.17   0.11   0.10
   4   6     0.07   0.05  -0.14    -0.09   0.11  -0.08     0.16  -0.01   0.19
   5   6     0.08   0.05  -0.19    -0.08   0.12  -0.11     0.21  -0.04  -0.02
   6   6     0.07   0.02  -0.01    -0.06   0.14  -0.01     0.19  -0.12  -0.13
   7   6     0.02   0.01   0.18     0.01   0.16   0.08     0.07  -0.15  -0.06
   8   6     0.00  -0.04   0.21     0.03  -0.04   0.11    -0.00  -0.02   0.15
   9   6    -0.06  -0.07   0.31    -0.02  -0.11   0.14    -0.01   0.02   0.14
  10   6    -0.02  -0.02  -0.10     0.04  -0.18  -0.04    -0.06   0.15   0.04
  11   6    -0.04   0.04  -0.26     0.00  -0.14  -0.13    -0.04   0.17  -0.08
  12   6    -0.07   0.03  -0.03     0.00  -0.01  -0.04    -0.06   0.04  -0.03
  13   6    -0.07  -0.02   0.26     0.11   0.02   0.11    -0.19  -0.05   0.08
  14   6    -0.01   0.03  -0.06     0.19  -0.00   0.00    -0.21   0.01  -0.07
  15   6     0.01   0.02  -0.25     0.18  -0.12  -0.08    -0.19   0.12  -0.09
  16   6     0.02   0.02  -0.00    -0.01   0.18  -0.03     0.09  -0.16  -0.18
  17   6     0.05   0.04  -0.19    -0.01   0.15  -0.09     0.08  -0.07   0.01
  18  17    -0.09  -0.04  -0.02     0.10   0.08   0.02     0.05   0.07   0.01
  19   1    -0.20  -0.12  -0.06     0.18   0.20   0.15     0.16   0.16   0.12
  20   1    -0.07   0.18   0.31     0.03  -0.23  -0.26     0.04  -0.13  -0.23
  21   1     0.25  -0.01  -0.01    -0.36  -0.02   0.15    -0.25  -0.01   0.12
  22   1    -0.05  -0.01  -0.00     0.01  -0.03  -0.01    -0.13  -0.01   0.02
  23   1     0.01  -0.07  -0.02    -0.03   0.00   0.02    -0.04  -0.10  -0.08
  24   1    -0.02  -0.01   0.02    -0.10  -0.11  -0.03     0.09   0.07   0.06
  25   1     0.02  -0.01   0.00     0.01  -0.10   0.06     0.06   0.06  -0.04
  26   1     0.03   0.01  -0.08    -0.02   0.03  -0.04     0.07  -0.01  -0.02
  27   1     0.03   0.00   0.00    -0.03   0.05   0.01     0.08  -0.05  -0.06
  28   1     0.02  -0.01  -0.04     0.04  -0.02  -0.00    -0.02  -0.00   0.08
  29   1    -0.03  -0.03   0.21    -0.02  -0.03   0.08     0.01   0.00   0.02
  30   1    -0.01   0.02  -0.12    -0.01  -0.04  -0.05     0.00   0.06  -0.05
  31   1    -0.03   0.01  -0.00    -0.03   0.02  -0.01     0.01  -0.01  -0.02
  32   1    -0.03  -0.02   0.18     0.03   0.03   0.07    -0.06  -0.04   0.06
  33   1     0.01   0.01  -0.02     0.08   0.01   0.00    -0.07  -0.00  -0.03
  34   1     0.01   0.01  -0.11     0.08  -0.05  -0.04    -0.08   0.06  -0.04
  35   1     0.00   0.00  -0.00    -0.01   0.05  -0.02     0.02  -0.05  -0.10
  36   1     0.01   0.02  -0.08     0.01   0.04  -0.03     0.00  -0.01   0.00
                     16                     17                     18
                        a                      a                      a 
 Frequencies --   328.3484               356.9490               361.1680
 Red. masses --     9.9994                 8.4358                 8.7106
 Frc consts  --     0.0000                 0.0000                 0.0000
 IR Inten    --    13.3362                 3.7346                 1.0758
 Raman Activ --     0.0000                 0.0000                 0.0000
 Depolar     --     0.0000                 0.0000                 0.0000
 Atom AN      X      Y      Z        X      Y      Z        X      Y      Z
   1   7     0.13   0.06  -0.31     0.06  -0.01  -0.14     0.03  -0.00  -0.08
   2   6    -0.15   0.21   0.05     0.10   0.06  -0.05     0.03   0.04  -0.02
   3   6    -0.07   0.09   0.13     0.01  -0.31   0.00    -0.00  -0.15   0.01
   4   6    -0.08  -0.21   0.29     0.01   0.21   0.17    -0.00   0.10   0.08
   5   6    -0.14  -0.16   0.04     0.03   0.20   0.13     0.02   0.09   0.07
   6   6    -0.11   0.07  -0.17     0.06   0.01  -0.08     0.03  -0.00  -0.05
   7   6     0.06   0.16  -0.09    -0.05  -0.07  -0.19    -0.02  -0.04  -0.08
   8   6     0.05   0.10   0.21    -0.09  -0.18   0.06    -0.04  -0.08   0.04
   9   6    -0.04   0.02   0.17    -0.02  -0.12   0.06    -0.01  -0.06   0.05
  10   6    -0.02  -0.16   0.05    -0.01   0.07   0.12     0.00   0.04   0.05
  11   6    -0.04  -0.10  -0.11     0.07   0.11  -0.19    -0.01  -0.03   0.35
  12   6    -0.05   0.01  -0.05     0.03  -0.04   0.14     0.07   0.08  -0.39
  13   6     0.02   0.03   0.12     0.00  -0.05   0.07    -0.00  -0.03   0.05
  14   6     0.10   0.02  -0.05    -0.01   0.05  -0.23    -0.06  -0.07   0.33
  15   6     0.08  -0.10  -0.09    -0.04   0.06   0.14     0.03   0.13  -0.39
  16   6     0.15   0.09  -0.20    -0.10  -0.02  -0.14    -0.05  -0.01  -0.06
  17   6     0.09  -0.14   0.12    -0.09   0.17   0.18    -0.04   0.08   0.07
  18  17    -0.02  -0.04   0.00    -0.01  -0.03   0.00    -0.00  -0.02   0.00
  19   1     0.04  -0.12  -0.07    -0.03  -0.07  -0.06    -0.01  -0.04  -0.03
  20   1     0.03   0.08  -0.09     0.00   0.02   0.02     0.00   0.01   0.00
  21   1     0.11   0.04  -0.17     0.07   0.01  -0.09     0.03   0.00  -0.05
  22   1    -0.05   0.05   0.03     0.10   0.01  -0.05     0.04   0.01  -0.02
  23   1    -0.04   0.05   0.03     0.03   0.08   0.02     0.01   0.04   0.01
  24   1     0.07   0.04   0.01    -0.09  -0.23  -0.14    -0.04  -0.11  -0.07
  25   1    -0.07   0.05   0.03     0.11  -0.21   0.15     0.05  -0.10   0.08
  26   1    -0.08  -0.06  -0.00     0.03   0.07   0.05     0.02   0.03   0.03
  27   1    -0.07   0.05  -0.10     0.05  -0.02  -0.03     0.03  -0.01  -0.02
  28   1     0.02   0.02   0.12    -0.03  -0.06   0.11    -0.01  -0.03   0.04
  29   1    -0.03   0.03   0.01     0.04  -0.05  -0.05     0.02  -0.02  -0.02
  30   1    -0.02  -0.03  -0.07     0.05   0.06  -0.15    -0.01  -0.03   0.23
  31   1    -0.04   0.02  -0.03     0.02  -0.03   0.07     0.04   0.04  -0.25
  32   1     0.00   0.02   0.08    -0.00  -0.03   0.04    -0.00  -0.02   0.03
  33   1     0.05   0.02  -0.03    -0.01   0.02  -0.15    -0.04  -0.05   0.21
  34   1     0.05  -0.04  -0.05    -0.03   0.02   0.08     0.02   0.07  -0.26
  35   1     0.08   0.04  -0.11    -0.05  -0.01  -0.07    -0.02  -0.01  -0.03
  36   1     0.07  -0.07   0.04    -0.05   0.07   0.08    -0.03   0.03   0.02
                     19                     20                     21
                        a                      a                      a 
 Frequencies --   365.3561               414.2213               454.1647
 Red. masses --     8.9173                 8.7778                10.0425
 Frc consts  --     0.0000                 0.0000                 0.0000
 IR Inten    --     0.2008                 9.5614                 0.7013
 Raman Activ --     0.0000                 0.0000                 0.0000
 Depolar     --     0.0000                 0.0000                 0.0000
 Atom AN      X      Y      Z        X      Y      Z        X      Y      Z
   1   7     0.00  -0.00   0.02    -0.04  -0.03   0.22    -0.00   0.02  -0.04
   2   6     0.02  -0.01  -0.00     0.23  -0.17  -0.12    -0.11   0.05   0.07
   3   6     0.01   0.01  -0.02     0.11   0.15  -0.23    -0.08   0.04   0.07
   4   6     0.00   0.00  -0.01     0.03  -0.08  -0.11    -0.04  -0.12  -0.10
   5   6     0.04  -0.01  -0.43    -0.11  -0.01   0.16    -0.04  -0.10  -0.08
   6   6    -0.04   0.01   0.43    -0.09   0.11  -0.02    -0.01   0.18   0.09
   7   6    -0.01   0.00   0.04    -0.07   0.09  -0.34     0.09   0.20   0.03
   8   6     0.00   0.01  -0.04    -0.09  -0.03  -0.01     0.05  -0.42  -0.09
   9   6     0.01   0.01  -0.03    -0.08  -0.04   0.08    -0.00  -0.45  -0.10
  10   6     0.00   0.00  -0.04    -0.06  -0.06   0.27    -0.00   0.18   0.12
  11   6    -0.01  -0.01   0.02     0.03  -0.03  -0.04     0.04   0.20   0.05
  12   6    -0.00  -0.00   0.01     0.05  -0.00  -0.14     0.06  -0.00  -0.03
  13   6     0.00   0.01  -0.03     0.06  -0.04   0.18    -0.05  -0.07   0.03
  14   6    -0.00  -0.01   0.03     0.06   0.04  -0.11    -0.10  -0.00  -0.05
  15   6     0.00  -0.01   0.01     0.04   0.03  -0.04    -0.06   0.19   0.03
  16   6     0.03  -0.01  -0.38    -0.03   0.05  -0.04     0.11   0.22   0.08
  17   6    -0.04   0.02   0.43    -0.06  -0.08   0.21     0.11  -0.05  -0.06
  18  17    -0.00  -0.00  -0.01     0.00   0.03  -0.01    -0.00  -0.00   0.00
  19   1    -0.01  -0.00  -0.00    -0.07   0.11   0.02     0.03  -0.03   0.01
  20   1    -0.00   0.01   0.02    -0.02  -0.05   0.12     0.01   0.02  -0.04
  21   1     0.01  -0.00   0.00    -0.05  -0.04   0.14     0.01   0.01  -0.03
  22   1     0.00  -0.00  -0.00     0.08  -0.05  -0.04    -0.05   0.02   0.03
  23   1     0.00  -0.00  -0.00     0.07  -0.02  -0.03    -0.03  -0.00   0.02
  24   1     0.01   0.01   0.00     0.09   0.17   0.06    -0.00   0.02   0.03
  25   1    -0.00   0.01  -0.01    -0.02   0.14  -0.20    -0.06   0.03   0.02
  26   1     0.03  -0.01  -0.28    -0.07  -0.02   0.12    -0.05  -0.05  -0.03
  27   1    -0.03   0.01   0.26    -0.04   0.04   0.05    -0.05   0.08   0.05
  28   1     0.00   0.00  -0.02    -0.03  -0.02   0.14     0.12  -0.18   0.00
  29   1     0.00  -0.00   0.02    -0.00  -0.00  -0.11     0.10  -0.17  -0.06
  30   1    -0.00  -0.01   0.02     0.03   0.01  -0.08     0.06   0.08   0.00
  31   1    -0.00  -0.00   0.01     0.01   0.02  -0.11     0.06  -0.02  -0.03
  32   1     0.00   0.00  -0.02     0.01  -0.02   0.09    -0.02  -0.04   0.01
  33   1    -0.00  -0.00   0.02     0.02   0.02  -0.10    -0.06  -0.01  -0.04
  34   1    -0.00  -0.00   0.01     0.03   0.01  -0.08    -0.05   0.08  -0.01
  35   1     0.02  -0.01  -0.28     0.02   0.03   0.05     0.07   0.09   0.05
  36   1    -0.02   0.01   0.22    -0.02  -0.02   0.14     0.08  -0.05  -0.01
                     22                     23                     24
                        a                      a                      a 
 Frequencies --   462.7954               501.0908               542.8916
 Red. masses --     9.9416                10.0861                 8.8897
 Frc consts  --     0.0000                 0.0000                 0.0000
 IR Inten    --     2.8198                 5.6705                 3.6496
 Raman Activ --     0.0000                 0.0000                 0.0000
 Depolar     --     0.0000                 0.0000                 0.0000
 Atom AN      X      Y      Z        X      Y      Z        X      Y      Z
   1   7     0.00  -0.00   0.03     0.00  -0.02   0.07     0.01  -0.02   0.08
   2   6     0.14  -0.06  -0.10     0.05  -0.05  -0.03     0.15  -0.09  -0.12
   3   6     0.23   0.02  -0.02    -0.21   0.02  -0.18    -0.10   0.00  -0.21
   4   6     0.12  -0.06   0.28    -0.17   0.00  -0.12    -0.17   0.03   0.38
   5   6    -0.08   0.08   0.02    -0.03  -0.10   0.17    -0.07  -0.03   0.03
   6   6    -0.08   0.20  -0.16     0.03  -0.08  -0.11    -0.04  -0.05  -0.10
   7   6    -0.23   0.13   0.14     0.21   0.00  -0.21     0.05   0.01   0.40
   8   6    -0.25  -0.16   0.10     0.19  -0.07   0.23     0.15  -0.04  -0.07
   9   6    -0.17  -0.12   0.03     0.16  -0.08   0.19     0.19  -0.01  -0.14
  10   6    -0.05   0.11  -0.33     0.16   0.07  -0.31     0.14  -0.03   0.14
  11   6     0.05  -0.03  -0.01    -0.02   0.12  -0.05    -0.02   0.09   0.08
  12   6     0.06  -0.11   0.14    -0.07   0.05   0.17    -0.02   0.11  -0.08
  13   6     0.18   0.01  -0.19    -0.16   0.06  -0.23    -0.19  -0.01   0.09
  14   6     0.04   0.01   0.17    -0.08  -0.10   0.14    -0.02  -0.07  -0.11
  15   6     0.05   0.11   0.01    -0.03  -0.06  -0.08    -0.02  -0.10   0.05
  16   6    -0.05   0.02  -0.11     0.04   0.12  -0.10    -0.04   0.08  -0.08
  17   6    -0.03  -0.13  -0.00    -0.02   0.10   0.19    -0.06   0.07  -0.02
  18  17     0.00   0.01   0.00    -0.00   0.01  -0.00     0.00   0.01   0.00
  19   1    -0.02   0.05  -0.01    -0.03   0.03   0.00    -0.04   0.07  -0.01
  20   1    -0.01  -0.02   0.03    -0.01  -0.01   0.05    -0.01  -0.02   0.08
  21   1    -0.02  -0.01   0.04     0.00  -0.01   0.04    -0.00  -0.03   0.07
  22   1     0.03  -0.01  -0.03     0.09  -0.02  -0.03     0.15  -0.04  -0.07
  23   1     0.04  -0.01  -0.05     0.01   0.04   0.06     0.04   0.06   0.05
  24   1     0.12   0.04   0.02    -0.06   0.05  -0.00     0.02   0.06  -0.01
  25   1     0.07   0.04  -0.06    -0.08   0.03  -0.09    -0.02   0.04  -0.14
  26   1    -0.08  -0.01  -0.06     0.02  -0.01   0.14     0.02  -0.00  -0.17
  27   1    -0.00   0.05  -0.14    -0.03   0.00   0.02    -0.01  -0.00  -0.25
  28   1    -0.02  -0.06  -0.05     0.06  -0.02   0.07     0.04  -0.01  -0.06
  29   1    -0.01  -0.07   0.11     0.05  -0.03   0.09     0.05  -0.01  -0.01
  30   1     0.03  -0.01   0.09    -0.04  -0.00   0.08    -0.03   0.02  -0.03
  31   1    -0.01  -0.04   0.14    -0.00  -0.03   0.17     0.03   0.02  -0.08
  32   1     0.05   0.01  -0.08    -0.04   0.02  -0.07    -0.05  -0.00   0.02
  33   1    -0.03  -0.03   0.14    -0.01  -0.04   0.16     0.03   0.01  -0.09
  34   1     0.02   0.00   0.08    -0.05  -0.01   0.07    -0.03   0.00  -0.03
  35   1     0.05   0.03  -0.12    -0.02   0.02   0.01    -0.01   0.00  -0.23
  36   1    -0.02  -0.03  -0.06     0.02   0.01   0.13     0.01   0.01  -0.16
                     25                     26                     27
                        a                      a                      a 
 Frequencies --   589.2787               594.6052               610.9783
 Red. masses --    11.1656                10.7155                11.2027
 Frc consts  --     0.0000                 0.0000                 0.0000
 IR Inten    --     0.0741                 1.2360                 2.4410
 Raman Activ --     0.0000                 0.0000                 0.0000
 Depolar     --     0.0000                 0.0000                 0.0000
 Atom AN      X      Y      Z        X      Y      Z        X      Y      Z
   1   7    -0.00   0.00  -0.01    -0.01   0.01  -0.04    -0.01   0.01  -0.00
   2   6     0.00   0.00   0.00     0.00   0.03   0.01     0.01   0.01   0.01
   3   6     0.02  -0.01   0.02     0.22  -0.01   0.14     0.05   0.06   0.02
   4   6     0.01  -0.02   0.01     0.15  -0.04  -0.03     0.03   0.11   0.00
   5   6     0.03  -0.02  -0.01    -0.05   0.10  -0.07    -0.38   0.32  -0.06
   6   6     0.03   0.06   0.01    -0.07   0.21   0.05    -0.41  -0.20  -0.02
   7   6    -0.02   0.03  -0.01    -0.20   0.07  -0.12    -0.05  -0.10  -0.02
   8   6    -0.02  -0.07  -0.02    -0.11  -0.10  -0.01    -0.03  -0.09  -0.01
   9   6     0.03  -0.04  -0.00     0.30   0.11   0.07     0.04  -0.08   0.02
  10   6     0.03  -0.16  -0.03     0.34  -0.04   0.03     0.05  -0.01   0.00
  11   6     0.31  -0.27  -0.02    -0.02   0.19   0.04     0.04   0.01  -0.00
  12   6     0.36   0.33   0.11    -0.07   0.16   0.03     0.04   0.06   0.03
  13   6    -0.03   0.18   0.03    -0.33   0.01  -0.04    -0.05   0.02  -0.02
  14   6    -0.33   0.32   0.03     0.07  -0.28  -0.05    -0.04  -0.01   0.01
  15   6    -0.33  -0.28  -0.10     0.09  -0.25  -0.04    -0.03  -0.06  -0.03
  16   6    -0.05   0.04   0.00    -0.15   0.01   0.05     0.33  -0.29   0.05
  17   6    -0.05  -0.05  -0.02    -0.13  -0.16  -0.06     0.38   0.23   0.01
  18  17     0.00   0.00   0.00     0.00  -0.00   0.00    -0.00  -0.00  -0.00
  19   1     0.00  -0.00  -0.00     0.01  -0.01  -0.00     0.00   0.00   0.00
  20   1     0.00  -0.00  -0.00     0.00  -0.00  -0.02    -0.00  -0.00  -0.00
  21   1    -0.00   0.00  -0.00    -0.01   0.01  -0.03    -0.00   0.00  -0.00
  22   1    -0.01   0.00   0.00    -0.08   0.02   0.03    -0.02   0.00   0.01
  23   1     0.00  -0.00  -0.01     0.01  -0.05  -0.08     0.00  -0.01  -0.02
  24   1     0.01  -0.01  -0.00     0.05  -0.03   0.01     0.04   0.06   0.04
  25   1     0.01  -0.01   0.01     0.06  -0.02   0.07    -0.01   0.05  -0.04
  26   1    -0.01  -0.01  -0.00    -0.09  -0.01   0.01    -0.08   0.10  -0.01
  27   1     0.00   0.02   0.00    -0.01   0.05   0.07    -0.08  -0.08   0.01
  28   1     0.01  -0.03   0.00    -0.09   0.00   0.01    -0.00  -0.03   0.01
  29   1     0.02  -0.02  -0.01     0.12   0.01   0.01     0.04  -0.04  -0.01
  30   1     0.02  -0.11  -0.02    -0.09   0.01  -0.01    -0.01  -0.01  -0.00
  31   1     0.06   0.12   0.03     0.05  -0.00   0.00     0.02   0.01   0.01
  32   1    -0.02  -0.11  -0.03    -0.09   0.03  -0.00    -0.02  -0.01  -0.01
  33   1    -0.03   0.12   0.02     0.10  -0.04   0.00     0.01   0.01   0.01
  34   1    -0.05  -0.11  -0.03    -0.04  -0.03  -0.01    -0.01  -0.01  -0.00
  35   1     0.00   0.02   0.00     0.02   0.04   0.07     0.05  -0.10   0.03
  36   1    -0.01  -0.02  -0.00    -0.06  -0.03   0.01     0.07   0.09  -0.00
                     28                     29                     30
                        a                      a                      a 
 Frequencies --   652.6561               681.9912               730.1486
 Red. masses --     9.3320                 9.5908                 5.4610
 Frc consts  --     0.0000                 0.0000                 0.0000
 IR Inten    --     3.7142                 2.5878                 8.9032
 Raman Activ --     0.0000                 0.0000                 0.0000
 Depolar     --     0.0000                 0.0000                 0.0000
 Atom AN      X      Y      Z        X      Y      Z        X      Y      Z
   1   7     0.00  -0.00   0.01    -0.02   0.01  -0.01     0.00   0.00  -0.00
   2   6     0.01  -0.01  -0.02    -0.03   0.04   0.06     0.01  -0.02  -0.03
   3   6    -0.01  -0.01  -0.02     0.03   0.02   0.04    -0.01  -0.02  -0.01
   4   6    -0.03   0.01   0.14     0.09  -0.02  -0.47    -0.03   0.01   0.20
   5   6     0.01  -0.02  -0.07    -0.02   0.03   0.26     0.00  -0.01  -0.13
   6   6    -0.00  -0.01   0.10     0.03   0.04  -0.28    -0.01  -0.02   0.02
   7   6     0.02  -0.00  -0.05    -0.08   0.02   0.40     0.04  -0.01  -0.23
   8   6     0.03   0.02  -0.12    -0.05  -0.02   0.06    -0.02  -0.03   0.30
   9   6    -0.01  -0.00   0.06     0.02   0.02  -0.18     0.02   0.01  -0.18
  10   6    -0.04  -0.08   0.39     0.01  -0.02   0.11     0.02   0.05  -0.23
  11   6     0.03   0.06  -0.27     0.01   0.01   0.01    -0.02  -0.04   0.18
  12   6    -0.05  -0.07   0.35     0.00  -0.00   0.10    -0.01  -0.02   0.05
  13   6     0.03   0.06  -0.29    -0.02   0.00  -0.01    -0.00  -0.03   0.15
  14   6    -0.04  -0.08   0.35    -0.01  -0.03   0.09    -0.02   0.00   0.07
  15   6     0.03   0.06  -0.29     0.00  -0.02  -0.01    -0.03  -0.02   0.17
  16   6    -0.02   0.02   0.09     0.05  -0.05  -0.26    -0.01   0.03   0.04
  17   6    -0.01   0.00  -0.09     0.00  -0.03   0.28     0.01   0.02  -0.10
  18  17     0.00   0.00   0.00     0.00  -0.00  -0.00    -0.00   0.00  -0.00
  19   1    -0.00   0.01  -0.00     0.01  -0.03   0.01    -0.00   0.02  -0.00
  20   1    -0.00   0.00   0.01     0.00  -0.01  -0.02    -0.00   0.01   0.00
  21   1     0.00  -0.01   0.01    -0.01   0.02  -0.03     0.01  -0.01   0.02
  22   1     0.03  -0.01  -0.01    -0.09   0.02   0.04     0.05  -0.01  -0.02
  23   1     0.00   0.02   0.01    -0.01  -0.05  -0.04     0.00   0.03   0.02
  24   1     0.01   0.01  -0.00    -0.05  -0.02  -0.00     0.03   0.02   0.01
  25   1     0.00   0.00  -0.02    -0.02  -0.01   0.06     0.01   0.01  -0.04
  26   1     0.01  -0.00  -0.08    -0.03   0.00   0.13    -0.00   0.00   0.08
  27   1    -0.00  -0.00  -0.01     0.02   0.00  -0.08    -0.02   0.00   0.16
  28   1    -0.01   0.00   0.08     0.00   0.00  -0.14     0.02   0.01  -0.21
  29   1    -0.00   0.01  -0.08     0.00  -0.02   0.11    -0.02  -0.03   0.26
  30   1     0.03   0.06  -0.28     0.01   0.04  -0.16     0.03   0.05  -0.24
  31   1    -0.00   0.00  -0.01     0.02   0.03  -0.12     0.03   0.06  -0.29
  32   1     0.03   0.05  -0.25     0.01   0.03  -0.16     0.04   0.07  -0.33
  33   1     0.00  -0.00   0.00     0.02   0.02  -0.12     0.02   0.06  -0.29
  34   1     0.03   0.05  -0.26     0.02   0.03  -0.17     0.03   0.06  -0.25
  35   1    -0.01   0.00  -0.00     0.03  -0.01  -0.11    -0.02   0.01   0.12
  36   1     0.00  -0.00  -0.06    -0.01  -0.00   0.12     0.00   0.01   0.04
                     31                     32                     33
                        a                      a                      a 
 Frequencies --   758.2629               777.7415               812.0215
 Red. masses --     8.9768                 6.8188                 5.7442
 Frc consts  --     0.0000                 0.0000                 0.0000
 IR Inten    --    12.4390                14.9436                12.9816
 Raman Activ --     0.0000                 0.0000                 0.0000
 Depolar     --     0.0000                 0.0000                 0.0000
 Atom AN      X      Y      Z        X      Y      Z        X      Y      Z
   1   7    -0.01  -0.02   0.05    -0.00   0.00   0.00    -0.01   0.01  -0.04
   2   6    -0.20  -0.02   0.05    -0.05  -0.03  -0.02    -0.04  -0.06  -0.05
   3   6    -0.34  -0.05  -0.19    -0.07  -0.04  -0.02     0.01  -0.07   0.06
   4   6     0.03  -0.01  -0.01    -0.00   0.00   0.12    -0.00   0.01   0.16
   5   6     0.20   0.06   0.05     0.04   0.02  -0.10     0.01   0.02  -0.19
   6   6     0.24   0.24   0.05     0.05   0.05  -0.09     0.01  -0.02  -0.23
   7   6    -0.19   0.02  -0.03    -0.04  -0.00  -0.02    -0.02   0.00   0.35
   8   6    -0.34  -0.07  -0.10    -0.09  -0.02   0.30     0.07   0.03  -0.26
   9   6    -0.05   0.11   0.09     0.02   0.04  -0.40    -0.03  -0.04   0.19
  10   6     0.04   0.01  -0.07    -0.03  -0.08   0.37     0.01   0.02  -0.08
  11   6     0.02   0.00   0.05     0.03   0.05  -0.15     0.00  -0.00   0.04
  12   6     0.03   0.05   0.02     0.03   0.03  -0.03     0.00   0.01   0.02
  13   6    -0.05   0.00   0.02    -0.00   0.03  -0.13    -0.01  -0.00   0.02
  14   6     0.05  -0.08  -0.01     0.01  -0.02  -0.03     0.00  -0.01  -0.00
  15   6     0.03  -0.08   0.01     0.02   0.01  -0.11     0.00   0.00  -0.00
  16   6     0.21  -0.20   0.05     0.03  -0.04  -0.05    -0.01  -0.00  -0.22
  17   6     0.22  -0.04   0.04     0.04  -0.01  -0.04    -0.03  -0.00  -0.07
  18  17    -0.00   0.00  -0.00    -0.00   0.00  -0.00    -0.00   0.00  -0.00
  19   1     0.05  -0.05   0.05     0.01   0.00   0.01     0.02   0.02   0.00
  20   1     0.01   0.10  -0.05     0.00   0.05  -0.02    -0.00   0.10  -0.04
  21   1     0.07  -0.03   0.03     0.03  -0.02   0.02     0.06  -0.04   0.06
  22   1     0.19  -0.05  -0.05     0.10  -0.03  -0.03     0.14  -0.05  -0.04
  23   1    -0.07   0.19   0.19    -0.02   0.08   0.06    -0.01   0.12   0.04
  24   1    -0.07   0.05   0.02     0.02   0.03   0.03     0.06   0.05   0.07
  25   1    -0.11   0.04  -0.13    -0.02   0.02  -0.07     0.01   0.03  -0.08
  26   1     0.06   0.01  -0.06    -0.01   0.01   0.17    -0.04   0.02   0.37
  27   1     0.14   0.02  -0.06     0.00   0.01   0.22    -0.04   0.01   0.38
  28   1    -0.14  -0.00   0.05     0.02   0.02  -0.33     0.01  -0.01   0.14
  29   1     0.05   0.00  -0.04    -0.03  -0.02   0.24     0.01   0.02  -0.20
  30   1    -0.02  -0.00  -0.04    -0.02  -0.03   0.16     0.01   0.01  -0.05
  31   1     0.03   0.01  -0.04    -0.01  -0.04   0.20     0.01   0.01  -0.04
  32   1    -0.01   0.02  -0.05    -0.03  -0.05   0.25     0.00   0.01  -0.04
  33   1     0.05  -0.00  -0.03    -0.01  -0.04   0.16     0.00   0.00  -0.01
  34   1     0.01  -0.02  -0.02    -0.01  -0.02   0.08    -0.00  -0.00   0.02
  35   1     0.13  -0.02  -0.04     0.00  -0.00   0.13    -0.05   0.01   0.31
  36   1     0.06  -0.01  -0.03    -0.00   0.00   0.08    -0.04   0.01   0.19
                     34                     35                     36
                        a                      a                      a 
 Frequencies --   838.9065               851.8039               858.0303
 Red. masses --     7.2902                 8.1708                 3.8336
 Frc consts  --     0.0000                 0.0000                 0.0000
 IR Inten    --    19.6578                 9.7397                 2.4197
 Raman Activ --     0.0000                 0.0000                 0.0000
 Depolar     --     0.0000                 0.0000                 0.0000
 Atom AN      X      Y      Z        X      Y      Z        X      Y      Z
   1   7    -0.09   0.04  -0.04    -0.07   0.05  -0.07    -0.03   0.03  -0.02
   2   6    -0.14  -0.10   0.01    -0.05  -0.09  -0.01    -0.02  -0.05   0.01
   3   6     0.09  -0.16   0.11     0.12  -0.12   0.15     0.05  -0.06   0.06
   4   6     0.13  -0.01  -0.13     0.03   0.00  -0.11     0.02  -0.00  -0.06
   5   6    -0.09   0.22   0.05    -0.01  -0.03   0.09    -0.00  -0.01  -0.02
   6   6    -0.05   0.07   0.05    -0.04  -0.12   0.09    -0.01  -0.04  -0.03
   7   6     0.04  -0.01  -0.05     0.06  -0.00  -0.04     0.03  -0.00  -0.04
   8   6     0.23  -0.03   0.05     0.04   0.16   0.03     0.01   0.03   0.04
   9   6     0.29   0.02   0.01    -0.40  -0.14  -0.06    -0.08  -0.03  -0.04
  10   6     0.05  -0.01   0.01    -0.09   0.01  -0.03    -0.02   0.00  -0.00
  11   6    -0.09  -0.06  -0.06     0.13   0.11  -0.04    -0.01  -0.04   0.29
  12   6    -0.15  -0.19  -0.07     0.21   0.26   0.05     0.03   0.03   0.14
  13   6     0.16  -0.01   0.02    -0.21  -0.00  -0.00    -0.04   0.01  -0.05
  14   6    -0.13   0.20   0.04     0.14  -0.26   0.01     0.05  -0.02  -0.16
  15   6    -0.09   0.06   0.02     0.10  -0.04   0.06     0.05   0.05  -0.23
  16   6    -0.10  -0.05   0.04    -0.06   0.07  -0.05    -0.04   0.04   0.12
  17   6    -0.14  -0.14   0.02    -0.04   0.05  -0.00    -0.02   0.02   0.04
  18  17    -0.01   0.00  -0.00    -0.00   0.00  -0.00    -0.00   0.00  -0.00
  19   1     0.11  -0.05   0.07     0.07  -0.00   0.04     0.03  -0.01   0.02
  20   1     0.00   0.27  -0.18    -0.00   0.20  -0.12     0.00   0.08  -0.06
  21   1     0.15  -0.06   0.08     0.10  -0.04   0.06     0.04  -0.00   0.00
  22   1     0.23  -0.09  -0.02     0.15  -0.06  -0.01     0.06  -0.02  -0.01
  23   1    -0.03   0.26   0.04    -0.00   0.16  -0.01    -0.00   0.06  -0.01
  24   1     0.07   0.09   0.17     0.06   0.07   0.15     0.03   0.03   0.07
  25   1    -0.01   0.06  -0.14     0.01   0.04  -0.08     0.00   0.02  -0.05
  26   1    -0.05   0.04  -0.09     0.04  -0.00  -0.15     0.00   0.00   0.06
  27   1     0.02   0.01  -0.11     0.00  -0.03  -0.16    -0.01  -0.01   0.05
  28   1     0.06  -0.00   0.00     0.08   0.00   0.01     0.02   0.01  -0.04
  29   1     0.09  -0.00   0.03    -0.20   0.01  -0.00    -0.05  -0.00   0.03
  30   1    -0.01  -0.02   0.05     0.03   0.01   0.14     0.07   0.12  -0.50
  31   1    -0.10  -0.02   0.01     0.13   0.01   0.07     0.06   0.06  -0.26
  32   1     0.04   0.00  -0.00    -0.05  -0.00  -0.05    -0.02  -0.02   0.07
  33   1    -0.09   0.04  -0.03     0.11  -0.02  -0.09    -0.02  -0.08   0.34
  34   1    -0.01   0.02  -0.04     0.02   0.02  -0.09    -0.04  -0.08   0.41
  35   1     0.00  -0.01  -0.08    -0.09  -0.01   0.06    -0.01  -0.01  -0.22
  36   1    -0.09  -0.01  -0.03    -0.02   0.02   0.02     0.00   0.00  -0.09
                     37                     38                     39
                        a                      a                      a 
 Frequencies --   866.3407               880.6423               888.1003
 Red. masses --     3.5290                 9.4404                 3.8919
 Frc consts  --     0.0000                 0.0000                 0.0000
 IR Inten    --     1.5244                 2.9936                 0.1632
 Raman Activ --     0.0000                 0.0000                 0.0000
 Depolar     --     0.0000                 0.0000                 0.0000
 Atom AN      X      Y      Z        X      Y      Z        X      Y      Z
   1   7     0.02   0.02   0.02     0.04  -0.18   0.18     0.00  -0.08   0.04
   2   6     0.01  -0.00   0.01    -0.14   0.16   0.01    -0.04   0.04  -0.01
   3   6    -0.03  -0.03  -0.02    -0.06   0.19  -0.29     0.01   0.08  -0.06
   4   6    -0.01   0.00   0.04     0.12   0.01   0.07     0.02   0.00   0.01
   5   6    -0.02   0.03   0.15    -0.08   0.26  -0.02    -0.02   0.02  -0.01
   6   6    -0.01   0.03   0.18    -0.01   0.15  -0.02    -0.01   0.00  -0.00
   7   6    -0.01  -0.00   0.03     0.04   0.01  -0.01     0.01   0.00  -0.00
   8   6     0.00  -0.02   0.01     0.32   0.16   0.06     0.05   0.02  -0.01
   9   6     0.06   0.02  -0.01    -0.12  -0.16  -0.02    -0.03  -0.03   0.02
  10   6     0.02  -0.00   0.01    -0.04  -0.01  -0.01    -0.00   0.02  -0.08
  11   6    -0.03  -0.03   0.10     0.04   0.04  -0.02    -0.02  -0.04   0.23
  12   6    -0.03  -0.04   0.03     0.05   0.06   0.06     0.02   0.04  -0.10
  13   6     0.03   0.01  -0.02    -0.08  -0.01   0.05     0.01   0.06  -0.29
  14   6    -0.02   0.05  -0.05     0.02  -0.05  -0.02     0.01  -0.01  -0.02
  15   6    -0.01   0.02  -0.07     0.03   0.05  -0.05    -0.02  -0.05   0.26
  16   6     0.03  -0.03  -0.35    -0.01  -0.25  -0.01    -0.00  -0.02   0.00
  17   6     0.00  -0.02  -0.10    -0.13  -0.33  -0.01    -0.02  -0.05  -0.00
  18  17     0.00  -0.00  -0.00    -0.00   0.00  -0.00    -0.00   0.00  -0.00
  19   1    -0.01  -0.02  -0.01     0.04  -0.08   0.07     0.02   0.01   0.02
  20   1     0.00  -0.06   0.02     0.02  -0.02   0.02     0.00   0.05  -0.01
  21   1    -0.04   0.05  -0.06     0.02  -0.04   0.04     0.04  -0.05   0.07
  22   1    -0.02   0.02  -0.03    -0.03   0.01   0.06     0.01  -0.02   0.05
  23   1     0.00  -0.04   0.01    -0.05   0.04   0.06    -0.01   0.04  -0.00
  24   1     0.00   0.01   0.02    -0.05  -0.11  -0.26    -0.02  -0.05  -0.09
  25   1    -0.01   0.01  -0.03     0.04  -0.07   0.10     0.03  -0.03   0.06
  26   1     0.03   0.00  -0.34    -0.09   0.04  -0.02    -0.02   0.00   0.00
  27   1     0.04  -0.01  -0.31     0.04   0.02   0.04    -0.00   0.00   0.00
  28   1    -0.00   0.00  -0.05     0.19  -0.01  -0.00     0.02  -0.00   0.05
  29   1     0.01  -0.00   0.04    -0.10  -0.00  -0.02    -0.02  -0.00   0.02
  30   1     0.02   0.04  -0.18     0.04   0.02   0.06     0.06   0.09  -0.39
  31   1    -0.01   0.01  -0.08     0.05   0.02  -0.08    -0.02  -0.05   0.26
  32   1     0.00  -0.01   0.05    -0.01   0.01  -0.10    -0.06  -0.09   0.45
  33   1    -0.03  -0.02   0.12     0.01  -0.01  -0.00    -0.01  -0.02   0.10
  34   1    -0.02  -0.02   0.12    -0.01  -0.01   0.12     0.05   0.10  -0.48
  35   1    -0.05   0.03   0.64     0.01  -0.07   0.03     0.00  -0.01  -0.00
  36   1    -0.02   0.01   0.24    -0.10  -0.05  -0.01    -0.01  -0.01   0.00
                     40                     41                     42
                        a                      a                      a 
 Frequencies --   895.1936               903.8911               919.0066
 Red. masses --     4.6649                 3.3638                 4.1698
 Frc consts  --     0.0000                 0.0000                 0.0000
 IR Inten    --    12.5756                 0.6778                 0.1834
 Raman Activ --     0.0000                 0.0000                 0.0000
 Depolar     --     0.0000                 0.0000                 0.0000
 Atom AN      X      Y      Z        X      Y      Z        X      Y      Z
   1   7     0.03   0.23  -0.01     0.01   0.00  -0.01     0.00   0.00  -0.01
   2   6     0.06  -0.05   0.09     0.01  -0.01  -0.01     0.00  -0.00  -0.00
   3   6    -0.12  -0.29   0.02    -0.03   0.01   0.00    -0.01  -0.00   0.00
   4   6     0.04  -0.00   0.01     0.00   0.00   0.00     0.00   0.00   0.00
   5   6    -0.01   0.20  -0.02     0.03   0.01  -0.33    -0.00   0.01  -0.00
   6   6     0.07   0.12  -0.03    -0.02   0.03   0.32     0.00   0.01   0.00
   7   6     0.01  -0.01  -0.01    -0.00   0.00   0.02     0.00  -0.00  -0.00
   8   6     0.16   0.08   0.01     0.02   0.01   0.01     0.01   0.00   0.01
   9   6    -0.05  -0.07   0.00    -0.00  -0.01  -0.02    -0.00  -0.00  -0.01
  10   6    -0.02   0.00  -0.03    -0.00  -0.00   0.00    -0.00  -0.01   0.02
  11   6     0.02   0.01   0.02     0.00   0.00   0.00    -0.02  -0.04   0.19
  12   6     0.03   0.03  -0.01     0.00   0.00   0.00     0.03   0.07  -0.33
  13   6    -0.03   0.01  -0.05    -0.00  -0.00   0.00    -0.01  -0.01   0.06
  14   6     0.01  -0.02  -0.00     0.00  -0.00  -0.00    -0.03  -0.05   0.27
  15   6     0.01   0.01   0.06     0.00   0.00  -0.00     0.03   0.05  -0.22
  16   6    -0.04  -0.13   0.04     0.01  -0.03  -0.03     0.00  -0.01   0.00
  17   6    -0.08  -0.11   0.00    -0.01  -0.02   0.00    -0.00  -0.01  -0.00
  18  17     0.01  -0.00   0.01     0.00  -0.00  -0.00     0.00  -0.00   0.00
  19   1    -0.07  -0.16  -0.04    -0.01   0.02  -0.01    -0.01   0.01  -0.01
  20   1     0.01  -0.29   0.07    -0.00  -0.01   0.02    -0.00  -0.01   0.01
  21   1    -0.19   0.26  -0.35    -0.01  -0.00   0.01    -0.00  -0.00   0.00
  22   1    -0.08   0.11  -0.21    -0.00  -0.00   0.00    -0.00   0.00  -0.00
  23   1     0.00  -0.18   0.09     0.00  -0.01   0.01     0.00  -0.01   0.00
  24   1     0.05   0.14   0.24    -0.00  -0.00  -0.01    -0.00   0.00   0.00
  25   1    -0.12   0.10  -0.25    -0.01  -0.00   0.00    -0.00   0.00   0.00
  26   1    -0.02   0.05   0.03    -0.07   0.01   0.62    -0.00   0.00   0.00
  27   1     0.06   0.01   0.06     0.06  -0.01  -0.60     0.00   0.00  -0.00
  28   1     0.08  -0.00   0.03     0.01  -0.00   0.02     0.00   0.00  -0.01
  29   1    -0.05   0.00  -0.01    -0.01  -0.00   0.04    -0.01  -0.00   0.01
  30   1     0.03   0.02  -0.03     0.00   0.00  -0.00     0.04   0.06  -0.28
  31   1     0.01  -0.01   0.05     0.00   0.00  -0.01    -0.06  -0.11   0.54
  32   1    -0.02  -0.02   0.06    -0.00   0.00  -0.00     0.01   0.02  -0.12
  33   1     0.01  -0.00  -0.00    -0.00  -0.00   0.01     0.05   0.09  -0.43
  34   1     0.01   0.03  -0.11    -0.00   0.00   0.01    -0.04  -0.06   0.32
  35   1    -0.01  -0.05  -0.07     0.00  -0.01  -0.05     0.00  -0.00  -0.00
  36   1    -0.06  -0.00  -0.03    -0.02   0.00   0.12    -0.00  -0.00   0.01
                     43                     44                     45
                        a                      a                      a 
 Frequencies --   920.8343               926.6616               950.0954
 Red. masses --     7.0330                 3.1314                 3.3254
 Frc consts  --     0.0000                 0.0000                 0.0000
 IR Inten    --    39.5861                 0.2151                 3.9903
 Raman Activ --     0.0000                 0.0000                 0.0000
 Depolar     --     0.0000                 0.0000                 0.0000
 Atom AN      X      Y      Z        X      Y      Z        X      Y      Z
   1   7     0.02   0.12  -0.36    -0.00  -0.00   0.00    -0.02   0.02  -0.02
   2   6     0.20  -0.23  -0.03    -0.00   0.00   0.00     0.03  -0.02   0.02
   3   6    -0.25   0.09   0.27     0.00  -0.00  -0.00    -0.01  -0.00   0.01
   4   6    -0.04   0.01  -0.00     0.00   0.00  -0.00    -0.01  -0.01  -0.02
   5   6    -0.01   0.10   0.03     0.00  -0.00  -0.00     0.01  -0.01  -0.10
   6   6     0.08   0.17  -0.01    -0.00  -0.00   0.00     0.01   0.03   0.05
   7   6    -0.02   0.01  -0.02     0.00  -0.00  -0.00     0.00   0.00  -0.04
   8   6     0.11   0.05   0.02    -0.00  -0.00   0.01     0.01   0.00   0.04
   9   6    -0.02  -0.05  -0.00    -0.00  -0.00   0.02     0.00  -0.01   0.03
  10   6    -0.01  -0.00  -0.01     0.01   0.02  -0.08     0.00  -0.00  -0.00
  11   6     0.01   0.00   0.01    -0.00  -0.00   0.01    -0.00   0.01   0.00
  12   6     0.00   0.01   0.02    -0.02  -0.03   0.17    -0.00  -0.00  -0.01
  13   6    -0.02   0.00  -0.01     0.03   0.06  -0.28     0.00  -0.00   0.00
  14   6     0.00  -0.00  -0.01    -0.03  -0.05   0.26    -0.00   0.00   0.00
  15   6     0.01   0.02   0.00     0.01   0.01  -0.06    -0.00  -0.00   0.01
  16   6     0.06  -0.22   0.03    -0.00   0.00  -0.00     0.02  -0.04  -0.19
  17   6    -0.02  -0.14  -0.02     0.00   0.00   0.00    -0.04   0.01   0.38
  18  17     0.00   0.00  -0.01     0.00  -0.00   0.00     0.00   0.00   0.01
  19   1    -0.17   0.43  -0.22     0.00  -0.01   0.00    -0.00   0.02  -0.00
  20   1    -0.05   0.04   0.13     0.00  -0.00  -0.00    -0.00   0.01  -0.01
  21   1    -0.01  -0.12   0.23     0.00   0.00  -0.00     0.02  -0.01   0.01
  22   1     0.01  -0.09   0.08    -0.00   0.00  -0.00    -0.01  -0.01   0.02
  23   1     0.05  -0.09  -0.00    -0.00   0.00  -0.00     0.01  -0.01  -0.02
  24   1    -0.20  -0.01   0.09     0.00   0.00  -0.00    -0.01   0.00   0.01
  25   1    -0.08  -0.01   0.15     0.00   0.00  -0.00    -0.03   0.00   0.02
  26   1    -0.03   0.01  -0.07     0.00  -0.00   0.00    -0.02  -0.00   0.10
  27   1     0.04   0.03   0.02    -0.00  -0.00  -0.00    -0.00   0.01   0.01
  28   1     0.07  -0.01  -0.01     0.00   0.00  -0.03     0.02   0.01  -0.09
  29   1    -0.02  -0.00  -0.01     0.01   0.00  -0.04     0.00   0.01  -0.08
  30   1     0.02   0.01  -0.01    -0.01  -0.02   0.10     0.00   0.00  -0.00
  31   1     0.01   0.01  -0.03     0.04   0.08  -0.38    -0.00  -0.00   0.01
  32   1    -0.01  -0.00   0.01    -0.06  -0.11   0.54     0.00  -0.00  -0.00
  33   1    -0.00  -0.00   0.02     0.06   0.11  -0.52    -0.00   0.00  -0.00
  34   1    -0.00   0.00   0.01    -0.02  -0.04   0.20     0.00   0.00  -0.01
  35   1     0.04  -0.05  -0.02     0.00   0.00  -0.00    -0.03   0.01   0.33
  36   1    -0.04  -0.02   0.04     0.00   0.00  -0.00     0.05  -0.02  -0.80
                     46                     47                     48
                        a                      a                      a 
 Frequencies --   966.1551               989.4443              1018.7315
 Red. masses --     2.1156                10.4898                 8.3476
 Frc consts  --     0.0000                 0.0000                 0.0000
 IR Inten    --    16.7360                 0.8653                 2.7065
 Raman Activ --     0.0000                 0.0000                 0.0000
 Depolar     --     0.0000                 0.0000                 0.0000
 Atom AN      X      Y      Z        X      Y      Z        X      Y      Z
   1   7     0.00   0.00  -0.01    -0.00   0.00   0.00    -0.06  -0.04   0.08
   2   6     0.00  -0.00   0.00     0.00  -0.00  -0.00     0.11   0.06  -0.07
   3   6    -0.01   0.00   0.00     0.00   0.00   0.00     0.06  -0.04   0.04
   4   6     0.00  -0.00   0.01    -0.00   0.00  -0.00    -0.18   0.01   0.01
   5   6    -0.00   0.00  -0.01     0.01  -0.03   0.00     0.00  -0.33   0.01
   6   6     0.01   0.01  -0.02     0.01   0.01  -0.00     0.09   0.40  -0.00
   7   6    -0.01   0.00   0.01    -0.01   0.01  -0.00    -0.09   0.01  -0.01
   8   6     0.04   0.01  -0.21    -0.00   0.06  -0.00     0.12   0.04   0.02
   9   6     0.02   0.02  -0.22    -0.15  -0.07  -0.03     0.04  -0.05   0.00
  10   6     0.00  -0.00   0.02     0.09  -0.02  -0.00     0.02  -0.01  -0.00
  11   6     0.00  -0.03   0.00    -0.14   0.56   0.10     0.01  -0.03  -0.00
  12   6    -0.01  -0.00   0.01    -0.02  -0.13  -0.03    -0.01  -0.01  -0.00
  13   6    -0.02   0.01  -0.00     0.35  -0.03   0.03    -0.03   0.00  -0.00
  14   6     0.00  -0.00   0.00    -0.02   0.14   0.03    -0.02   0.02   0.00
  15   6     0.01   0.02  -0.02    -0.19  -0.50  -0.12     0.02   0.05   0.01
  16   6     0.01  -0.01  -0.01     0.00  -0.03   0.01     0.01  -0.41   0.02
  17   6    -0.00  -0.00   0.04     0.01   0.02  -0.00     0.04   0.34  -0.03
  18  17     0.00   0.00   0.00     0.00   0.00   0.00    -0.00  -0.00  -0.00
  19   1    -0.00   0.01  -0.00     0.00  -0.00   0.00     0.08  -0.11   0.08
  20   1    -0.00   0.00   0.00     0.00   0.00  -0.00     0.01   0.07  -0.10
  21   1     0.00  -0.00   0.01    -0.00   0.00  -0.00     0.05  -0.00  -0.02
  22   1    -0.00  -0.00   0.00     0.00   0.00  -0.00    -0.05   0.02   0.01
  23   1     0.00  -0.00   0.00     0.00  -0.00  -0.00     0.05  -0.00  -0.19
  24   1    -0.00  -0.00  -0.00    -0.00  -0.00   0.00     0.03   0.02   0.03
  25   1    -0.01   0.00   0.00     0.00  -0.00  -0.00    -0.02   0.01   0.00
  26   1    -0.00  -0.00   0.00    -0.00  -0.01  -0.00    -0.16  -0.17  -0.02
  27   1     0.00   0.00   0.04    -0.00   0.01   0.00    -0.12   0.20  -0.01
  28   1    -0.07  -0.04   0.65     0.02   0.00   0.03     0.08  -0.01   0.01
  29   1    -0.06  -0.06   0.66    -0.12   0.02   0.01    -0.02   0.01  -0.01
  30   1     0.01  -0.01   0.03     0.05   0.20   0.04     0.02  -0.00  -0.00
  31   1    -0.00   0.01  -0.03     0.10  -0.09  -0.01    -0.01   0.00   0.00
  32   1    -0.01   0.00   0.02     0.10  -0.02   0.01    -0.01  -0.00  -0.00
  33   1     0.00   0.00  -0.02     0.09   0.08   0.02    -0.01   0.00  -0.00
  34   1    -0.01   0.00   0.05     0.01  -0.18  -0.03    -0.00   0.02   0.00
  35   1    -0.02  -0.00   0.07    -0.03  -0.03  -0.01    -0.20  -0.21  -0.01
  36   1     0.01  -0.00  -0.11    -0.00   0.01   0.00    -0.12   0.18   0.02
                     49                     50                     51
                        a                      a                      a 
 Frequencies --  1034.5228              1055.6873              1076.4056
 Red. masses --     7.7412                 5.0320                 7.1619
 Frc consts  --     0.0000                 0.0000                 0.0000
 IR Inten    --    19.8263                 9.5715                 8.7360
 Raman Activ --     0.0000                 0.0000                 0.0000
 Depolar     --     0.0000                 0.0000                 0.0000
 Atom AN      X      Y      Z        X      Y      Z        X      Y      Z
   1   7     0.23  -0.33   0.06    -0.19  -0.08   0.08    -0.08   0.08  -0.20
   2   6    -0.18   0.41  -0.30     0.37   0.13  -0.08     0.01  -0.01   0.51
   3   6    -0.05  -0.24   0.20    -0.19  -0.12  -0.03     0.10  -0.22  -0.37
   4   6     0.02  -0.07  -0.07    -0.10  -0.03   0.09     0.04  -0.09   0.04
   5   6     0.01   0.08   0.01     0.00   0.21  -0.02     0.00   0.04  -0.00
   6   6     0.04   0.03   0.01     0.06  -0.04  -0.00     0.02   0.04  -0.01
   7   6     0.00  -0.03  -0.00     0.03  -0.02   0.01     0.01  -0.05   0.01
   8   6     0.01  -0.00   0.00    -0.03  -0.01  -0.00     0.01  -0.01   0.00
   9   6     0.00   0.00   0.00    -0.02   0.02  -0.00     0.01  -0.00   0.00
  10   6    -0.00  -0.00  -0.00    -0.02   0.00   0.00     0.01  -0.01  -0.00
  11   6    -0.00   0.00   0.00    -0.00   0.01   0.00    -0.01   0.00  -0.00
  12   6     0.00   0.00   0.00     0.01   0.01   0.00     0.00   0.01   0.00
  13   6     0.00  -0.00   0.00     0.01   0.00   0.00     0.01  -0.00   0.00
  14   6     0.00  -0.00  -0.00     0.01  -0.01  -0.00    -0.00  -0.01  -0.00
  15   6     0.00   0.00  -0.00    -0.01  -0.01  -0.00    -0.00   0.01   0.00
  16   6    -0.03   0.04   0.00     0.04   0.07  -0.00    -0.06   0.04  -0.01
  17   6    -0.01   0.08   0.02    -0.02  -0.13  -0.02     0.01   0.12  -0.02
  18  17     0.00   0.01  -0.00    -0.00  -0.00  -0.00     0.00   0.00  -0.00
  19   1    -0.08   0.18  -0.08     0.15  -0.15   0.15    -0.04   0.18  -0.06
  20   1     0.01  -0.15   0.22     0.00   0.21  -0.22    -0.03   0.12  -0.00
  21   1    -0.01  -0.16   0.21     0.13  -0.05   0.02     0.02  -0.06   0.11
  22   1    -0.05   0.09  -0.04    -0.20   0.05   0.12    -0.16  -0.03   0.31
  23   1    -0.06   0.04  -0.02     0.14  -0.13  -0.43    -0.00  -0.12   0.12
  24   1     0.33   0.07   0.07    -0.05   0.05   0.09     0.36  -0.00  -0.16
  25   1    -0.27   0.09  -0.04    -0.31   0.05   0.04    -0.21   0.03  -0.07
  26   1     0.03   0.03  -0.02     0.09   0.11   0.02    -0.05  -0.01  -0.00
  27   1     0.05  -0.02  -0.01     0.13  -0.08   0.03     0.04  -0.01   0.01
  28   1    -0.01   0.01  -0.01    -0.01   0.00   0.00    -0.02   0.01  -0.01
  29   1    -0.02   0.01  -0.00     0.01  -0.00   0.00    -0.04   0.02  -0.01
  30   1    -0.00   0.00  -0.01    -0.00   0.00   0.00    -0.02  -0.01  -0.00
  31   1     0.00   0.00  -0.01     0.00   0.00   0.00    -0.00   0.01  -0.00
  32   1     0.00  -0.00  -0.00     0.00   0.00   0.00     0.00  -0.01  -0.00
  33   1    -0.00  -0.00   0.01     0.01  -0.00   0.00    -0.01  -0.01  -0.00
  34   1    -0.00   0.00   0.01     0.00  -0.01  -0.00    -0.01   0.01   0.00
  35   1    -0.05  -0.01  -0.01     0.09   0.06   0.01    -0.12  -0.04  -0.01
  36   1    -0.03   0.05  -0.03     0.05  -0.08   0.04    -0.03   0.06   0.02
                     52                     53                     54
                        a                      a                      a 
 Frequencies --  1091.5997              1122.0271              1142.4917
 Red. masses --     6.6845                 4.1447                 3.2754
 Frc consts  --     0.0000                 0.0000                 0.0000
 IR Inten    --     0.0191                 0.3925                 1.0268
 Raman Activ --     0.0000                 0.0000                 0.0000
 Depolar     --     0.0000                 0.0000                 0.0000
 Atom AN      X      Y      Z        X      Y      Z        X      Y      Z
   1   7     0.00  -0.00   0.01    -0.00   0.00   0.01    -0.01  -0.03  -0.04
   2   6    -0.00  -0.00  -0.02     0.00  -0.01  -0.02     0.01   0.07   0.08
   3   6    -0.01   0.02   0.02    -0.02   0.02   0.01     0.03  -0.10  -0.05
   4   6     0.00  -0.00  -0.00     0.01  -0.02   0.00    -0.01   0.15  -0.00
   5   6    -0.02   0.01  -0.00    -0.02   0.04  -0.00     0.12  -0.13   0.01
   6   6     0.01   0.03  -0.00     0.02   0.04  -0.00    -0.12  -0.10  -0.01
   7   6     0.04  -0.01   0.01     0.03  -0.05   0.01    -0.04   0.17  -0.01
   8   6     0.03  -0.03  -0.00     0.02  -0.01  -0.00     0.00   0.06   0.01
   9   6     0.03  -0.02  -0.00     0.02  -0.05   0.00    -0.02  -0.00  -0.00
  10   6    -0.01  -0.01  -0.00     0.05  -0.18  -0.03    -0.03  -0.01  -0.00
  11   6    -0.16   0.04  -0.01    -0.18   0.15   0.01    -0.06   0.03   0.00
  12   6     0.07   0.35   0.08     0.09   0.11   0.03     0.02   0.06   0.01
  13   6     0.44  -0.03   0.04    -0.03  -0.18  -0.04     0.03  -0.03  -0.00
  14   6     0.04  -0.35  -0.07    -0.11   0.19   0.03    -0.02  -0.01  -0.00
  15   6    -0.16  -0.01  -0.02     0.22   0.15   0.06     0.03  -0.01   0.00
  16   6     0.00  -0.01   0.00    -0.00   0.03  -0.00     0.08  -0.16   0.01
  17   6    -0.00  -0.01   0.00     0.02  -0.00   0.00    -0.11  -0.07  -0.01
  18  17    -0.00   0.00   0.00    -0.00   0.00   0.00     0.00  -0.00  -0.00
  19   1     0.00  -0.01   0.00     0.00  -0.01   0.00    -0.00   0.03  -0.01
  20   1     0.00  -0.01  -0.00     0.00  -0.01  -0.00    -0.01   0.02   0.01
  21   1    -0.00   0.00  -0.01    -0.00   0.01  -0.01     0.01  -0.03   0.04
  22   1     0.01  -0.00  -0.01     0.01  -0.00  -0.01    -0.05   0.03   0.02
  23   1    -0.00   0.01  -0.00     0.00   0.00  -0.00     0.00  -0.03   0.00
  24   1    -0.02  -0.00   0.00    -0.02  -0.00   0.00     0.04   0.02   0.03
  25   1     0.01  -0.00   0.01     0.00  -0.00   0.01    -0.01   0.01  -0.06
  26   1    -0.03  -0.01  -0.00    -0.06  -0.02  -0.01     0.44   0.16   0.04
  27   1    -0.02   0.02  -0.00     0.01   0.01   0.00    -0.36   0.19  -0.04
  28   1    -0.07   0.03   0.01    -0.19   0.10   0.00     0.08  -0.03   0.02
  29   1    -0.05   0.02   0.00    -0.12   0.05  -0.00     0.17  -0.10   0.02
  30   1    -0.29  -0.10  -0.06    -0.38  -0.11  -0.07    -0.07  -0.01  -0.01
  31   1    -0.23   0.26   0.03     0.26  -0.12   0.01     0.01   0.01   0.00
  32   1     0.13  -0.01   0.01    -0.03  -0.42  -0.09     0.00  -0.09  -0.02
  33   1    -0.26  -0.24  -0.08    -0.26  -0.06  -0.04    -0.08  -0.04  -0.02
  34   1    -0.29   0.15  -0.00     0.34  -0.13   0.01     0.11  -0.07  -0.00
  35   1    -0.03  -0.02  -0.00    -0.06  -0.02  -0.01     0.38   0.13   0.03
  36   1     0.00  -0.01  -0.00     0.06  -0.04   0.00    -0.34   0.18  -0.03
                     55                     56                     57
                        a                      a                      a 
 Frequencies --  1181.6822              1184.0394              1193.6791
 Red. masses --     2.1508                 1.7007                 4.0154
 Frc consts  --     0.0000                 0.0000                 0.0000
 IR Inten    --     1.5863                 1.3342                 4.7734
 Raman Activ --     0.0000                 0.0000                 0.0000
 Depolar     --     0.0000                 0.0000                 0.0000
 Atom AN      X      Y      Z        X      Y      Z        X      Y      Z
   1   7     0.01   0.01   0.00    -0.01  -0.01  -0.00    -0.02  -0.17  -0.10
   2   6    -0.01  -0.01   0.00     0.01   0.01  -0.00     0.01   0.34   0.18
   3   6     0.03  -0.00   0.01    -0.02   0.00  -0.00     0.04  -0.15  -0.15
   4   6    -0.05  -0.01  -0.01     0.04   0.00   0.01     0.09   0.10   0.05
   5   6    -0.03  -0.06  -0.00     0.03   0.05   0.00    -0.02  -0.07  -0.01
   6   6     0.04  -0.04   0.01    -0.04   0.03  -0.00     0.02  -0.06   0.00
   7   6    -0.14   0.02  -0.02     0.09  -0.01   0.01     0.02   0.00   0.00
   8   6     0.03   0.08   0.01    -0.03  -0.06  -0.01    -0.00  -0.00   0.00
   9   6     0.02   0.06   0.01    -0.02  -0.05  -0.00    -0.01  -0.00  -0.00
  10   6    -0.09   0.06   0.01     0.11   0.03   0.01     0.01   0.00   0.00
  11   6    -0.09   0.03  -0.00    -0.05  -0.03  -0.01    -0.00  -0.00  -0.00
  12   6    -0.02   0.10   0.02    -0.01  -0.07  -0.02     0.00  -0.01  -0.00
  13   6     0.02  -0.07  -0.01    -0.01  -0.05  -0.01     0.00   0.00   0.00
  14   6    -0.01  -0.05  -0.01     0.05   0.08   0.02     0.01   0.01   0.00
  15   6     0.10  -0.05   0.00     0.03   0.05   0.01    -0.01   0.00   0.00
  16   6    -0.02   0.01  -0.00     0.01  -0.01   0.00    -0.03   0.02  -0.01
  17   6    -0.01   0.09  -0.00     0.01  -0.07   0.00     0.03  -0.03   0.01
  18  17     0.00  -0.00   0.00    -0.00   0.00  -0.00    -0.00   0.00  -0.00
  19   1    -0.00  -0.00  -0.00     0.00   0.00   0.00     0.02   0.13  -0.02
  20   1     0.00  -0.01   0.00    -0.00   0.01  -0.00    -0.03   0.08   0.04
  21   1    -0.00   0.00  -0.00     0.00  -0.00   0.00     0.05  -0.14   0.16
  22   1     0.01  -0.01   0.01    -0.01   0.01  -0.01    -0.15   0.18  -0.07
  23   1    -0.00   0.01  -0.01     0.00  -0.01   0.01     0.00  -0.10   0.01
  24   1     0.03  -0.00  -0.01    -0.02   0.00   0.01    -0.46   0.10   0.31
  25   1     0.01  -0.00  -0.00    -0.01  -0.00   0.00     0.33  -0.03  -0.30
  26   1    -0.16  -0.09  -0.02     0.16   0.09   0.01    -0.22  -0.13  -0.01
  27   1     0.29  -0.20   0.03    -0.23   0.15  -0.03     0.01  -0.02   0.00
  28   1     0.24  -0.10   0.02    -0.17   0.07  -0.01    -0.02   0.01  -0.00
  29   1     0.21  -0.09   0.01    -0.19   0.08  -0.02    -0.01   0.00   0.00
  30   1     0.19   0.11   0.04    -0.06  -0.03  -0.01    -0.02  -0.01  -0.01
  31   1    -0.35   0.26   0.01    -0.16   0.08  -0.00     0.02  -0.02  -0.00
  32   1    -0.02  -0.54  -0.11    -0.03  -0.47  -0.10     0.00   0.00   0.00
  33   1     0.10   0.03   0.02     0.47   0.25   0.10     0.03   0.01   0.01
  34   1     0.16  -0.10  -0.00    -0.33   0.24   0.01    -0.03   0.02   0.00
  35   1     0.14   0.08   0.01    -0.13  -0.07  -0.01     0.03   0.02   0.01
  36   1    -0.02   0.04  -0.00     0.04  -0.05   0.00     0.01  -0.01  -0.00
                     58                     59                     60
                        a                      a                      a 
 Frequencies --  1198.7694              1206.8373              1224.5315
 Red. masses --     5.1008                 3.9107                 4.8421
 Frc consts  --     0.0000                 0.0000                 0.0000
 IR Inten    --     2.1105                 1.1637                 1.6731
 Raman Activ --     0.0000                 0.0000                 0.0000
 Depolar     --     0.0000                 0.0000                 0.0000
 Atom AN      X      Y      Z        X      Y      Z        X      Y      Z
   1   7    -0.00  -0.02  -0.00    -0.00   0.04   0.02    -0.06  -0.01   0.00
   2   6     0.01   0.02  -0.00     0.01  -0.06  -0.07     0.06  -0.01  -0.06
   3   6    -0.02  -0.00  -0.01    -0.09   0.03   0.01    -0.14   0.04   0.01
   4   6     0.06  -0.01   0.01     0.19  -0.01   0.03     0.30  -0.03   0.04
   5   6    -0.01   0.13  -0.01    -0.03   0.02  -0.00     0.08  -0.04   0.01
   6   6     0.01   0.07  -0.00     0.05  -0.06   0.00    -0.07  -0.10  -0.01
   7   6     0.34  -0.09   0.04     0.26  -0.09   0.03    -0.05   0.01  -0.00
   8   6    -0.13  -0.12  -0.02    -0.04  -0.06  -0.01    -0.02  -0.03  -0.00
   9   6     0.12   0.11   0.02     0.03   0.05   0.00    -0.05  -0.09  -0.01
  10   6    -0.32   0.10  -0.01    -0.24   0.08  -0.01     0.29  -0.10   0.00
  11   6     0.01   0.03   0.01    -0.07  -0.01  -0.01     0.15   0.03   0.02
  12   6     0.03   0.08   0.02     0.08   0.01   0.01    -0.11  -0.05  -0.02
  13   6    -0.01   0.00  -0.00     0.04  -0.01   0.00    -0.08   0.01  -0.01
  14   6     0.01  -0.13  -0.03     0.07  -0.05  -0.00    -0.08   0.08   0.01
  15   6    -0.01  -0.09  -0.02    -0.09  -0.01  -0.01     0.11   0.01   0.02
  16   6    -0.01  -0.01  -0.00     0.08   0.08   0.00     0.02   0.12  -0.00
  17   6    -0.02  -0.09   0.00    -0.08   0.04  -0.01     0.06   0.02   0.00
  18  17    -0.00   0.00  -0.00     0.00  -0.00   0.00    -0.00  -0.00  -0.00
  19   1    -0.00   0.01  -0.00     0.00  -0.05   0.01     0.03  -0.03   0.03
  20   1    -0.00   0.01  -0.00     0.00  -0.01  -0.01    -0.01   0.04  -0.04
  21   1     0.01  -0.01   0.01    -0.01   0.03  -0.03     0.03  -0.01   0.00
  22   1    -0.01   0.01  -0.01     0.02  -0.04   0.02    -0.01   0.04  -0.10
  23   1    -0.00  -0.01   0.01     0.00   0.01   0.00    -0.00  -0.09   0.13
  24   1    -0.05   0.01   0.03    -0.02  -0.03  -0.04    -0.08  -0.02  -0.01
  25   1    -0.00   0.00  -0.01    -0.16   0.03   0.07    -0.16   0.02   0.07
  26   1     0.01   0.04   0.00    -0.42  -0.20  -0.04    -0.11  -0.08  -0.01
  27   1    -0.33   0.25  -0.04    -0.02   0.01  -0.00    -0.08   0.01  -0.01
  28   1    -0.13   0.02  -0.01    -0.16   0.06  -0.01    -0.14   0.06  -0.02
  29   1     0.10  -0.00   0.01     0.12  -0.05   0.02    -0.33   0.14  -0.02
  30   1     0.26   0.14   0.07    -0.14  -0.06  -0.03     0.26   0.11   0.06
  31   1    -0.17   0.14   0.01     0.17  -0.09   0.00    -0.29   0.15  -0.00
  32   1    -0.00  -0.03  -0.01     0.01   0.00   0.00    -0.03   0.01  -0.00
  33   1    -0.04  -0.06  -0.02     0.25   0.10   0.05    -0.28  -0.10  -0.05
  34   1     0.33  -0.24  -0.01    -0.04  -0.00  -0.00     0.03   0.01   0.00
  35   1    -0.28  -0.14  -0.01     0.18   0.10   0.01     0.01   0.04  -0.01
  36   1     0.10  -0.10   0.01    -0.41   0.27  -0.04    -0.27   0.20  -0.02
                     61                     62                     63
                        a                      a                      a 
 Frequencies --  1233.1999              1253.3905              1274.8597
 Red. masses --     2.7978                 4.7269                 5.2220
 Frc consts  --     0.0000                 0.0000                 0.0000
 IR Inten    --    29.9915                 0.9895                 2.0497
 Raman Activ --     0.0000                 0.0000                 0.0000
 Depolar     --     0.0000                 0.0000                 0.0000
 Atom AN      X      Y      Z        X      Y      Z        X      Y      Z
   1   7    -0.23  -0.11  -0.04    -0.01  -0.02  -0.01    -0.01  -0.00   0.01
   2   6     0.19   0.03  -0.01     0.01   0.01   0.06     0.02  -0.00  -0.03
   3   6    -0.04   0.11   0.12     0.11   0.00   0.06    -0.04  -0.02   0.02
   4   6     0.00  -0.03  -0.04    -0.37   0.04  -0.07     0.03   0.09  -0.01
   5   6    -0.01  -0.00   0.00    -0.08   0.04  -0.01     0.07   0.05   0.01
   6   6    -0.01   0.01   0.00     0.10   0.13   0.01     0.05  -0.03   0.01
   7   6    -0.01   0.01  -0.00     0.02  -0.18   0.01    -0.02  -0.14   0.00
   8   6     0.00   0.02   0.00     0.13  -0.08   0.01     0.06   0.21   0.02
   9   6     0.02   0.03   0.00     0.09  -0.10   0.00    -0.27  -0.17  -0.04
  10   6    -0.07   0.03   0.00    -0.13  -0.07  -0.03     0.27   0.19   0.07
  11   6    -0.05  -0.01  -0.01     0.06   0.04   0.01     0.17   0.02   0.02
  12   6     0.03   0.01   0.01     0.00   0.03   0.01    -0.00  -0.14  -0.03
  13   6     0.02  -0.00   0.00    -0.02  -0.01  -0.00    -0.03  -0.07  -0.02
  14   6     0.02  -0.02  -0.00     0.03  -0.02   0.00    -0.10   0.01  -0.01
  15   6    -0.03  -0.00  -0.00    -0.03   0.03   0.00    -0.02  -0.01  -0.00
  16   6    -0.02  -0.00   0.00     0.10  -0.06   0.01    -0.08  -0.03  -0.01
  17   6     0.01   0.02   0.00    -0.14   0.04  -0.01    -0.04   0.06  -0.01
  18  17    -0.00  -0.00  -0.00    -0.00  -0.00  -0.00    -0.00   0.00  -0.00
  19   1     0.09   0.01   0.08     0.00   0.02  -0.00     0.00   0.01   0.00
  20   1    -0.04   0.17  -0.12    -0.00   0.02  -0.00     0.00   0.00  -0.01
  21   1     0.14  -0.11   0.06     0.01  -0.02   0.01     0.01   0.00  -0.01
  22   1    -0.01   0.24  -0.49     0.01   0.05  -0.09    -0.00  -0.01   0.02
  23   1    -0.01  -0.35   0.46     0.01  -0.02   0.00    -0.00  -0.01   0.03
  24   1     0.21  -0.03  -0.13     0.19  -0.01  -0.06     0.07   0.00  -0.02
  25   1     0.02  -0.00   0.07     0.19  -0.03  -0.06    -0.05   0.01   0.01
  26   1     0.03   0.02  -0.00    -0.05   0.01  -0.01    -0.19  -0.09  -0.02
  27   1     0.04  -0.02  -0.00     0.06   0.02   0.00    -0.19   0.13  -0.02
  28   1     0.08  -0.04   0.01    -0.39   0.20  -0.03    -0.13   0.13  -0.00
  29   1     0.11  -0.05   0.01    -0.25   0.12  -0.01     0.23  -0.20   0.00
  30   1    -0.07  -0.03  -0.02     0.19   0.10   0.05    -0.28  -0.16  -0.07
  31   1     0.08  -0.04  -0.00    -0.05   0.04   0.00    -0.29   0.15  -0.00
  32   1     0.01  -0.01  -0.00    -0.00   0.03   0.01    -0.00   0.14   0.03
  33   1     0.06   0.02   0.01     0.01  -0.00  -0.00     0.09   0.06   0.02
  34   1    -0.00  -0.01   0.00     0.01  -0.00  -0.00     0.17  -0.12  -0.00
  35   1    -0.07  -0.03  -0.00     0.45   0.18   0.03     0.14   0.07   0.01
  36   1     0.03  -0.02   0.00     0.06  -0.06   0.00     0.23  -0.14   0.02
                     64                     65                     66
                        a                      a                      a 
 Frequencies --  1279.1423              1291.7287              1321.7048
 Red. masses --     6.4040                 6.8555                 4.9607
 Frc consts  --     0.0000                 0.0000                 0.0000
 IR Inten    --     7.1360                 0.6506                 0.7627
 Raman Activ --     0.0000                 0.0000                 0.0000
 Depolar     --     0.0000                 0.0000                 0.0000
 Atom AN      X      Y      Z        X      Y      Z        X      Y      Z
   1   7     0.02  -0.02  -0.02    -0.00  -0.00   0.01    -0.02   0.03   0.01
   2   6    -0.02   0.01   0.08     0.01  -0.01   0.02     0.04   0.02  -0.07
   3   6     0.09   0.02   0.02     0.00  -0.02   0.05    -0.07  -0.04   0.05
   4   6    -0.26  -0.08  -0.03    -0.15   0.13  -0.04     0.01   0.21  -0.02
   5   6    -0.19   0.02  -0.02    -0.06   0.11  -0.01    -0.05  -0.02  -0.00
   6   6     0.07   0.06   0.01     0.17  -0.06   0.02     0.12  -0.12   0.02
   7   6     0.34   0.17   0.03     0.34  -0.05   0.03     0.02   0.08  -0.00
   8   6    -0.19  -0.05  -0.02    -0.28   0.04  -0.03    -0.09  -0.20  -0.03
   9   6    -0.13   0.02  -0.01    -0.21   0.12  -0.01     0.09   0.20   0.02
  10   6     0.19   0.13   0.05     0.23  -0.10   0.01    -0.01  -0.07  -0.02
  11   6     0.12   0.02   0.02    -0.07  -0.05  -0.02     0.14   0.08   0.03
  12   6    -0.00  -0.10  -0.02    -0.06  -0.03  -0.01    -0.06   0.05   0.00
  13   6    -0.04  -0.05  -0.02    -0.03   0.14   0.03     0.00  -0.21  -0.04
  14   6    -0.07   0.01  -0.00    -0.01   0.11   0.02     0.07   0.02   0.01
  15   6     0.00  -0.01  -0.00     0.20  -0.10   0.00    -0.17   0.13   0.01
  16   6     0.19  -0.02   0.02     0.04  -0.07   0.01    -0.09  -0.08  -0.00
  17   6    -0.06  -0.14  -0.00    -0.12  -0.06  -0.01     0.03  -0.05   0.01
  18  17     0.00  -0.00   0.00     0.00   0.00   0.00    -0.00   0.00   0.00
  19   1    -0.01   0.01  -0.01    -0.00   0.01  -0.00     0.01  -0.02   0.01
  20   1    -0.00   0.01   0.01     0.00   0.00  -0.01     0.00  -0.01  -0.02
  21   1    -0.02  -0.01   0.01     0.01   0.00  -0.01     0.02   0.01  -0.00
  22   1     0.01   0.04  -0.07     0.00   0.00  -0.01    -0.02  -0.05   0.12
  23   1     0.01   0.02  -0.07     0.01  -0.00  -0.02    -0.00  -0.03   0.07
  24   1     0.03  -0.01  -0.02     0.16  -0.01  -0.06     0.13  -0.00  -0.04
  25   1     0.17  -0.02  -0.05     0.06  -0.00  -0.04     0.04   0.00  -0.05
  26   1     0.13   0.10   0.01    -0.23  -0.07  -0.02    -0.14  -0.07  -0.01
  27   1     0.28  -0.15   0.03    -0.14   0.12  -0.02    -0.12   0.07  -0.01
  28   1    -0.05  -0.01  -0.00     0.18  -0.13   0.01     0.37  -0.27   0.03
  29   1    -0.05   0.02  -0.00     0.13  -0.07   0.01    -0.36   0.26  -0.01
  30   1    -0.20  -0.11  -0.05     0.14   0.06   0.03    -0.17  -0.08  -0.04
  31   1    -0.21   0.10  -0.00     0.10  -0.09  -0.01    -0.08   0.06   0.00
  32   1    -0.01   0.09   0.02    -0.02  -0.16  -0.03     0.01   0.09   0.02
  33   1     0.04   0.03   0.01    -0.27  -0.10  -0.05     0.13   0.06   0.03
  34   1     0.14  -0.09  -0.00    -0.26   0.18   0.01     0.15  -0.09  -0.00
  35   1    -0.18  -0.13  -0.01     0.09   0.01   0.01     0.15   0.06   0.01
  36   1    -0.32   0.16  -0.03     0.05  -0.08   0.00     0.08  -0.07   0.01
                     67                     68                     69
                        a                      a                      a 
 Frequencies --  1327.1884              1340.4090              1344.0509
 Red. masses --     3.9030                 6.9704                 9.4814
[...]
   3   6     0.00   0.01  -0.00    -0.00  -0.18   0.04    -0.02   0.20  -0.09
   4   6    -0.00  -0.00  -0.00    -0.00  -0.01   0.00    -0.00   0.01  -0.00
   5   6     0.00  -0.00  -0.00    -0.00   0.00  -0.00     0.00  -0.00   0.00
   6   6     0.00   0.00   0.00     0.00  -0.00   0.00    -0.00   0.00   0.00
   7   6    -0.00   0.00   0.00    -0.00   0.00  -0.00     0.00  -0.00   0.00
   8   6    -0.00  -0.00   0.00     0.00  -0.00  -0.00    -0.00  -0.00  -0.00
   9   6     0.00   0.00  -0.00    -0.00   0.00   0.00     0.00   0.00  -0.00
  10   6    -0.00  -0.00   0.00    -0.00  -0.00  -0.00    -0.00  -0.00  -0.00
  11   6     0.00  -0.00   0.00     0.00  -0.00  -0.00     0.00  -0.00  -0.00
  12   6     0.00   0.00   0.00    -0.00  -0.00  -0.00    -0.00  -0.00  -0.00
  13   6     0.00  -0.00   0.00     0.00  -0.00   0.00    -0.00   0.00  -0.00
  14   6     0.00  -0.00  -0.00     0.00  -0.00  -0.00     0.00  -0.00  -0.00
  15   6    -0.00  -0.00  -0.00    -0.00  -0.00  -0.00    -0.00  -0.00  -0.00
  16   6    -0.00  -0.00  -0.00    -0.00  -0.00  -0.00     0.00   0.00   0.00
  17   6     0.01   0.01  -0.00     0.00   0.00   0.00    -0.00  -0.00  -0.00
  18  17    -0.00   0.01   0.01    -0.00  -0.00  -0.00     0.00  -0.00  -0.00
  19   1    -0.02  -0.01   0.01     0.00   0.00  -0.00     0.00  -0.00  -0.00
  20   1     0.04  -0.01   0.00     0.01   0.00   0.00     0.00   0.00   0.00
  21   1     0.17   0.85   0.40    -0.01  -0.05  -0.03    -0.01  -0.06  -0.03
  22   1    -0.04  -0.11  -0.06    -0.14  -0.51  -0.22    -0.06  -0.27  -0.12
  23   1    -0.01   0.01   0.00    -0.47   0.02  -0.05    -0.50   0.01  -0.06
  24   1     0.01  -0.02   0.02    -0.12   0.35  -0.29     0.17  -0.54   0.44
  25   1    -0.01  -0.01  -0.01     0.13   0.30   0.17    -0.09  -0.18  -0.12
  26   1    -0.00   0.00   0.00     0.00  -0.00   0.00    -0.01   0.01  -0.00
  27   1    -0.00  -0.00   0.00    -0.00  -0.00  -0.00    -0.00  -0.00   0.00
  28   1     0.00  -0.00   0.00     0.00  -0.00  -0.00     0.00   0.00   0.00
  29   1     0.00   0.00   0.00    -0.00  -0.00   0.00     0.00  -0.00  -0.00
  30   1    -0.00   0.00   0.00    -0.00   0.00  -0.00    -0.00   0.00   0.00
  31   1    -0.00  -0.00   0.00     0.00   0.00  -0.00     0.00   0.00   0.00
  32   1    -0.00   0.00  -0.00    -0.00  -0.00  -0.00     0.00  -0.00  -0.00
  33   1    -0.00   0.00  -0.00    -0.00   0.00   0.00    -0.00   0.00  -0.00
  34   1     0.00   0.00   0.00     0.00   0.00   0.00     0.00   0.00  -0.00
  35   1    -0.00   0.00  -0.00     0.00   0.00   0.00     0.00  -0.00  -0.00
  36   1    -0.02  -0.02  -0.00    -0.00  -0.00  -0.00     0.00   0.00  -0.00
                     88                     89                     90
                        a                      a                      a 
 Frequencies --  2967.6052              2973.6212              3086.7526
 Red. masses --     1.5081                 1.6081                 1.7505
 Frc consts  --     0.0000                 0.0000                 0.0000
 IR Inten    --    18.4029                 2.7202                 0.3911
 Raman Activ --     0.0000                 0.0000                 0.0000
 Depolar     --     0.0000                 0.0000                 0.0000
 Atom AN      X      Y      Z        X      Y      Z        X      Y      Z
   1   7     0.01   0.02   0.01     0.00   0.01   0.00     0.00  -0.00  -0.00
   2   6    -0.13   0.14   0.04    -0.01   0.09   0.04     0.00  -0.00  -0.00
   3   6    -0.04   0.00  -0.07     0.09   0.12   0.15     0.00  -0.00   0.00
   4   6    -0.00   0.00  -0.00     0.01   0.00   0.00     0.00   0.00   0.00
   5   6     0.00  -0.00   0.00    -0.00  -0.00   0.00    -0.00   0.00  -0.00
   6   6     0.00   0.00   0.00    -0.00  -0.00  -0.00     0.00   0.00   0.00
   7   6     0.00   0.00   0.00    -0.00  -0.00  -0.00    -0.00  -0.00  -0.00
   8   6    -0.00  -0.00  -0.00     0.00  -0.00   0.00    -0.00  -0.00  -0.00
   9   6     0.00  -0.00   0.00    -0.00   0.00  -0.00    -0.00   0.00   0.00
  10   6    -0.00  -0.00  -0.00     0.00  -0.00  -0.00    -0.00   0.00  -0.00
  11   6    -0.00   0.00  -0.00     0.00  -0.00   0.00    -0.01   0.02   0.00
  12   6    -0.00  -0.00  -0.00    -0.00  -0.00  -0.00    -0.08  -0.12  -0.03
  13   6    -0.00   0.00  -0.00    -0.00   0.00   0.00     0.18  -0.01   0.02
  14   6    -0.00   0.00   0.00     0.00  -0.00  -0.00    -0.05   0.09   0.01
  15   6     0.00   0.00   0.00    -0.00  -0.00  -0.00    -0.01  -0.02  -0.01
  16   6     0.00  -0.00   0.00     0.00   0.00  -0.00    -0.00   0.00  -0.00
  17   6    -0.00  -0.00   0.00    -0.00  -0.00  -0.00     0.00   0.00   0.00
  18  17     0.00  -0.00  -0.00     0.00  -0.00  -0.00    -0.00  -0.00   0.00
  19   1     0.00   0.00  -0.00    -0.00   0.00   0.00    -0.00   0.00   0.00
  20   1    -0.03   0.00  -0.01    -0.01   0.00  -0.00    -0.00  -0.00  -0.00
  21   1    -0.01  -0.06  -0.03    -0.01  -0.04  -0.02     0.00   0.00   0.00
  22   1    -0.19  -0.53  -0.23    -0.10  -0.32  -0.14     0.00   0.00   0.00
  23   1     0.65   0.02   0.09     0.13   0.01   0.02    -0.00  -0.00   0.00
  24   1     0.06  -0.22   0.17    -0.07   0.28  -0.19    -0.00   0.00  -0.00
  25   1     0.08   0.22   0.10    -0.27  -0.69  -0.35    -0.00  -0.00  -0.00
  26   1    -0.00   0.01  -0.00    -0.00   0.00   0.00     0.00  -0.00   0.00
  27   1    -0.00  -0.00  -0.00     0.00   0.00   0.00    -0.00  -0.00  -0.00
  28   1     0.00   0.00   0.00     0.00   0.00   0.00     0.01   0.01   0.00
  29   1     0.00   0.00  -0.00    -0.00  -0.00  -0.00    -0.00  -0.00  -0.00
  30   1     0.00  -0.00   0.00    -0.00   0.00   0.00     0.04  -0.08  -0.01
  31   1     0.00   0.00   0.00     0.00   0.00   0.00     0.30   0.45   0.13
  32   1     0.00   0.00  -0.00     0.00  -0.00   0.00    -0.67   0.04  -0.07
  33   1     0.00  -0.00  -0.00    -0.00   0.00  -0.00     0.18  -0.34  -0.05
  34   1    -0.00  -0.00  -0.00     0.00   0.00  -0.00     0.05   0.08   0.02
  35   1    -0.00   0.00  -0.00     0.00  -0.00   0.00     0.00  -0.00   0.00
  36   1     0.00   0.00  -0.00     0.01   0.01   0.00    -0.00  -0.00  -0.00
                     91                     92                     93
                        a                      a                      a 
 Frequencies --  3093.0407              3095.3348              3097.1683
 Red. masses --     1.7995                 1.8599                 1.7727
 Frc consts  --     0.0000                 0.0000                 0.0000
 IR Inten    --    23.4987               152.6046                30.2808
 Raman Activ --     0.0000                 0.0000                 0.0000
 Depolar     --     0.0000                 0.0000                 0.0000
 Atom AN      X      Y      Z        X      Y      Z        X      Y      Z
   1   7     0.00   0.00  -0.00    -0.00  -0.01  -0.00    -0.00  -0.00  -0.00
   2   6    -0.00  -0.00  -0.00     0.00  -0.00  -0.00     0.00   0.00   0.00
   3   6     0.00  -0.00   0.00    -0.00  -0.00  -0.00    -0.00   0.00  -0.00
   4   6     0.00  -0.00   0.00    -0.01   0.00  -0.00    -0.01   0.01  -0.00
   5   6     0.00  -0.00   0.00    -0.01   0.02  -0.00    -0.09   0.18  -0.01
   6   6     0.00   0.00   0.00     0.01   0.01   0.00    -0.10  -0.14  -0.01
   7   6     0.00  -0.00   0.00     0.00   0.00  -0.00    -0.01  -0.00  -0.00
   8   6    -0.00  -0.01  -0.00     0.00   0.00   0.00     0.01   0.01   0.00
   9   6    -0.00  -0.01  -0.00    -0.00  -0.01  -0.00     0.00   0.00   0.00
  10   6     0.00   0.00   0.00     0.00  -0.00  -0.00    -0.00   0.00   0.00
  11   6    -0.02   0.04   0.01     0.00  -0.00  -0.00     0.00  -0.00  -0.00
  12   6    -0.09  -0.14  -0.04     0.00   0.00   0.00    -0.00  -0.00  -0.00
  13   6    -0.03  -0.00  -0.00     0.01  -0.00   0.00    -0.01   0.00  -0.00
  14   6     0.09  -0.16  -0.02     0.00  -0.00  -0.00    -0.00   0.00   0.00
  15   6     0.05   0.07   0.02     0.00   0.00   0.00    -0.00  -0.00  -0.00
  16   6    -0.00   0.00  -0.00    -0.01   0.03  -0.00     0.00  -0.00   0.00
  17   6     0.00   0.00   0.00    -0.15  -0.23  -0.00     0.00   0.00   0.00
  18  17    -0.00   0.00  -0.00     0.00  -0.00  -0.00     0.00   0.00  -0.00
  19   1    -0.00   0.00   0.00     0.00   0.00  -0.00     0.00   0.00  -0.00
  20   1    -0.00  -0.00  -0.00     0.01  -0.00   0.00     0.00   0.00   0.00
  21   1     0.00  -0.00  -0.00     0.01   0.02   0.01    -0.00   0.00   0.00
  22   1     0.00   0.00   0.00     0.00   0.00   0.00    -0.00  -0.01  -0.00
  23   1     0.00   0.00   0.00    -0.00   0.00  -0.00     0.00  -0.00   0.00
  24   1    -0.00   0.00  -0.00    -0.00   0.00  -0.00     0.00  -0.01   0.01
  25   1     0.00   0.00   0.00     0.01   0.01   0.01    -0.00  -0.00  -0.00
  26   1    -0.00   0.00  -0.00     0.02  -0.05   0.00     0.32  -0.65   0.05
  27   1    -0.01  -0.01  -0.00    -0.02  -0.03  -0.00     0.35   0.52   0.02
  28   1     0.02   0.03   0.00    -0.01  -0.02  -0.00    -0.02  -0.04  -0.00
  29   1     0.01   0.02   0.00     0.02   0.03   0.00    -0.01  -0.01  -0.00
  30   1     0.07  -0.14  -0.02    -0.00   0.00   0.00    -0.00   0.00   0.00
  31   1     0.32   0.49   0.14    -0.00  -0.00  -0.00     0.01   0.01   0.00
  32   1     0.10  -0.00   0.01    -0.02   0.00  -0.00     0.02  -0.00   0.00
  33   1    -0.30   0.57   0.08    -0.01   0.01   0.00     0.00  -0.00  -0.00
  34   1    -0.17  -0.26  -0.07    -0.00  -0.00  -0.00     0.00   0.00   0.00
  35   1     0.00  -0.00   0.00     0.06  -0.12   0.01    -0.01   0.01  -0.00
  36   1    -0.00  -0.01  -0.00     0.52   0.79   0.01    -0.01  -0.01  -0.00
                     94                     95                     96
                        a                      a                      a 
 Frequencies --  3101.5668              3109.5252              3110.1670
 Red. masses --     1.8555                 1.8832                 1.8815
 Frc consts  --     0.0000                 0.0000                 0.0000
 IR Inten    --    84.5322               103.8674                 5.8291
 Raman Activ --     0.0000                 0.0000                 0.0000
 Depolar     --     0.0000                 0.0000                 0.0000
 Atom AN      X      Y      Z        X      Y      Z        X      Y      Z
   1   7     0.00  -0.00  -0.00    -0.00   0.00   0.00     0.00  -0.00  -0.00
   2   6     0.00  -0.00  -0.00     0.00   0.00   0.00     0.00  -0.00  -0.00
   3   6     0.00  -0.00   0.00     0.00   0.00  -0.00    -0.00  -0.00   0.00
   4   6    -0.00  -0.00  -0.00    -0.00  -0.00  -0.00     0.01   0.00   0.00
   5   6    -0.00   0.00  -0.00    -0.05   0.10  -0.01     0.06  -0.13   0.01
   6   6     0.01   0.01   0.00     0.07   0.11   0.00    -0.09  -0.14  -0.01
   7   6     0.00  -0.00   0.00     0.00  -0.00   0.00    -0.01   0.00  -0.00
   8   6    -0.00  -0.01  -0.00    -0.02  -0.03  -0.00     0.01   0.02   0.00
   9   6     0.00   0.01   0.00    -0.01  -0.02  -0.00    -0.01  -0.02  -0.00
  10   6    -0.01   0.00  -0.00     0.00  -0.00   0.00     0.00  -0.00   0.00
  11   6    -0.02   0.04   0.01    -0.02   0.03   0.00    -0.01   0.02   0.00
  12   6    -0.07  -0.10  -0.03    -0.01  -0.01  -0.00    -0.01  -0.02  -0.01
  13   6    -0.18   0.01  -0.02    -0.06   0.00  -0.01    -0.06   0.00  -0.01
  14   6    -0.04   0.07   0.01    -0.05   0.11   0.02    -0.04   0.09   0.01
  15   6    -0.07  -0.11  -0.03     0.09   0.14   0.04     0.07   0.11   0.03
  16   6     0.00  -0.00   0.00    -0.00   0.00  -0.00    -0.00   0.00  -0.00
  17   6    -0.00  -0.00  -0.00     0.01   0.01   0.00    -0.01  -0.01  -0.00
  18  17    -0.00  -0.00  -0.00     0.00   0.00  -0.00    -0.00  -0.00   0.00
  19   1    -0.00   0.00   0.00     0.00  -0.00  -0.00    -0.00   0.00   0.00
  20   1    -0.00  -0.00  -0.00     0.00   0.00   0.00    -0.00  -0.00  -0.00
  21   1     0.00   0.00   0.00    -0.00  -0.00  -0.00     0.00   0.00   0.00
  22   1     0.00   0.00   0.00    -0.00  -0.00  -0.00     0.00   0.00   0.00
  23   1    -0.00  -0.00   0.00    -0.00  -0.00  -0.00    -0.00   0.00  -0.00
  24   1    -0.00   0.00  -0.00     0.00  -0.00   0.00    -0.00   0.00  -0.00
  25   1     0.00   0.00   0.00    -0.00  -0.00  -0.00     0.00   0.00   0.00
  26   1     0.00  -0.00   0.00     0.17  -0.35   0.02    -0.21   0.44  -0.03
  27   1    -0.02  -0.03  -0.00    -0.24  -0.37  -0.01     0.31   0.47   0.02
  28   1     0.02   0.03   0.00     0.05   0.10   0.01    -0.03  -0.07  -0.01
  29   1    -0.02  -0.04  -0.00     0.03   0.06   0.01     0.03   0.06   0.01
  30   1     0.08  -0.16  -0.02     0.05  -0.10  -0.02     0.03  -0.06  -0.01
  31   1     0.23   0.35   0.10     0.02   0.03   0.01     0.04   0.06   0.02
  32   1     0.61  -0.04   0.06     0.20  -0.01   0.02     0.18  -0.01   0.02
  33   1     0.13  -0.25  -0.04     0.18  -0.35  -0.05     0.15  -0.28  -0.04
  34   1     0.26   0.41   0.11    -0.31  -0.48  -0.13    -0.24  -0.37  -0.10
  35   1     0.00   0.00  -0.00     0.01  -0.02   0.00     0.01  -0.02   0.00
  36   1     0.01   0.02   0.00    -0.02  -0.03  -0.00     0.03   0.04   0.00
                     97                     98                     99
                        a                      a                      a 
 Frequencies --  3116.9021              3120.6424              3125.3615
 Red. masses --     1.8358                 1.8386                 1.8029
 Frc consts  --     0.0000                 0.0000                 0.0000
 IR Inten    --     5.9246                14.2721                10.1653
 Raman Activ --     0.0000                 0.0000                 0.0000
 Depolar     --     0.0000                 0.0000                 0.0000
 Atom AN      X      Y      Z        X      Y      Z        X      Y      Z
   1   7     0.00   0.00   0.00     0.00   0.00  -0.00    -0.00   0.00   0.00
   2   6    -0.00   0.00   0.00    -0.00   0.00   0.00     0.00   0.00   0.00
   3   6     0.00   0.00   0.00    -0.00   0.00  -0.00     0.00   0.00   0.00
   4   6    -0.00  -0.00  -0.00     0.00  -0.00   0.00    -0.00   0.00  -0.00
   5   6    -0.01   0.01  -0.00    -0.00   0.00  -0.00    -0.00   0.01  -0.00
   6   6     0.01   0.02   0.00     0.00  -0.00   0.00     0.01   0.02   0.00
   7   6     0.00   0.01   0.00    -0.01   0.00  -0.00     0.01   0.00   0.00
   8   6     0.06   0.13   0.01     0.01   0.03   0.00     0.06   0.13   0.01
   9   6    -0.03  -0.07  -0.01    -0.06  -0.12  -0.02    -0.03  -0.08  -0.01
  10   6     0.01  -0.00   0.00    -0.01  -0.00  -0.00    -0.00  -0.00  -0.00
  11   6     0.09  -0.17  -0.03    -0.05   0.10   0.02    -0.05   0.11   0.02
  12   6    -0.04  -0.06  -0.02     0.02   0.03   0.01     0.01   0.02   0.01
  13   6    -0.03   0.00  -0.00     0.01  -0.00   0.00     0.01  -0.00   0.00
  14   6    -0.01   0.01   0.00     0.01  -0.01  -0.00     0.00  -0.01  -0.00
  15   6     0.00   0.01   0.00    -0.01  -0.02  -0.01    -0.00  -0.01  -0.00
  16   6    -0.01   0.03  -0.00    -0.08   0.18  -0.02     0.07  -0.15   0.01
  17   6     0.01   0.01   0.00     0.02   0.03   0.00    -0.01  -0.02  -0.00
  18  17    -0.00   0.00  -0.00    -0.00  -0.00   0.00     0.00   0.00  -0.00
  19   1     0.00  -0.00  -0.00    -0.00  -0.00   0.00     0.00  -0.00  -0.00
  20   1    -0.00   0.00  -0.00     0.00   0.00   0.00    -0.00  -0.00   0.00
  21   1    -0.00  -0.00  -0.00    -0.00  -0.00  -0.00    -0.00  -0.00  -0.00
  22   1    -0.00  -0.00  -0.00    -0.00  -0.00  -0.00    -0.00  -0.00  -0.00
  23   1     0.00  -0.00   0.00     0.00  -0.00   0.00    -0.00   0.00  -0.00
  24   1     0.00  -0.00   0.00     0.00  -0.00   0.00     0.00   0.00  -0.00
  25   1    -0.00  -0.00  -0.00    -0.00  -0.00  -0.00    -0.00  -0.00  -0.00
  26   1     0.02  -0.04   0.00     0.01  -0.01   0.00     0.01  -0.02   0.00
  27   1    -0.05  -0.08  -0.00     0.00   0.00   0.00    -0.04  -0.06  -0.00
  28   1    -0.25  -0.47  -0.05    -0.06  -0.13  -0.01    -0.24  -0.46  -0.05
  29   1     0.13   0.26   0.04     0.23   0.44   0.06     0.15   0.29   0.04
  30   1    -0.31   0.61   0.10     0.18  -0.34  -0.05     0.19  -0.37  -0.06
  31   1     0.11   0.17   0.05    -0.05  -0.08  -0.02    -0.05  -0.07  -0.02
  32   1     0.09  -0.01   0.01    -0.05   0.00  -0.00    -0.03   0.00  -0.00
  33   1     0.02  -0.04  -0.01    -0.02   0.04   0.01    -0.01   0.02   0.00
  34   1    -0.01  -0.02  -0.01     0.05   0.08   0.02     0.02   0.03   0.01
  35   1     0.04  -0.10   0.01     0.29  -0.62   0.05    -0.25   0.53  -0.05
  36   1    -0.02  -0.03  -0.00    -0.06  -0.10  -0.00     0.03   0.05   0.00
                    100                    101                    102
                        a                      a                      a 
 Frequencies --  3135.4782              3183.9307              3204.2480
 Red. masses --     1.8189                 1.8965                 1.6299
 Frc consts  --     0.0000                 0.0000                 0.0000
 IR Inten    --    71.9719                42.9180                43.4693
 Raman Activ --     0.0000                 0.0000                 0.0000
 Depolar     --     0.0000                 0.0000                 0.0000
 Atom AN      X      Y      Z        X      Y      Z        X      Y      Z
   1   7     0.00   0.00   0.00     0.18  -0.00  -0.19    -0.20  -0.01  -0.09
   2   6     0.00  -0.00  -0.00     0.00   0.00  -0.00    -0.01   0.00  -0.00
   3   6     0.00  -0.00   0.00    -0.00   0.00  -0.00    -0.00   0.00   0.00
   4   6     0.00   0.00  -0.00    -0.00   0.00   0.00     0.00  -0.00  -0.00
   5   6     0.00  -0.01   0.00    -0.00   0.00  -0.00     0.00  -0.00   0.00
   6   6    -0.01  -0.02  -0.00     0.00   0.00   0.00     0.00  -0.00  -0.00
   7   6    -0.00  -0.01  -0.00     0.00  -0.00  -0.00    -0.00   0.00  -0.00
   8   6    -0.08  -0.14  -0.02     0.00   0.00   0.00     0.00  -0.00   0.00
   9   6    -0.09  -0.17  -0.02    -0.00  -0.00  -0.00    -0.00  -0.00  -0.00
  10   6    -0.00  -0.01  -0.00     0.00   0.00   0.00    -0.00  -0.00   0.00
  11   6     0.02  -0.05  -0.01    -0.00   0.00   0.00     0.00  -0.00   0.00
  12   6    -0.00  -0.01  -0.00     0.00   0.00   0.00    -0.00  -0.00  -0.00
  13   6    -0.00   0.00   0.00     0.00  -0.00   0.00    -0.00   0.00  -0.00
  14   6     0.00  -0.00  -0.00     0.00  -0.00  -0.00    -0.00   0.00   0.00
  15   6    -0.01  -0.02  -0.00    -0.00  -0.00  -0.00     0.00   0.00   0.00
  16   6     0.03  -0.07   0.01     0.00  -0.00   0.00    -0.00  -0.00  -0.00
  17   6    -0.01  -0.01  -0.00    -0.00  -0.00   0.00     0.00   0.00  -0.00
  18  17    -0.00  -0.00   0.00     0.00   0.00   0.00    -0.00   0.00   0.00
  19   1    -0.00   0.00   0.00    -0.50   0.05   0.79    -0.14   0.01   0.18
  20   1    -0.00  -0.00  -0.00    -0.20  -0.02  -0.07     0.92   0.06   0.21
  21   1     0.00  -0.00  -0.00     0.01  -0.02  -0.02    -0.03  -0.06  -0.04
  22   1     0.00   0.00   0.00    -0.00  -0.00   0.00    -0.00  -0.01  -0.00
  23   1    -0.00   0.00  -0.00    -0.01  -0.00   0.00     0.02   0.00   0.00
  24   1    -0.00   0.00  -0.00     0.00  -0.00   0.00     0.00  -0.00   0.00
  25   1     0.00   0.00   0.00     0.00   0.00   0.00    -0.00  -0.00  -0.00
  26   1    -0.01   0.02  -0.00     0.00  -0.00   0.00    -0.00   0.00  -0.00
  27   1     0.04   0.06   0.00    -0.00  -0.00  -0.00    -0.00   0.00   0.00
  28   1     0.27   0.50   0.06    -0.00  -0.00  -0.00    -0.00  -0.00   0.00
  29   1     0.32   0.60   0.09     0.00   0.00  -0.00     0.00   0.00   0.00
  30   1    -0.09   0.17   0.03     0.00  -0.00  -0.00    -0.00   0.00   0.00
  31   1     0.01   0.02   0.01    -0.00  -0.00  -0.00     0.00   0.00   0.00
  32   1     0.00  -0.00   0.00    -0.00   0.00  -0.00     0.00  -0.00   0.00
  33   1    -0.01   0.01   0.00    -0.00   0.00   0.00     0.00  -0.00   0.00
  34   1     0.04   0.06   0.02     0.00   0.00   0.00     0.00   0.00   0.00
  35   1    -0.12   0.25  -0.02    -0.00   0.00  -0.00    -0.00   0.00  -0.00
  36   1     0.02   0.02   0.00     0.00   0.00  -0.00    -0.00  -0.00  -0.00
