 Entering Gaussian System
 *********************************************
 Gaussian 98:
 frequency output generated by the xtb code
 *********************************************
                         Standard orientation:
 --------------------------------------------------------------------
  Center     Atomic     Atomic              Coordinates (Angstroms)
  Number     Number      Type              X           Y           Z
 --------------------------------------------------------------------
    1          7             0       -2.002116   -1.391159    0.466339
    2          6             0       -0.818472   -0.537165    0.159504
    3          6             0        0.429138   -0.977131    0.917870
    4          6             0        1.625642   -0.120397    0.618925
    5          6             0        2.461436   -0.420804   -0.447198
    6          6             0        3.543600    0.384320   -0.742853
    7          6             0        3.800248    1.504890    0.021274
    8          6             0        2.971194    1.820126    1.078927
    9          6             0        1.889330    1.013973    1.373212
   10         17             0       -4.819027   -0.271547   -1.330973
   11          1             0       -2.843576   -1.084125   -0.053838
   12          1             0       -2.226252   -1.361516    1.470210
   13          1             0       -1.821142   -2.373450    0.218721
   14          1             0       -1.043236    0.509266    0.396953
   15          1             0       -0.618086   -0.552158   -0.918237
   16          1             0        0.659242   -2.021042    0.679671
   17          1             0        0.231722   -0.965218    1.995071
   18          1             0        2.255080   -1.291484   -1.046966
   19          1             0        4.187186    0.138465   -1.572295
   20          1             0        4.644921    2.134196   -0.209300
   21          1             0        3.167140    2.697267    1.674634
   22          1             0        1.236814    1.262567    2.193474
 --------------------------------------------------------------------
     1 basis functions        1 primitive gaussians
     1 alpha electrons        1 beta electrons

 Harmonic frequencies (cm**-1), IR intensities (km*mol⁻¹),
 Raman scattering activities (A**4/amu), Raman depolarization ratios,
 reduced masses (AMU), force constants (mDyne/A) and normal coordinates:
                      1                      2                      3
                        a                      a                      a 
 Frequencies --  -124.3868               -44.1998                67.9493
 Red. masses --    25.9032                10.2606                17.6719
 Frc consts  --     0.0000                 0.0000                 0.0000
 IR Inten    --   126.1791                 0.6457                 8.5749
 Raman Activ --     0.0000                 0.0000                 0.0000
 Depolar     --     0.0000                 0.0000                 0.0000
 Atom AN      X      Y      Z        X      Y      Z        X      Y      Z
   1   7    -0.25   0.23  -0.27    -0.01   0.02   0.03     0.05  -0.12   0.11
   2   6    -0.12   0.11  -0.13    -0.01   0.04   0.05     0.11  -0.17   0.17
   3   6    -0.16   0.04  -0.08     0.08  -0.19  -0.24     0.08  -0.21   0.19
   4   6    -0.11  -0.00  -0.03     0.04  -0.10  -0.12     0.02  -0.15   0.13
   5   6    -0.08  -0.02  -0.01     0.32  -0.17   0.11    -0.06  -0.09   0.05
   6   6    -0.06  -0.04   0.02     0.28  -0.08   0.23    -0.23   0.08  -0.14
   7   6    -0.05  -0.05   0.02    -0.03   0.08   0.10    -0.33   0.17  -0.24
   8   6    -0.06  -0.04   0.01    -0.31   0.15  -0.14    -0.23   0.08  -0.13
   9   6    -0.08  -0.02  -0.02    -0.27   0.06  -0.25    -0.06  -0.08   0.05
  10  17     0.67  -0.18   0.36    -0.05   0.13   0.15     0.41   0.33  -0.13
  11   1    -0.07   0.09  -0.09    -0.02   0.05   0.07     0.04  -0.00   0.01
  12   1    -0.09   0.06  -0.08     0.05  -0.06   0.02    -0.00  -0.03   0.03
  13   1    -0.09   0.06  -0.08    -0.03   0.02  -0.07    -0.00  -0.03   0.02
  14   1    -0.02   0.04  -0.03     0.02  -0.00   0.09     0.04  -0.05   0.05
  15   1    -0.02   0.04  -0.03    -0.05   0.08   0.00     0.04  -0.05   0.05
  16   1    -0.06   0.01  -0.03     0.01  -0.03  -0.16     0.03  -0.06   0.05
  17   1    -0.06   0.01  -0.03     0.06  -0.14  -0.06     0.02  -0.06   0.06
  18   1    -0.03  -0.00  -0.01     0.16  -0.09   0.06     0.00  -0.04   0.04
  19   1    -0.01  -0.01   0.01     0.15  -0.04   0.12    -0.09   0.04  -0.06
  20   1    -0.01  -0.02   0.01    -0.02   0.04   0.05    -0.14   0.09  -0.12
  21   1    -0.02  -0.01   0.01    -0.16   0.08  -0.07    -0.08   0.04  -0.06
  22   1    -0.03  -0.00  -0.01    -0.14   0.03  -0.13     0.00  -0.04   0.04
                      4                      5                      6
                        a                      a                      a 
 Frequencies --    96.1922               121.6859               121.7102
 Red. masses --    11.7933                12.2434                 8.7011
 Frc consts  --     0.0000                 0.0000                 0.0000
 IR Inten    --    21.8501                17.7167                 7.9854
 Raman Activ --     0.0000                 0.0000                 0.0000
 Depolar     --     0.0000                 0.0000                 0.0000
 Atom AN      X      Y      Z        X      Y      Z        X      Y      Z
   1   7     0.13  -0.32  -0.39    -0.07  -0.26   0.43    -0.06   0.40   0.08
   2   6     0.10  -0.25  -0.31    -0.14  -0.32  -0.14     0.24  -0.20  -0.40
   3   6    -0.05   0.13   0.16    -0.04   0.04  -0.12     0.05  -0.10  -0.03
   4   6    -0.04   0.10   0.12    -0.13   0.14  -0.20     0.09  -0.13   0.05
   5   6    -0.02  -0.05   0.17    -0.08   0.15  -0.16     0.12  -0.05   0.05
   6   6     0.00  -0.11   0.10     0.05   0.05   0.03     0.02   0.08   0.02
   7   6     0.01  -0.02  -0.03     0.13  -0.07   0.17    -0.10   0.12   0.00
   8   6    -0.01   0.12  -0.09    -0.01  -0.00   0.05    -0.08  -0.00   0.06
   9   6    -0.04   0.18  -0.02    -0.14   0.10  -0.15     0.02  -0.13   0.08
  10  17    -0.08   0.19   0.24     0.27   0.17  -0.01    -0.17  -0.05   0.07
  11   1    -0.00   0.00   0.00    -0.02  -0.13   0.10     0.01   0.07  -0.05
  12   1     0.11  -0.18  -0.08     0.01   0.06   0.12    -0.03   0.32   0.01
  13   1    -0.01  -0.06  -0.22    -0.02  -0.10   0.23    -0.10   0.04   0.22
  14   1    -0.03  -0.06  -0.19    -0.05  -0.07  -0.15     0.16   0.00  -0.30
  15   1     0.11  -0.15  -0.07    -0.09  -0.22  -0.05     0.08  -0.26  -0.11
  16   1     0.03   0.02   0.18     0.03   0.01   0.02     0.03  -0.04   0.08
  17   1    -0.09   0.15   0.03    -0.01   0.06  -0.03    -0.06   0.05  -0.02
  18   1    -0.01  -0.03   0.08    -0.03   0.06  -0.07     0.06  -0.02   0.01
  19   1     0.00  -0.06   0.04     0.04   0.01   0.02     0.01   0.05   0.00
  20   1     0.01  -0.02  -0.02     0.08  -0.06   0.10    -0.06   0.07  -0.01
  21   1     0.00   0.05  -0.05     0.00  -0.02   0.04    -0.05   0.00   0.02
  22   1    -0.01   0.09  -0.02    -0.06   0.04  -0.06     0.00  -0.06   0.03
                      7                      8                      9
                        a                      a                      a 
 Frequencies --   263.3094               281.4130               296.9161
 Red. masses --     9.7035                 2.9150                10.3058
 Frc consts  --     0.0000                 0.0000                 0.0000
 IR Inten    --     2.1641                 2.9165                30.3735
 Raman Activ --     0.0000                 0.0000                 0.0000
 Depolar     --     0.0000                 0.0000                 0.0000
 Atom AN      X      Y      Z        X      Y      Z        X      Y      Z
   1   7    -0.08  -0.20   0.14    -0.08   0.16   0.20    -0.56  -0.04  -0.15
   2   6    -0.33   0.08  -0.17     0.01  -0.05  -0.04    -0.13  -0.34   0.23
   3   6    -0.21   0.22  -0.23    -0.00   0.00   0.01     0.08  -0.15   0.14
   4   6     0.05  -0.01   0.02     0.01  -0.02  -0.03     0.04   0.03  -0.01
   5   6     0.25  -0.15   0.21    -0.01   0.03  -0.06     0.15   0.10   0.03
   6   6     0.11  -0.00   0.05    -0.02   0.05  -0.04     0.15   0.12   0.00
   7   6    -0.14   0.25  -0.23     0.00   0.01   0.01     0.18   0.15  -0.07
   8   6     0.11  -0.02   0.04     0.03  -0.04   0.05     0.16   0.08  -0.06
   9   6     0.25  -0.16   0.19     0.03  -0.06   0.02     0.17   0.05  -0.04
  10  17     0.04   0.03  -0.01     0.03  -0.08  -0.11    -0.07   0.01  -0.03
  11   1    -0.06  -0.12   0.07    -0.15   0.36   0.44    -0.07   0.11  -0.13
  12   1     0.03  -0.05   0.05     0.35  -0.33   0.15    -0.26  -0.01  -0.07
  13   1     0.03  -0.05   0.05    -0.28   0.12  -0.41    -0.25  -0.03  -0.05
  14   1    -0.15   0.01  -0.06     0.05   0.00  -0.05    -0.02  -0.09   0.07
  15   1    -0.14   0.01  -0.06    -0.02  -0.07  -0.02    -0.01  -0.09   0.07
  16   1    -0.08   0.06  -0.06    -0.00  -0.01   0.06     0.06  -0.03   0.05
  17   1    -0.08   0.06  -0.07    -0.01   0.05   0.00     0.06  -0.04   0.05
  18   1     0.11  -0.07   0.09    -0.00   0.01  -0.02     0.07   0.03   0.00
  19   1     0.04  -0.01   0.02    -0.01   0.02  -0.01     0.04   0.02   0.00
  20   1    -0.12   0.15  -0.15    -0.00   0.01   0.01     0.04   0.05  -0.03
  21   1     0.03  -0.01   0.02     0.01  -0.02   0.02     0.04   0.02  -0.00
  22   1     0.11  -0.07   0.09     0.01  -0.02   0.01     0.07   0.02   0.00
                     10                     11                     12
                        a                      a                      a 
 Frequencies --   331.6919               363.7331               472.9901
 Red. masses --     8.0485                 8.7966                 9.5108
 Frc consts  --     0.0000                 0.0000                 0.0000
 IR Inten    --     0.0016                 0.0060                 1.8357
 Raman Activ --     0.0000                 0.0000                 0.0000
 Depolar     --     0.0000                 0.0000                 0.0000
 Atom AN      X      Y      Z        X      Y      Z        X      Y      Z
   1   7     0.02  -0.03  -0.05     0.00  -0.00  -0.00     0.03   0.06  -0.04
   2   6    -0.03   0.09   0.12    -0.00   0.01   0.01     0.15  -0.09   0.12
   3   6    -0.11   0.28   0.36    -0.00   0.01   0.01     0.18   0.06   0.01
   4   6     0.08  -0.21  -0.26     0.00  -0.01  -0.01    -0.24   0.39  -0.38
   5   6     0.17  -0.09  -0.25     0.25  -0.23   0.25    -0.04  -0.06  -0.07
   6   6     0.13   0.11   0.00    -0.24   0.23  -0.26     0.11  -0.23   0.12
   7   6    -0.03   0.08   0.11    -0.00   0.00   0.00    -0.35   0.08  -0.17
   8   6    -0.15  -0.07   0.05     0.24  -0.23   0.26     0.07  -0.14   0.23
   9   6    -0.03  -0.25  -0.19    -0.24   0.22  -0.27    -0.08   0.04   0.05
  10  17    -0.00   0.01   0.01    -0.00   0.00   0.00    -0.01  -0.01   0.00
  11   1     0.01  -0.03  -0.04     0.00  -0.00  -0.00     0.04   0.06  -0.04
  12   1    -0.04  -0.02  -0.02    -0.00   0.00  -0.00    -0.03   0.01  -0.02
  13   1     0.05  -0.00  -0.00     0.00  -0.00   0.00    -0.03   0.01  -0.02
  14   1    -0.06   0.03  -0.01    -0.00   0.00   0.00     0.06  -0.02   0.03
  15   1     0.05  -0.00   0.04     0.00   0.00   0.00     0.06  -0.02   0.04
  16   1    -0.14   0.00   0.34    -0.00   0.00   0.01     0.12   0.03   0.01
  17   1    -0.00   0.35   0.10    -0.00   0.01   0.00     0.12   0.03   0.01
  18   1     0.09  -0.01  -0.11     0.16  -0.15   0.16     0.04  -0.10   0.08
  19   1     0.08   0.08   0.01    -0.15   0.15  -0.16     0.15  -0.13   0.14
  20   1    -0.02   0.05   0.06    -0.00   0.00   0.00    -0.12   0.04  -0.07
  21   1    -0.10  -0.03   0.05     0.15  -0.15   0.16     0.14  -0.13   0.15
  22   1    -0.04  -0.12  -0.06    -0.16   0.15  -0.17     0.04  -0.09   0.09
                     13                     14                     15
                        a                      a                      a 
 Frequencies --   562.8429               591.3334               663.0013
 Red. masses --    10.6178                11.1363                 9.3917
 Frc consts  --     0.0000                 0.0000                 0.0000
 IR Inten    --     5.5410                 0.0030                 5.0150
 Raman Activ --     0.0000                 0.0000                 0.0000
 Depolar     --     0.0000                 0.0000                 0.0000
 Atom AN      X      Y      Z        X      Y      Z        X      Y      Z
   1   7     0.17   0.06   0.01     0.00  -0.00  -0.00    -0.05  -0.03   0.01
   2   6     0.04   0.05  -0.03     0.00  -0.01  -0.01    -0.03   0.02  -0.02
   3   6    -0.28  -0.29   0.14     0.02  -0.04  -0.05     0.03   0.02  -0.01
   4   6    -0.39  -0.13  -0.02     0.04  -0.09  -0.12     0.32  -0.22   0.27
   5   6    -0.12   0.20   0.11    -0.19  -0.36  -0.15    -0.14   0.14  -0.21
   6   6     0.06   0.09   0.25    -0.36  -0.00   0.33     0.23  -0.22   0.18
   7   6     0.22   0.33  -0.19    -0.04   0.11   0.14    -0.21   0.12  -0.16
   8   6     0.17  -0.18  -0.10     0.20   0.41   0.18     0.21  -0.16   0.26
   9   6    -0.01  -0.08  -0.25     0.33   0.02  -0.29    -0.16   0.19  -0.15
  10  17     0.01  -0.00   0.00     0.00  -0.00  -0.00     0.00   0.00  -0.00
  11   1     0.01  -0.04   0.04    -0.00   0.00   0.00    -0.01  -0.00  -0.00
  12   1     0.09   0.02   0.01     0.00   0.00   0.00    -0.02  -0.01   0.00
  13   1     0.09   0.02   0.01    -0.00  -0.00   0.00    -0.02  -0.01   0.00
  14   1     0.05   0.02   0.00     0.01  -0.00   0.01    -0.02   0.00  -0.01
  15   1     0.05   0.02  -0.00    -0.01   0.00  -0.01    -0.02   0.00  -0.01
  16   1    -0.09  -0.08   0.03     0.01  -0.00  -0.05    -0.02  -0.00  -0.00
  17   1    -0.09  -0.08   0.04     0.01  -0.04  -0.01    -0.02  -0.00  -0.01
  18   1     0.08   0.04   0.01    -0.00  -0.09  -0.08    -0.17   0.15  -0.18
  19   1     0.02  -0.10   0.11    -0.07   0.05   0.11     0.00   0.02  -0.02
  20   1     0.07   0.09  -0.05     0.03  -0.07  -0.09    -0.16   0.13  -0.16
  21   1     0.02  -0.12   0.08     0.01   0.10   0.08     0.00   0.03  -0.02
  22   1     0.09   0.02  -0.01     0.06  -0.04  -0.09    -0.17   0.15  -0.17
                     16                     17                     18
                        a                      a                      a 
 Frequencies --   746.3157               793.4654               829.8864
 Red. masses --     4.5247                 2.1291                 9.7656
 Frc consts  --     0.0000                 0.0000                 0.0000
 IR Inten    --    24.4588                17.7100                 3.6341
 Raman Activ --     0.0000                 0.0000                 0.0000
 Depolar     --     0.0000                 0.0000                 0.0000
 Atom AN      X      Y      Z        X      Y      Z        X      Y      Z
   1   7     0.07   0.03   0.00    -0.00   0.01   0.01    -0.01  -0.06   0.05
   2   6     0.06  -0.06   0.07    -0.05   0.13   0.16     0.07  -0.03   0.04
   3   6    -0.00   0.04  -0.03    -0.05   0.14   0.17     0.30   0.38  -0.21
   4   6    -0.24   0.17  -0.21     0.00  -0.01  -0.01     0.13  -0.07   0.10
   5   6     0.08  -0.10   0.18     0.01  -0.02  -0.04    -0.17   0.01   0.11
   6   6     0.00  -0.03   0.13     0.02   0.01  -0.02    -0.26   0.08   0.29
   7   6     0.16  -0.05   0.09    -0.00   0.01   0.01     0.18   0.18  -0.09
   8   6     0.04  -0.13   0.01    -0.02  -0.03  -0.00    -0.10  -0.32  -0.21
   9   6     0.10  -0.17   0.09     0.01  -0.04  -0.03    -0.11  -0.14  -0.08
  10  17     0.00  -0.00   0.00    -0.00   0.00   0.00    -0.00  -0.00   0.00
  11   1     0.05   0.05  -0.02     0.01  -0.03  -0.04     0.11   0.13  -0.07
  12   1    -0.02   0.00  -0.01    -0.11  -0.17  -0.01    -0.13  -0.02  -0.02
  13   1    -0.01   0.00  -0.01     0.15   0.06  -0.12    -0.13  -0.03  -0.03
  14   1     0.02  -0.01   0.02    -0.06   0.14  -0.48    -0.04  -0.02   0.00
  15   1     0.02  -0.01   0.02     0.19  -0.45   0.08    -0.04  -0.02   0.00
  16   1     0.05   0.02  -0.00    -0.07   0.12  -0.37     0.10   0.11  -0.05
  17   1     0.05   0.02  -0.00     0.16  -0.35   0.08     0.10   0.11  -0.05
  18   1    -0.18   0.18  -0.18     0.03  -0.01  -0.01    -0.00  -0.01   0.04
  19   1    -0.25   0.19  -0.22     0.02   0.01   0.00    -0.10  -0.10   0.10
  20   1    -0.23   0.25  -0.27    -0.00   0.01   0.01     0.11  -0.01   0.05
  21   1    -0.25   0.18  -0.23    -0.02  -0.01   0.00    -0.08  -0.15   0.04
  22   1    -0.17   0.16  -0.20    -0.02  -0.02  -0.02     0.01  -0.04   0.00
                     19                     20                     21
                        a                      a                      a 
 Frequencies --   871.1282               891.0575               896.7110
 Red. masses --     3.3017                 2.5536                 3.4971
 Frc consts  --     0.0000                 0.0000                 0.0000
 IR Inten    --     1.4669                15.6192                 0.0459
 Raman Activ --     0.0000                 0.0000                 0.0000
 Depolar     --     0.0000                 0.0000                 0.0000
 Atom AN      X      Y      Z        X      Y      Z        X      Y      Z
   1   7    -0.01   0.03   0.04     0.04  -0.11  -0.13     0.01   0.02  -0.01
   2   6    -0.00   0.01   0.01     0.02  -0.04  -0.05     0.00  -0.02   0.02
   3   6     0.01  -0.04  -0.05    -0.07   0.17   0.21    -0.02  -0.01   0.00
   4   6    -0.00  -0.00  -0.00    -0.00   0.00   0.01    -0.04   0.03  -0.03
   5   6     0.15  -0.14   0.17     0.06  -0.07  -0.00     0.15  -0.13   0.15
   6   6     0.09  -0.10   0.11     0.05  -0.01   0.00    -0.04   0.04  -0.05
   7   6     0.00  -0.00  -0.00    -0.00   0.01   0.01    -0.17   0.16  -0.17
   8   6    -0.09   0.10  -0.10    -0.04  -0.01  -0.03    -0.04   0.05  -0.04
   9   6    -0.15   0.15  -0.16    -0.03  -0.00  -0.08     0.15  -0.14   0.15
  10  17     0.00  -0.00  -0.00     0.00  -0.00  -0.01    -0.00  -0.00   0.00
  11   1     0.01  -0.03  -0.03    -0.04   0.10   0.13    -0.01  -0.01   0.01
  12   1    -0.07  -0.10  -0.00     0.31   0.35   0.02     0.01   0.00  -0.00
  13   1     0.09   0.05  -0.07    -0.39  -0.16   0.21     0.01   0.01   0.00
  14   1     0.07   0.03  -0.03    -0.28  -0.09   0.08     0.01  -0.00   0.00
  15   1    -0.06  -0.06  -0.01     0.24   0.19   0.03     0.01  -0.00   0.01
  16   1     0.01  -0.02   0.05     0.00   0.12  -0.25     0.01  -0.00   0.00
  17   1    -0.02   0.05  -0.02     0.06  -0.26   0.07     0.01  -0.00   0.00
  18   1    -0.29   0.27  -0.29    -0.06   0.07  -0.10    -0.28   0.27  -0.29
  19   1    -0.21   0.19  -0.22    -0.03   0.06  -0.05     0.13  -0.12   0.13
  20   1     0.00  -0.00  -0.00    -0.00   0.01   0.02     0.26  -0.25   0.27
  21   1     0.21  -0.19   0.22     0.03  -0.06   0.06     0.13  -0.12   0.14
  22   1     0.28  -0.26   0.31     0.07  -0.09   0.06    -0.28   0.26  -0.30
                     22                     23                     24
                        a                      a                      a 
 Frequencies --   914.8763               924.2049               932.6061
 Red. masses --     5.7149                 4.1777                 3.2033
 Frc consts  --     0.0000                 0.0000                 0.0000
 IR Inten    --    17.4682                 0.0021                 0.0025
 Raman Activ --     0.0000                 0.0000                 0.0000
 Depolar     --     0.0000                 0.0000                 0.0000
 Atom AN      X      Y      Z        X      Y      Z        X      Y      Z
   1   7     0.38   0.01   0.11    -0.00  -0.00  -0.00     0.00   0.01  -0.01
   2   6    -0.02  -0.18   0.13     0.00  -0.00  -0.00    -0.01  -0.01   0.00
   3   6    -0.31   0.07  -0.15     0.00   0.00  -0.00    -0.00  -0.00   0.00
   4   6    -0.05  -0.08   0.04     0.00  -0.00  -0.00    -0.05   0.04  -0.05
   5   6     0.03   0.05   0.00    -0.13   0.13  -0.14    -0.01   0.01  -0.01
   6   6     0.08  -0.02  -0.11     0.17  -0.17   0.19     0.12  -0.12   0.13
   7   6    -0.08  -0.05   0.01     0.00  -0.00  -0.00    -0.19   0.17  -0.19
   8   6     0.03   0.12   0.07    -0.17   0.17  -0.19     0.12  -0.11   0.13
   9   6     0.04   0.02  -0.04     0.13  -0.12   0.14    -0.00   0.01  -0.01
  10  17    -0.01  -0.01   0.01     0.00  -0.00  -0.00     0.00   0.00  -0.00
  11   1     0.41   0.42  -0.20    -0.00   0.00   0.00    -0.01  -0.01   0.00
  12   1    -0.26  -0.01  -0.05     0.01   0.01   0.00     0.01   0.00   0.00
  13   1    -0.26  -0.03  -0.08    -0.01  -0.00   0.00     0.01   0.00   0.00
  14   1    -0.07  -0.06   0.03    -0.01  -0.00   0.00     0.00  -0.00   0.00
  15   1    -0.07  -0.06   0.02     0.01   0.01   0.00     0.00  -0.00   0.00
  16   1    -0.14   0.01  -0.05    -0.01  -0.00  -0.00     0.01   0.00   0.00
  17   1    -0.14   0.00  -0.05     0.01   0.00   0.00     0.01   0.00   0.00
  18   1     0.02   0.00   0.01     0.20  -0.19   0.20     0.08  -0.07   0.08
  19   1     0.05   0.00  -0.01    -0.28   0.27  -0.30    -0.26   0.24  -0.27
  20   1     0.00  -0.04   0.03    -0.00   0.00  -0.00     0.35  -0.33   0.37
  21   1     0.04   0.03   0.02     0.28  -0.27   0.30    -0.26   0.24  -0.27
  22   1     0.02  -0.00   0.00    -0.19   0.18  -0.21     0.08  -0.07   0.08
                     25                     26                     27
                        a                      a                      a 
 Frequencies --   992.3013              1008.0538              1051.0325
 Red. masses --    10.7694                10.1103                 4.3250
 Frc consts  --     0.0000                 0.0000                 0.0000
 IR Inten    --     0.2282                22.8776                 4.4042
 Raman Activ --     0.0000                 0.0000                 0.0000
 Depolar     --     0.0000                 0.0000                 0.0000
 Atom AN      X      Y      Z        X      Y      Z        X      Y      Z
   1   7     0.12   0.09  -0.03     0.28   0.38  -0.21     0.03  -0.09  -0.11
   2   6    -0.13  -0.10   0.04    -0.51  -0.41   0.17    -0.06   0.15   0.19
   3   6    -0.12  -0.09   0.03     0.09   0.07  -0.03     0.09  -0.22  -0.27
   4   6     0.11   0.09  -0.04     0.06  -0.04   0.05     0.03  -0.08  -0.10
   5   6    -0.01  -0.42  -0.36    -0.01   0.10   0.07    -0.00   0.10   0.11
   6   6    -0.05   0.07   0.12    -0.02  -0.01   0.00    -0.07   0.01   0.07
   7   6     0.28   0.21  -0.08    -0.05  -0.05   0.02     0.02  -0.05  -0.06
   8   6     0.02  -0.10  -0.10    -0.02  -0.01  -0.00     0.03   0.08   0.05
   9   6    -0.26   0.21   0.44     0.05  -0.04  -0.10    -0.07   0.07   0.11
  10  17    -0.00  -0.00   0.00    -0.00   0.00  -0.00     0.00  -0.00  -0.00
  11   1     0.04   0.03  -0.01    -0.06  -0.07   0.04    -0.02   0.05   0.06
  12   1     0.03   0.02  -0.01     0.23   0.09  -0.01     0.13   0.14  -0.01
  13   1     0.03   0.02  -0.01     0.23   0.11   0.00    -0.15  -0.08   0.08
  14   1    -0.03  -0.03   0.01    -0.11  -0.10   0.03    -0.16   0.06  -0.19
  15   1    -0.03  -0.02   0.01    -0.11  -0.09   0.05     0.20  -0.15   0.09
  16   1    -0.06  -0.03   0.02     0.12   0.03   0.02    -0.41  -0.20   0.13
  17   1    -0.06  -0.04   0.01     0.13   0.02   0.01     0.37   0.30  -0.01
  18   1     0.04  -0.10  -0.13    -0.00   0.01   0.04    -0.01   0.04   0.02
  19   1     0.04   0.10   0.04    -0.02  -0.03   0.00    -0.08  -0.08  -0.00
  20   1     0.08   0.06  -0.02    -0.02  -0.01  -0.00     0.03  -0.08  -0.10
  21   1     0.08   0.00  -0.08    -0.02  -0.02   0.02     0.09   0.04  -0.04
  22   1    -0.04   0.11   0.13     0.02  -0.03  -0.02    -0.01   0.01   0.04
                     28                     29                     30
                        a                      a                      a 
 Frequencies --  1091.6985              1101.8249              1127.5724
 Red. masses --     6.6135                 8.8021                 3.6455
 Frc consts  --     0.0000                 0.0000                 0.0000
 IR Inten    --     0.0649                19.9601                 3.5377
 Raman Activ --     0.0000                 0.0000                 0.0000
 Depolar     --     0.0000                 0.0000                 0.0000
 Atom AN      X      Y      Z        X      Y      Z        X      Y      Z
   1   7    -0.01   0.01  -0.01    -0.14   0.05  -0.08     0.01  -0.03  -0.04
   2   6     0.02  -0.02   0.02     0.38  -0.26   0.34    -0.02   0.05   0.07
   3   6     0.01   0.04  -0.03    -0.39   0.27  -0.34     0.03  -0.07  -0.10
   4   6    -0.00  -0.01   0.01     0.03  -0.06   0.06    -0.03   0.07   0.09
   5   6    -0.12  -0.10   0.02    -0.00   0.00  -0.02    -0.14  -0.19  -0.04
   6   6     0.13  -0.18  -0.28     0.00   0.02  -0.00     0.11  -0.02  -0.12
   7   6     0.35   0.26  -0.09    -0.02  -0.01   0.01    -0.04   0.10   0.13
   8   6    -0.04   0.25   0.26     0.00   0.01  -0.01    -0.05  -0.14  -0.08
   9   6    -0.13  -0.08   0.04    -0.01   0.02   0.00     0.19   0.06  -0.13
  10  17     0.00   0.00  -0.00     0.00   0.00  -0.00    -0.00   0.00   0.00
  11   1    -0.01  -0.01   0.01    -0.17  -0.17   0.08    -0.01   0.01   0.02
  12   1     0.01   0.00   0.00     0.14  -0.01   0.02     0.03   0.04  -0.00
  13   1     0.01   0.00   0.00     0.13   0.02   0.05    -0.04  -0.02   0.02
  14   1     0.01  -0.00   0.00     0.24  -0.05   0.12    -0.00   0.03  -0.05
  15   1     0.01  -0.00   0.01     0.24  -0.06   0.12     0.02  -0.06   0.02
  16   1    -0.00   0.01   0.00    -0.09   0.07  -0.09    -0.08  -0.05   0.04
  17   1     0.00   0.00  -0.01    -0.09   0.07  -0.08     0.07   0.08  -0.02
  18   1    -0.26  -0.09   0.17     0.04  -0.00  -0.01    -0.36  -0.14   0.22
  19   1    -0.13  -0.30  -0.15     0.02   0.02   0.01     0.18   0.20   0.01
  20   1     0.10   0.08  -0.03    -0.00  -0.01   0.00    -0.10   0.26   0.33
  21   1    -0.26   0.01   0.25     0.02   0.00  -0.01    -0.22  -0.10   0.12
  22   1    -0.20  -0.26  -0.04     0.03   0.02   0.02     0.28   0.34   0.04
                     31                     32                     33
                        a                      a                      a 
 Frequencies --  1181.7965              1198.1151              1208.0867
 Red. masses --     1.3305                 1.7370                 4.2830
 Frc consts  --     0.0000                 0.0000                 0.0000
 IR Inten    --     0.0000                 0.3364                 9.9374
 Raman Activ --     0.0000                 0.0000                 0.0000
 Depolar     --     0.0000                 0.0000                 0.0000
 Atom AN      X      Y      Z        X      Y      Z        X      Y      Z
   1   7     0.00  -0.00  -0.00     0.00   0.00  -0.00    -0.07   0.18   0.22
   2   6    -0.00   0.01   0.01     0.01  -0.01   0.01     0.10  -0.25  -0.31
   3   6    -0.00   0.00   0.00    -0.03  -0.02   0.00    -0.02   0.06   0.07
   4   6    -0.02   0.04   0.05     0.06   0.05  -0.02     0.02  -0.05  -0.07
   5   6     0.07   0.05  -0.02    -0.08   0.01   0.08    -0.03   0.01   0.04
   6   6     0.01   0.02   0.01     0.02   0.10   0.07     0.01   0.02   0.01
   7   6     0.02  -0.05  -0.06     0.02   0.02  -0.01     0.00  -0.01  -0.01
   8   6    -0.02  -0.00   0.02     0.07  -0.03  -0.09    -0.02   0.00   0.02
   9   6    -0.07  -0.05   0.02    -0.03  -0.09  -0.05     0.00   0.04   0.02
  10  17     0.00  -0.00  -0.00    -0.00   0.00  -0.00    -0.00   0.00   0.00
  11   1    -0.00   0.00   0.00    -0.01  -0.01   0.00     0.03  -0.08  -0.10
  12   1     0.00   0.00  -0.00     0.00   0.00  -0.00    -0.16  -0.21   0.03
  13   1    -0.00  -0.00   0.00    -0.00  -0.00   0.00     0.19   0.13  -0.13
  14   1     0.00   0.00  -0.00     0.00   0.00  -0.00    -0.28  -0.19   0.16
  15   1    -0.00  -0.01   0.00    -0.00  -0.00   0.00     0.24   0.28  -0.05
  16   1     0.01   0.00   0.00    -0.04  -0.02   0.01    -0.34  -0.03  -0.12
  17   1    -0.01  -0.00  -0.00    -0.04  -0.03  -0.00     0.35  -0.00   0.08
  18   1    -0.11  -0.02   0.09    -0.41  -0.10   0.30    -0.08  -0.01   0.06
  19   1     0.25   0.37   0.09     0.23   0.36   0.10     0.00  -0.00   0.00
  20   1     0.17  -0.43  -0.55     0.00   0.00  -0.00     0.00  -0.00  -0.00
  21   1    -0.36  -0.09   0.26     0.35   0.08  -0.26     0.00   0.01  -0.01
  22   1     0.07   0.11   0.04    -0.28  -0.43  -0.11     0.05   0.08   0.03
                     34                     35                     36
                        a                      a                      a 
 Frequencies --  1238.5093              1246.8244              1287.0503
 Red. masses --     7.9975                 2.2875                 4.0064
 Frc consts  --     0.0000                 0.0000                 0.0000
 IR Inten    --     3.1378                 5.8373                13.5991
 Raman Activ --     0.0000                 0.0000                 0.0000
 Depolar     --     0.0000                 0.0000                 0.0000
 Atom AN      X      Y      Z        X      Y      Z        X      Y      Z
   1   7     0.02   0.02  -0.01    -0.03   0.08   0.10     0.01   0.13  -0.10
   2   6     0.01  -0.03   0.03    -0.03   0.06   0.08     0.31  -0.06   0.14
   3   6    -0.16  -0.17   0.08     0.06  -0.15  -0.19     0.29   0.07   0.04
   4   6     0.46   0.38  -0.16    -0.03   0.07   0.09    -0.15  -0.04  -0.01
   5   6     0.14   0.13  -0.02    -0.01  -0.03  -0.02    -0.04  -0.02   0.02
   6   6    -0.15   0.03   0.17    -0.01  -0.04  -0.02     0.03  -0.02  -0.04
   7   6    -0.08  -0.06   0.02    -0.00   0.00   0.00     0.01   0.01  -0.01
   8   6    -0.06  -0.19  -0.11     0.03  -0.00  -0.04     0.01   0.04   0.03
   9   6     0.16   0.10  -0.06     0.02  -0.01  -0.02    -0.02  -0.03   0.00
  10  17     0.00  -0.00   0.00    -0.00   0.00   0.00    -0.00   0.00  -0.00
  11   1    -0.00  -0.01   0.00     0.01  -0.02  -0.03    -0.14  -0.15   0.08
  12   1     0.00  -0.00  -0.00    -0.06  -0.07   0.02    -0.01  -0.05  -0.02
  13   1     0.00   0.00   0.00     0.07   0.05  -0.04    -0.03   0.00   0.04
  14   1    -0.02  -0.02   0.01    -0.51  -0.06  -0.12    -0.43  -0.10  -0.06
  15   1    -0.01  -0.02   0.01     0.51   0.06   0.11    -0.43  -0.10  -0.06
  16   1    -0.26  -0.09   0.01     0.32  -0.02   0.18    -0.36  -0.05  -0.10
  17   1    -0.25  -0.11  -0.02    -0.34   0.07  -0.11    -0.36  -0.02  -0.07
  18   1    -0.11   0.00   0.11     0.09   0.01  -0.07     0.05   0.02  -0.05
  19   1    -0.19  -0.21  -0.00     0.04   0.05   0.01     0.04   0.05  -0.00
  20   1    -0.03  -0.02   0.01    -0.01   0.03   0.04    -0.00   0.01   0.00
  21   1    -0.23  -0.11   0.12    -0.06  -0.02   0.03     0.03   0.02  -0.01
  22   1    -0.06  -0.13  -0.06    -0.06  -0.09  -0.03     0.01   0.03   0.01
                     37                     38                     39
                        a                      a                      a 
 Frequencies --  1290.7329              1341.6968              1343.7948
 Red. masses --     3.4015                11.4150                 4.6668
 Frc consts  --     0.0000                 0.0000                 0.0000
 IR Inten    --     0.0584                 0.0141                 2.1959
 Raman Activ --     0.0000                 0.0000                 0.0000
 Depolar     --     0.0000                 0.0000                 0.0000
 Atom AN      X      Y      Z        X      Y      Z        X      Y      Z
   1   7    -0.00   0.01   0.00    -0.00  -0.00   0.01    -0.02  -0.07   0.05
   2   6     0.00   0.02   0.03    -0.02  -0.02  -0.02    -0.31  -0.08  -0.04
   3   6     0.00   0.01   0.01     0.04  -0.00  -0.01     0.42   0.13   0.03
   4   6     0.04  -0.11  -0.13    -0.11   0.25   0.32    -0.10  -0.04  -0.04
   5   6     0.19   0.06  -0.13     0.30   0.09  -0.20    -0.05  -0.02   0.04
   6   6     0.02   0.07   0.04    -0.24  -0.34  -0.08     0.04   0.01  -0.02
   7   6    -0.06   0.14   0.18    -0.08   0.22   0.27     0.02  -0.01  -0.02
   8   6    -0.06   0.02   0.06     0.34   0.10  -0.23    -0.03   0.02   0.05
   9   6    -0.14  -0.19  -0.04    -0.22  -0.30  -0.06     0.00  -0.01  -0.00
  10  17    -0.00   0.00   0.00    -0.00   0.00   0.00    -0.00  -0.00   0.00
  11   1    -0.01   0.00   0.01     0.01  -0.01  -0.02     0.05   0.06  -0.03
  12   1    -0.01  -0.01  -0.00     0.01   0.00   0.00     0.03   0.06   0.01
  13   1     0.01   0.00   0.00     0.00   0.00  -0.01     0.05   0.01  -0.05
  14   1    -0.09  -0.01  -0.03     0.05   0.00   0.02     0.37   0.06   0.06
  15   1     0.05  -0.01   0.02     0.01   0.01  -0.00     0.37   0.07   0.07
  16   1     0.15   0.03   0.01    -0.17  -0.04  -0.01    -0.40  -0.06  -0.08
  17   1    -0.17  -0.04  -0.03     0.10   0.04   0.01    -0.42  -0.07  -0.08
  18   1    -0.34  -0.09   0.25     0.04   0.02  -0.03     0.02   0.01  -0.03
  19   1    -0.21  -0.29  -0.06     0.02   0.02   0.01     0.02   0.03  -0.00
  20   1     0.06  -0.16  -0.20    -0.01   0.03   0.04     0.00   0.00  -0.01
  21   1     0.29   0.08  -0.20    -0.02  -0.00   0.01     0.03   0.02  -0.02
  22   1     0.24   0.36   0.09    -0.03  -0.04  -0.00     0.02   0.04   0.00
                     40                     41                     42
                        a                      a                      a 
 Frequencies --  1368.9286              1397.9402              1446.6880
 Red. masses --     2.6008                 1.4782                 8.8770
 Frc consts  --     0.0000                 0.0000                 0.0000
 IR Inten    --   171.6803                79.2537                 0.0011
 Raman Activ --     0.0000                 0.0000                 0.0000
 Depolar     --     0.0000                 0.0000                 0.0000
 Atom AN      X      Y      Z        X      Y      Z        X      Y      Z
   1   7    -0.33  -0.10  -0.03    -0.05   0.11   0.14     0.00  -0.00  -0.00
   2   6     0.08   0.00   0.02    -0.01   0.03   0.04     0.00  -0.01  -0.01
   3   6     0.01  -0.01   0.01     0.00  -0.00  -0.00     0.02  -0.04  -0.05
   4   6    -0.00   0.00  -0.00     0.00   0.00   0.00    -0.10   0.25   0.32
   5   6    -0.01  -0.00   0.01    -0.01  -0.00  -0.00    -0.17  -0.23  -0.05
   6   6     0.00  -0.00  -0.00     0.01   0.01  -0.00     0.27   0.13  -0.14
   7   6     0.00   0.00  -0.00    -0.00   0.00   0.00    -0.09   0.22   0.28
   8   6    -0.00   0.00   0.00    -0.01  -0.01   0.01    -0.23  -0.24  -0.00
   9   6    -0.00  -0.01  -0.00     0.01   0.00  -0.00     0.24   0.07  -0.16
  10  17    -0.01  -0.01   0.00    -0.00   0.01   0.01     0.00  -0.00  -0.00
  11   1     0.30   0.46  -0.27     0.19  -0.46  -0.57    -0.00   0.01   0.01
  12   1     0.47  -0.04   0.11     0.42  -0.09   0.11    -0.01  -0.00  -0.00
  13   1     0.44   0.03   0.20    -0.38   0.00  -0.22     0.01  -0.00   0.01
  14   1    -0.11  -0.01  -0.04     0.03   0.02  -0.02     0.01  -0.00   0.00
  15   1    -0.12   0.00  -0.02    -0.03  -0.03   0.01    -0.01   0.00  -0.00
  16   1    -0.03  -0.01  -0.01     0.02   0.00   0.01    -0.10  -0.04   0.01
  17   1    -0.03   0.00  -0.00    -0.02   0.00  -0.00     0.10   0.05   0.01
  18   1     0.00   0.00  -0.00     0.00  -0.01   0.01     0.11  -0.03  -0.13
  19   1     0.01   0.00   0.00     0.00  -0.01   0.00    -0.06  -0.16  -0.09
  20   1     0.00  -0.00   0.00     0.00  -0.01  -0.01     0.08  -0.21  -0.27
  21   1     0.01  -0.00   0.00     0.00   0.01  -0.01     0.13  -0.02  -0.14
  22   1     0.00   0.00   0.00    -0.00   0.01  -0.01    -0.04  -0.15  -0.09
                     43                     44                     45
                        a                      a                      a 
 Frequencies --  1453.8873              1484.4978              1489.6528
 Red. masses --     1.9731                 7.4322                 3.6485
 Frc consts  --     0.0000                 0.0000                 0.0000
 IR Inten    --    79.7525                 5.9378                 3.9073
 Raman Activ --     0.0000                 0.0000                 0.0000
 Depolar     --     0.0000                 0.0000                 0.0000
 Atom AN      X      Y      Z        X      Y      Z        X      Y      Z
   1   7     0.07   0.20  -0.14     0.00  -0.00   0.00    -0.01  -0.01   0.01
   2   6    -0.08   0.04  -0.06    -0.01   0.11  -0.09    -0.01   0.18  -0.15
   3   6     0.02  -0.01   0.02    -0.08  -0.07   0.03     0.06   0.02   0.00
   4   6    -0.00  -0.00  -0.00     0.29   0.22  -0.08    -0.17  -0.13   0.05
   5   6     0.00   0.00  -0.00    -0.17   0.05   0.20     0.09  -0.03  -0.11
   6   6    -0.00   0.00   0.00    -0.12  -0.27  -0.13     0.07   0.16   0.07
   7   6    -0.00  -0.00  -0.00     0.18   0.14  -0.05    -0.10  -0.08   0.03
   8   6     0.00   0.00  -0.00    -0.23   0.01   0.22     0.14  -0.00  -0.13
   9   6     0.00   0.00   0.00    -0.06  -0.22  -0.14     0.03   0.12   0.08
  10  17     0.00   0.00  -0.00     0.00   0.00  -0.00     0.00   0.00  -0.00
  11   1    -0.01   0.01  -0.01     0.00   0.01  -0.00     0.01   0.01  -0.01
  12   1    -0.00  -0.67   0.01     0.01   0.04  -0.00     0.02   0.08   0.00
  13   1    -0.20  -0.18   0.61     0.02   0.01  -0.03     0.04   0.03  -0.06
  14   1     0.07   0.00   0.09    -0.05  -0.08   0.32    -0.10  -0.14   0.56
  15   1     0.10  -0.05   0.01     0.05  -0.33   0.01     0.08  -0.58   0.02
  16   1     0.00   0.01  -0.04    -0.01  -0.01  -0.00     0.01   0.02  -0.06
  17   1    -0.01   0.04  -0.00    -0.02  -0.00   0.00    -0.00   0.06  -0.01
  18   1    -0.00  -0.00   0.00     0.17   0.07  -0.10    -0.10  -0.04   0.06
  19   1    -0.00   0.00  -0.00     0.14   0.17   0.02    -0.08  -0.09  -0.01
  20   1    -0.00   0.00   0.00     0.06   0.04  -0.02    -0.03  -0.02   0.01
  21   1    -0.00   0.00   0.00     0.18   0.07  -0.11    -0.10  -0.04   0.06
  22   1    -0.00  -0.00  -0.00     0.14   0.16   0.01    -0.08  -0.09  -0.01
                     46                     47                     48
                        a                      a                      a 
 Frequencies --  1508.4546              1605.0889              1615.0691
 Red. masses --     2.0368                11.5215                11.5378
 Frc consts  --     0.0000                 0.0000                 0.0000
 IR Inten    --     3.6712                 0.4892                 2.4617
 Raman Activ --     0.0000                 0.0000                 0.0000
 Depolar     --     0.0000                 0.0000                 0.0000
 Atom AN      X      Y      Z        X      Y      Z        X      Y      Z
   1   7    -0.00   0.01  -0.01    -0.00   0.00   0.00     0.00   0.00   0.00
   2   6     0.02   0.04  -0.02     0.00  -0.00  -0.00    -0.01  -0.00  -0.00
   3   6     0.02   0.23  -0.18     0.01  -0.02  -0.03    -0.03  -0.03   0.01
   4   6    -0.04  -0.02   0.00    -0.12   0.29   0.37     0.23   0.17  -0.06
   5   6    -0.00  -0.00   0.00     0.18  -0.08  -0.24    -0.38  -0.18   0.20
   6   6     0.01   0.01  -0.00     0.03   0.26   0.20     0.31   0.32   0.00
   7   6    -0.01  -0.01   0.00     0.13  -0.33  -0.42    -0.16  -0.12   0.04
   8   6     0.01   0.01  -0.01    -0.17   0.11   0.26     0.36   0.17  -0.19
   9   6    -0.00  -0.00   0.00    -0.05  -0.25  -0.18    -0.31  -0.34  -0.01
  10  17    -0.00   0.00  -0.00    -0.00   0.00   0.00     0.00  -0.00   0.00
  11   1    -0.00   0.00  -0.00    -0.00   0.00   0.00     0.00  -0.00   0.00
  12   1     0.00  -0.04   0.00    -0.00  -0.00  -0.00    -0.00  -0.00  -0.00
  13   1    -0.01  -0.01   0.04     0.00   0.00  -0.00    -0.00  -0.00  -0.00
  14   1    -0.03  -0.01   0.05     0.00  -0.00   0.00     0.00   0.00  -0.00
  15   1    -0.01  -0.06  -0.01    -0.00   0.00  -0.00     0.00   0.00   0.00
  16   1    -0.09  -0.16   0.64    -0.06  -0.02   0.01    -0.01  -0.00  -0.01
  17   1     0.11  -0.66   0.03     0.05   0.03   0.01    -0.01   0.00  -0.00
  18   1     0.01   0.00  -0.01    -0.06  -0.05   0.01     0.08   0.00  -0.07
  19   1    -0.00  -0.00  -0.00    -0.06  -0.03   0.03    -0.03  -0.08  -0.04
  20   1    -0.00  -0.00   0.00    -0.03   0.07   0.09    -0.04  -0.03   0.01
  21   1    -0.00   0.00   0.00     0.05   0.05   0.00    -0.07   0.00   0.07
  22   1     0.01   0.01   0.00     0.06   0.04  -0.02     0.04   0.09   0.04
                     49                     50                     51
                        a                      a                      a 
 Frequencies --  2864.8362              2940.2988              2965.5787
 Red. masses --     2.0002                 1.9323                 2.0010
 Frc consts  --     0.0000                 0.0000                 0.0000
 IR Inten    --  2070.2680                15.0120                 2.3227
 Raman Activ --     0.0000                 0.0000                 0.0000
 Depolar     --     0.0000                 0.0000                 0.0000
 Atom AN      X      Y      Z        X      Y      Z        X      Y      Z
   1   7     0.21  -0.09   0.15    -0.00   0.00   0.00     0.00  -0.00  -0.00
   2   6     0.00   0.00  -0.00     0.02  -0.05  -0.06    -0.07   0.18   0.22
   3   6    -0.00   0.00  -0.00    -0.07   0.17   0.21    -0.02   0.05   0.07
   4   6     0.00   0.00  -0.00    -0.00   0.01   0.01    -0.00   0.00   0.00
   5   6    -0.00   0.00   0.00    -0.00  -0.00  -0.00    -0.00  -0.00  -0.00
   6   6    -0.00   0.00   0.00     0.00   0.00   0.00     0.00   0.00   0.00
   7   6    -0.00  -0.00   0.00     0.00  -0.00  -0.00     0.00  -0.00  -0.00
   8   6    -0.00  -0.00  -0.00    -0.00  -0.00   0.00    -0.00   0.00   0.00
   9   6    -0.00  -0.00  -0.00     0.00  -0.00  -0.00     0.00  -0.00  -0.00
  10  17    -0.01   0.00  -0.01     0.00  -0.00  -0.00     0.00  -0.00  -0.00
  11   1    -0.77   0.30  -0.49    -0.00   0.00   0.00     0.00  -0.00  -0.00
  12   1     0.02  -0.01  -0.02     0.00   0.00  -0.01    -0.00   0.00   0.01
  13   1     0.01   0.02   0.02    -0.00  -0.01  -0.00    -0.00   0.01   0.00
  14   1     0.00  -0.00  -0.00    -0.04   0.19   0.04     0.13  -0.62  -0.13
  15   1    -0.00   0.00   0.00    -0.03  -0.00   0.19     0.11  -0.00  -0.63
  16   1     0.00  -0.01  -0.00     0.14  -0.62  -0.13     0.04  -0.18  -0.04
  17   1    -0.00   0.00   0.01     0.11   0.00  -0.64     0.03  -0.00  -0.19
  18   1     0.00  -0.00  -0.00     0.00   0.01   0.00     0.00   0.00   0.00
  19   1     0.00  -0.00  -0.00    -0.00  -0.00   0.00     0.00  -0.00  -0.00
  20   1     0.00   0.00  -0.00     0.00  -0.00  -0.00    -0.00   0.00   0.00
  21   1     0.00   0.00   0.00     0.00   0.00  -0.00    -0.00  -0.00  -0.00
  22   1    -0.00   0.00   0.00    -0.01   0.00   0.01    -0.00  -0.00   0.00
                     52                     53                     54
                        a                      a                      a 
 Frequencies --  2970.2821              2990.4909              3097.9109
 Red. masses --     1.4817                 1.5390                 1.7522
 Frc consts  --     0.0000                 0.0000                 0.0000
 IR Inten    --    27.2996                11.2792                 0.2997
 Raman Activ --     0.0000                 0.0000                 0.0000
 Depolar     --     0.0000                 0.0000                 0.0000
 Atom AN      X      Y      Z        X      Y      Z        X      Y      Z
   1   7    -0.00   0.00  -0.00    -0.00   0.00  -0.00     0.00  -0.00   0.00
   2   6    -0.00  -0.04   0.04     0.00  -0.16   0.13    -0.00  -0.00   0.00
   3   6    -0.01   0.15  -0.13     0.00  -0.05   0.04     0.00   0.00  -0.00
   4   6     0.00   0.01  -0.00    -0.00  -0.00   0.00     0.00   0.00  -0.00
   5   6    -0.00  -0.00  -0.00     0.00  -0.00  -0.00     0.01   0.03   0.02
   6   6     0.00  -0.00   0.00    -0.00   0.00   0.00     0.08  -0.03  -0.10
   7   6    -0.00  -0.00   0.00    -0.00  -0.00   0.00    -0.13  -0.10   0.04
   8   6     0.00  -0.00  -0.00    -0.00  -0.00  -0.00     0.02   0.11   0.08
   9   6    -0.00  -0.00   0.00     0.00   0.00   0.00     0.03  -0.01  -0.03
  10  17     0.00  -0.00   0.00     0.00   0.00  -0.00     0.00  -0.00   0.00
  11   1     0.01  -0.01   0.01    -0.01   0.00  -0.00    -0.00   0.00  -0.00
  12   1    -0.01   0.00   0.01    -0.00   0.00   0.02    -0.00  -0.00  -0.00
  13   1    -0.00  -0.01  -0.00     0.00  -0.02  -0.00    -0.00   0.00   0.00
  14   1    -0.04   0.19   0.05    -0.14   0.62   0.17    -0.00   0.00   0.00
  15   1     0.04  -0.01  -0.20     0.13  -0.04  -0.65     0.00  -0.00  -0.00
  16   1     0.15  -0.62  -0.18    -0.05   0.19   0.06     0.00  -0.00  -0.00
  17   1    -0.12   0.05   0.65     0.04  -0.01  -0.20    -0.00  -0.00   0.00
  18   1     0.00   0.01   0.00    -0.00  -0.00  -0.00    -0.03  -0.13  -0.09
  19   1     0.00  -0.00  -0.00     0.00  -0.00  -0.00    -0.30   0.11   0.38
  20   1     0.00   0.00  -0.00     0.00   0.00  -0.00     0.48   0.36  -0.13
  21   1     0.00   0.00   0.00     0.00   0.00   0.00    -0.09  -0.41  -0.28
  22   1     0.00  -0.00  -0.01    -0.00   0.00   0.00    -0.10   0.04   0.13
                     55                     56                     57
                        a                      a                      a 
 Frequencies --  3101.7296              3109.8380              3115.1290
 Red. masses --     1.7922                 1.8382                 1.8746
 Frc consts  --     0.0000                 0.0000                 0.0000
 IR Inten    --     2.0158                49.7840                81.7583
 Raman Activ --     0.0000                 0.0000                 0.0000
 Depolar     --     0.0000                 0.0000                 0.0000
 Atom AN      X      Y      Z        X      Y      Z        X      Y      Z
   1   7     0.00  -0.00  -0.00    -0.00   0.00  -0.00    -0.00   0.00   0.00
   2   6    -0.00   0.00   0.00     0.00   0.00  -0.00     0.00  -0.00  -0.00
   3   6    -0.00   0.00   0.00     0.00  -0.00   0.00     0.00  -0.00  -0.00
   4   6    -0.00   0.00   0.00    -0.01  -0.01   0.00     0.00  -0.00  -0.00
   5   6     0.02   0.08   0.05    -0.02  -0.11  -0.08    -0.03  -0.13  -0.09
   6   6     0.10  -0.04  -0.12    -0.04   0.01   0.05     0.06  -0.02  -0.08
   7   6    -0.00  -0.00  -0.00    -0.14  -0.10   0.04    -0.00   0.00   0.00
   8   6    -0.03  -0.13  -0.09    -0.01  -0.05  -0.03    -0.02  -0.09  -0.06
   9   6    -0.06   0.02   0.07    -0.08   0.03   0.10     0.10  -0.04  -0.13
  10  17    -0.00   0.00   0.00    -0.00   0.00  -0.00    -0.00   0.00   0.00
  11   1    -0.00   0.00   0.00     0.00  -0.00   0.00     0.00  -0.00  -0.00
  12   1     0.00   0.00  -0.00     0.00  -0.00  -0.00    -0.00  -0.00   0.00
  13   1    -0.00  -0.00   0.00     0.00   0.00   0.00     0.00   0.00  -0.00
  14   1     0.00  -0.00  -0.00     0.00  -0.00  -0.00    -0.00   0.00  -0.00
  15   1    -0.00  -0.00  -0.00     0.00  -0.00   0.00     0.00  -0.00   0.00
  16   1     0.00  -0.01  -0.00    -0.00   0.01   0.00    -0.00   0.01   0.00
  17   1     0.00   0.00  -0.01     0.00   0.00  -0.01    -0.00  -0.00   0.01
  18   1    -0.07  -0.29  -0.20     0.09   0.39   0.27     0.11   0.46   0.32
  19   1    -0.35   0.13   0.45     0.13  -0.05  -0.16    -0.21   0.08   0.27
  20   1     0.01   0.01  -0.00     0.47   0.35  -0.13     0.01   0.00  -0.00
  21   1     0.11   0.47   0.32     0.04   0.17   0.11     0.07   0.30   0.20
  22   1     0.22  -0.08  -0.27     0.29  -0.12  -0.37    -0.35   0.14   0.44
                     58                     59                     60
                        a                      a                      a 
 Frequencies --  3118.9120              3236.6300              3244.7966
 Red. masses --     1.9187                 2.0510                 1.4876
 Frc consts  --     0.0000                 0.0000                 0.0000
 IR Inten    --     5.0675                55.3086                24.2232
 Raman Activ --     0.0000                 0.0000                 0.0000
 Depolar     --     0.0000                 0.0000                 0.0000
 Atom AN      X      Y      Z        X      Y      Z        X      Y      Z
   1   7    -0.00   0.00  -0.00    -0.07   0.18   0.21    -0.02  -0.14   0.13
   2   6     0.00   0.00  -0.00    -0.00   0.01   0.01    -0.00  -0.01   0.01
   3   6    -0.00   0.00  -0.00     0.00  -0.00  -0.00     0.00   0.00  -0.00
   4   6     0.01   0.01  -0.00    -0.00   0.00   0.00     0.00  -0.00   0.00
   5   6     0.02   0.11   0.07    -0.00  -0.00  -0.00     0.00   0.00   0.00
   6   6    -0.07   0.03   0.10     0.00  -0.00  -0.00    -0.00   0.00   0.00
   7   6    -0.10  -0.08   0.03     0.00   0.00   0.00    -0.00  -0.00   0.00
   8   6    -0.02  -0.10  -0.07    -0.00  -0.00  -0.00    -0.00  -0.00  -0.00
   9   6     0.08  -0.03  -0.10     0.00  -0.00  -0.00     0.00  -0.00  -0.00
  10  17     0.00   0.00  -0.00     0.00  -0.00  -0.00    -0.00   0.00  -0.00
  11   1     0.00  -0.00   0.00    -0.01   0.02   0.02     0.04  -0.03   0.04
  12   1    -0.00   0.00   0.00     0.13  -0.01  -0.63     0.16  -0.05  -0.70
  13   1     0.00  -0.00  -0.00     0.13  -0.68  -0.17    -0.13   0.62   0.19
  14   1     0.00  -0.00  -0.00     0.00  -0.01  -0.01    -0.00   0.02   0.00
  15   1    -0.00   0.00   0.00     0.00  -0.00  -0.01     0.00  -0.00  -0.02
  16   1    -0.00  -0.00  -0.00     0.00   0.00   0.00    -0.00  -0.00  -0.00
  17   1    -0.00  -0.00   0.00    -0.00   0.00   0.00    -0.00  -0.00   0.00
  18   1    -0.08  -0.37  -0.25     0.00   0.00   0.00    -0.00  -0.00  -0.00
  19   1     0.25  -0.09  -0.32    -0.00  -0.00   0.00     0.00  -0.00  -0.00
  20   1     0.34   0.25  -0.09    -0.00  -0.00  -0.00     0.00   0.00  -0.00
  21   1     0.07   0.33   0.22    -0.00   0.00  -0.00     0.00   0.00   0.00
  22   1    -0.26   0.10   0.33    -0.00   0.00  -0.00    -0.00   0.00   0.00
