48
 energy: -82.571188761016 gnorm: 0.000666376177 xtb: 6.5.1 (fef0646)
N            1.73217184282642        1.01731636488044        0.27511522636418
C            2.80936693569409        0.25907100406243       -0.38572428269708
C            4.16249678980365        0.57506226582148        0.25301492953513
C            5.24639226907092       -0.30487954008198       -0.27370185426234
C            5.42428512028398       -0.79484284701278       -1.53600359013828
C            6.57045372633943       -1.59505114863491       -1.66632061341953
C            7.28169177355089       -1.72159411973604       -0.49775297259157
C            8.47655761558258       -2.45490440541575       -0.26414575790844
C            9.19008014046424       -2.57224562146969        0.90551913574942
C           10.32733975167923       -3.38314235623106        0.80805141318815
C           11.23376465209845       -3.63961178431233        1.95940215917305
C           10.49273257487953       -3.90136424763713       -0.47178841435614
C           11.50689147732570       -4.76098419472163       -0.96033518158179
C           11.68248545703731       -5.24002399697052       -2.25336117287488
C           10.88127352801600       -4.93796269621747       -3.35761309966484
N           10.25949729704820       -4.71759354614375       -4.30142628671732
C           12.81218996819685       -6.10750029081218       -2.38935052583660
C           13.11828171330004       -6.67672767414410       -3.62985625083711
N           13.31669047884229       -7.11474734032629       -4.67559358215238
C           13.50856508216744       -6.29758190637756       -1.20488660793338
C           14.66774349789159       -7.08838323625547       -0.97639533006092
C           15.35110155707271       -7.30460896170378        0.20976548139831
C           14.99328843626644       -6.72693456128214        1.53335917794605
C           16.45861338563819       -8.15977734061570        0.02626327124728
C           16.61517713598313       -8.57968750191230       -1.25557471511369
S           15.41230413782568       -7.95103503002032       -2.30747476215459
S           12.75507706325873       -5.39237748480747        0.07392192644416
S            9.21696736272186       -3.36707900848578       -1.54920648331563
S            6.51411524145922       -0.83378270356300        0.78366646429762
Cl          -0.81253185427955        0.48051427145674       -1.29467653581569
H            0.82030557821089        0.83682053990902       -0.22111899322418
H            1.90891322171575        2.02383659056508        0.22899196740957
H            1.62162468892639        0.73352238246568        1.25156245199932
H            2.80973430951747        0.51865641340146       -1.44309563052643
H            2.59038592450810       -0.80486564444793       -0.30295403003167
H            4.11065871209637        0.43689763783799        1.33365471627934
H            4.42990937730920        1.61707315478457        0.05836719402849
H            4.75809448181831       -0.59682110443487       -2.35501095774885
H            6.87841543599706       -2.07076602403069       -2.58161813568189
H            8.89003569330022       -2.08000092712904        1.81353856234802
H           10.88796363010461       -3.08805187198786        2.82784710827841
H           12.25120365000108       -3.33014052496440        1.72533558135194
H           11.25519287895636       -4.70117128273393        2.20153566709587
H           13.98230382697374       -7.01353945670317        1.81950275861947
H           15.03640978326453       -5.63897331873631        1.50336508694953
H           15.68667598809168       -7.08474006060824        2.28825617609812
H           17.11413950558483       -8.44981635888447        0.82662024289115
H           17.36689915557625       -9.22698050564711       -1.66010093205250
