 Entering Gaussian System
 *********************************************
 Gaussian 98:
 frequency output generated by the xtb code
 *********************************************
                         Standard orientation:
 --------------------------------------------------------------------
  Center     Atomic     Atomic              Coordinates (Angstroms)
  Number     Number      Type              X           Y           Z
 --------------------------------------------------------------------
    1          7             0       -2.281587    0.620932   -0.043493
    2          6             0       -1.472005   -0.476393   -0.650004
    3          6             0       -0.296284   -0.893108    0.221593
    4         16             0        0.899194    0.425976    0.427626
    5          6             0        2.305527   -0.248443   -0.419018
    6          1             0       -2.678825    0.332546    0.861889
    7          1             0       -3.066218    0.897805   -0.651941
    8          1             0       -1.706332    1.459249    0.123283
    9          1             0       -1.105727   -0.151247   -1.632516
   10          1             0       -2.128370   -1.336670   -0.843170
   11          1             0        0.207410   -1.773322   -0.186818
   12          1             0       -0.649512   -1.174325    1.217024
   13          1             0        2.066863   -0.457793   -1.459847
   14          1             0        2.640214   -1.164564    0.064193
   15          1             0        3.123111    0.470403   -0.391192
 --------------------------------------------------------------------
     1 basis functions        1 primitive gaussians
     1 alpha electrons        1 beta electrons

 Harmonic frequencies (cm**-1), IR intensities (km*mol⁻¹),
 Raman scattering activities (A**4/amu), Raman depolarization ratios,
 reduced masses (AMU), force constants (mDyne/A) and normal coordinates:
                      1                      2                      3
                        a                      a                      a 
 Frequencies --   -79.6030                75.1285               140.4053
 Red. masses --    14.0032                11.8375                 1.4181
 Frc consts  --     0.0000                 0.0000                 0.0000
 IR Inten    --    14.2289                32.3176                 0.0280
 Raman Activ --     0.0000                 0.0000                 0.0000
 Depolar     --     0.0000                 0.0000                 0.0000
 Atom AN      X      Y      Z        X      Y      Z        X      Y      Z
   1   7    -0.09  -0.07   0.31     0.51   0.26   0.01    -0.01   0.02  -0.04
   2   6    -0.12   0.08   0.00    -0.10  -0.21   0.08    -0.08  -0.09   0.07
   3   6     0.04  -0.01  -0.25     0.03  -0.26  -0.12     0.01   0.02   0.01
   4  16    -0.08   0.15  -0.45    -0.36  -0.07  -0.05     0.02   0.03  -0.05
   5   6     0.26  -0.18   0.47    -0.02   0.24   0.08     0.05   0.02   0.02
   6   1     0.03  -0.06   0.09     0.18   0.19   0.06     0.13   0.09   0.08
   7   1    -0.06  -0.01   0.13     0.12   0.11   0.05    -0.10  -0.11   0.05
   8   1    -0.04  -0.01   0.08     0.26   0.01  -0.11    -0.03   0.06  -0.19
   9   1    -0.07   0.08   0.00    -0.08  -0.17  -0.03    -0.05  -0.08  -0.01
  10   1    -0.03   0.02  -0.02    -0.12  -0.02   0.15    -0.03  -0.03   0.08
  11   1     0.01   0.04  -0.15     0.03  -0.03  -0.09    -0.00   0.00  -0.00
  12   1     0.06  -0.07  -0.07     0.05  -0.14  -0.04     0.02   0.01   0.01
  13   1     0.18  -0.14   0.13     0.01   0.01   0.03     0.19   0.49  -0.13
  14   1     0.03  -0.01   0.25     0.06   0.11   0.05    -0.31  -0.27  -0.29
  15   1     0.07  -0.04   0.15    -0.06   0.13  -0.00     0.18  -0.20   0.48
                      4                      5                      6
                        a                      a                      a 
 Frequencies --   153.3401               232.0052               295.7642
 Red. masses --     3.7623                12.2007                10.8578
 Frc consts  --     0.0000                 0.0000                 0.0000
 IR Inten    --     6.1982                 8.7212                 4.2405
 Raman Activ --     0.0000                 0.0000                 0.0000
 Depolar     --     0.0000                 0.0000                 0.0000
 Atom AN      X      Y      Z        X      Y      Z        X      Y      Z
   1   7     0.14  -0.04   0.07     0.31  -0.17   0.13     0.12  -0.02   0.10
   2   6     0.09  -0.04   0.04     0.28   0.04  -0.19     0.23   0.19  -0.11
   3   6    -0.00  -0.06   0.14     0.12   0.01  -0.04    -0.23  -0.09   0.35
   4  16    -0.14   0.09  -0.19    -0.22   0.34   0.06    -0.20  -0.25  -0.29
   5   6    -0.05  -0.01   0.00    -0.41  -0.30  -0.01     0.13   0.19   0.00
   6   1    -0.37  -0.17  -0.21     0.24  -0.07   0.10     0.18  -0.03   0.08
   7   1     0.33   0.35  -0.19    -0.03  -0.10   0.15    -0.07  -0.10   0.12
   8   1     0.19  -0.20   0.46     0.04  -0.00  -0.05    -0.04   0.06  -0.06
   9   1     0.08   0.02   0.04     0.11   0.09  -0.02     0.22   0.17   0.06
  10   1     0.02   0.01  -0.05     0.09   0.02  -0.14     0.06   0.10  -0.23
  11   1     0.00  -0.03   0.07     0.09   0.03   0.01    -0.11  -0.13   0.27
  12   1    -0.01   0.02   0.05    -0.01  -0.02  -0.03    -0.17   0.16   0.12
  13   1     0.06   0.14  -0.04    -0.17  -0.07   0.01     0.12   0.06  -0.02
  14   1    -0.14  -0.09  -0.08    -0.22  -0.12   0.01     0.08   0.07  -0.00
  15   1     0.04  -0.08   0.16    -0.02  -0.19  -0.04    -0.03   0.13   0.07
                      7                      8                      9
                        a                      a                      a 
 Frequencies --   407.0301               725.2628               788.2938
 Red. masses --     8.7901                12.3677                16.3960
 Frc consts  --     0.0000                 0.0000                 0.0000
 IR Inten    --     8.7974                24.5487                 9.7742
 Raman Activ --     0.0000                 0.0000                 0.0000
 Depolar     --     0.0000                 0.0000                 0.0000
 Atom AN      X      Y      Z        X      Y      Z        X      Y      Z
   1   7     0.21  -0.20   0.12    -0.05  -0.01  -0.04    -0.04   0.04   0.02
   2   6    -0.29  -0.20  -0.35    -0.22  -0.12  -0.05    -0.05  -0.04  -0.02
   3   6    -0.30   0.32  -0.08    -0.34  -0.45   0.14     0.00  -0.21  -0.07
   4  16     0.19   0.05   0.11     0.21   0.39   0.10     0.50  -0.06  -0.21
   5   6     0.08   0.02   0.02     0.18  -0.04  -0.09    -0.59   0.22   0.33
   6   1     0.14  -0.11   0.05     0.03   0.09   0.04    -0.02   0.04   0.01
   7   1     0.01   0.13   0.17    -0.02   0.09   0.05    -0.00   0.01  -0.01
   8   1     0.20  -0.15   0.06     0.13  -0.09  -0.09     0.01  -0.00  -0.02
   9   1    -0.18  -0.11  -0.15     0.17   0.13   0.13     0.01   0.04   0.02
  10   1    -0.08  -0.09   0.02    -0.09   0.06  -0.34    -0.03   0.02  -0.07
  11   1    -0.08  -0.01   0.21    -0.04  -0.02  -0.12    -0.07  -0.13   0.06
  12   1    -0.19   0.29  -0.00     0.01  -0.26   0.03     0.00   0.08   0.02
  13   1     0.02   0.00   0.01    -0.01  -0.02  -0.01    -0.10   0.08   0.07
  14   1     0.04   0.01   0.00     0.01  -0.02  -0.02    -0.09   0.07   0.07
  15   1     0.01   0.02  -0.00     0.09  -0.06  -0.07    -0.20   0.11   0.12
                     10                     11                     12
                        a                      a                      a 
 Frequencies --   801.3876               849.5623               901.3391
 Red. masses --     6.6742                 3.6796                 7.1202
 Frc consts  --     0.0000                 0.0000                 0.0000
 IR Inten    --    12.9991                22.8137                40.7349
 Raman Activ --     0.0000                 0.0000                 0.0000
 Depolar     --     0.0000                 0.0000                 0.0000
 Atom AN      X      Y      Z        X      Y      Z        X      Y      Z
   1   7    -0.09   0.19   0.12     0.17   0.06  -0.12    -0.34   0.29  -0.06
   2   6     0.06  -0.02  -0.12     0.06   0.11  -0.05    -0.01  -0.14  -0.29
   3   6     0.16  -0.44  -0.22    -0.26  -0.12   0.15     0.36  -0.05   0.25
   4  16    -0.05   0.18   0.11     0.11   0.10  -0.03    -0.04  -0.06  -0.02
   5   6     0.16   0.03  -0.04    -0.04  -0.02   0.02    -0.02  -0.02  -0.00
   6   1    -0.08  -0.03  -0.02     0.16  -0.46  -0.13     0.18  -0.15   0.03
   7   1    -0.01  -0.07  -0.04    -0.08  -0.10   0.08    -0.25   0.39   0.33
   8   1    -0.19   0.15   0.09    -0.31   0.19   0.28     0.11  -0.08   0.08
   9   1    -0.12  -0.07  -0.10    -0.00  -0.31  -0.13     0.03  -0.10  -0.08
  10   1    -0.10   0.05   0.10    -0.16   0.09   0.27     0.01  -0.05  -0.04
  11   1    -0.07  -0.37   0.33    -0.03   0.08  -0.16     0.20   0.04   0.08
  12   1    -0.12   0.32   0.01    -0.03  -0.23  -0.00     0.09  -0.07   0.05
  13   1    -0.08  -0.03   0.03     0.02   0.03  -0.01     0.03  -0.00  -0.01
  14   1    -0.10  -0.03   0.01     0.05   0.00  -0.02     0.01   0.00   0.00
  15   1     0.17  -0.14  -0.12    -0.05   0.05   0.03    -0.03   0.02   0.02
                     13                     14                     15
                        a                      a                      a 
 Frequencies --   952.1345               961.1265              1011.9452
 Red. masses --     4.9103                 3.1600                 7.5431
 Frc consts  --     0.0000                 0.0000                 0.0000
 IR Inten    --     8.3640                 0.6458                29.8532
 Raman Activ --     0.0000                 0.0000                 0.0000
 Depolar     --     0.0000                 0.0000                 0.0000
 Atom AN      X      Y      Z        X      Y      Z        X      Y      Z
   1   7    -0.02   0.15   0.20     0.00   0.01   0.03     0.02  -0.23  -0.27
   2   6     0.08  -0.21  -0.15     0.01  -0.01  -0.02    -0.15   0.39   0.25
   3   6    -0.01  -0.04  -0.04    -0.01  -0.02  -0.01     0.17  -0.18  -0.11
   4  16    -0.01   0.16   0.05     0.05  -0.00   0.12    -0.05   0.14   0.08
   5   6    -0.06  -0.34  -0.05    -0.14   0.08  -0.34    -0.02  -0.21  -0.07
   6   1    -0.14   0.15   0.02    -0.02   0.01   0.00     0.16  -0.14  -0.03
   7   1     0.07  -0.11  -0.11     0.01  -0.02  -0.02    -0.07   0.14   0.11
   8   1    -0.11   0.12  -0.00    -0.02   0.02  -0.00     0.18  -0.18  -0.04
   9   1    -0.04   0.02  -0.04    -0.01  -0.01  -0.01    -0.05   0.03   0.04
  10   1    -0.03  -0.02  -0.05    -0.01  -0.00   0.01     0.02   0.05   0.10
  11   1     0.20   0.05   0.12     0.02   0.00   0.01    -0.22  -0.22   0.03
  12   1    -0.14  -0.03  -0.06    -0.03  -0.02  -0.02     0.10   0.19   0.06
  13   1     0.21   0.10  -0.10     0.57  -0.32  -0.16     0.15   0.04  -0.07
  14   1     0.40  -0.02  -0.17    -0.31   0.19   0.43     0.21  -0.00  -0.07
  15   1    -0.36   0.30   0.22    -0.01  -0.02   0.25    -0.21   0.17   0.15
                     16                     17                     18
                        a                      a                      a 
 Frequencies --  1029.3634              1063.2191              1179.9681
 Red. masses --     4.8979                 7.5643                 4.4350
 Frc consts  --     0.0000                 0.0000                 0.0000
 IR Inten    --     9.8620                 9.4880                10.1783
 Raman Activ --     0.0000                 0.0000                 0.0000
 Depolar     --     0.0000                 0.0000                 0.0000
 Atom AN      X      Y      Z        X      Y      Z        X      Y      Z
   1   7    -0.20  -0.08   0.06    -0.14   0.20   0.01     0.00  -0.04   0.19
   2   6     0.38   0.21  -0.07     0.39  -0.35   0.20    -0.01   0.03  -0.40
   3   6    -0.20  -0.16   0.08    -0.27   0.12  -0.33     0.14   0.03   0.27
   4  16     0.06   0.06  -0.05    -0.02   0.04   0.05    -0.03   0.02   0.03
   5   6     0.01   0.02   0.01     0.01  -0.04  -0.02     0.00  -0.03  -0.01
   6   1    -0.04   0.20   0.09     0.07  -0.06   0.02    -0.13   0.16   0.04
   7   1     0.00   0.14   0.02    -0.10   0.15   0.13     0.09  -0.08  -0.10
   8   1     0.21  -0.17  -0.12     0.01   0.00   0.07    -0.02   0.03  -0.08
   9   1    -0.25  -0.07  -0.19     0.30  -0.12   0.12    -0.04  -0.13  -0.17
  10   1     0.28  -0.17   0.36     0.15  -0.11  -0.02    -0.04   0.01   0.03
  11   1    -0.06  -0.01  -0.06    -0.35  -0.10  -0.15    -0.51  -0.14  -0.31
  12   1    -0.33  -0.21  -0.13     0.12   0.17   0.02     0.39   0.03   0.19
  13   1    -0.02   0.01   0.01     0.03   0.00  -0.01     0.01  -0.00  -0.00
  14   1    -0.01  -0.00  -0.01     0.03   0.00  -0.01     0.02  -0.00  -0.01
  15   1     0.02  -0.01  -0.02    -0.04   0.03   0.02    -0.04   0.04   0.02
                     19                     20                     21
                        a                      a                      a 
 Frequencies --  1225.5758              1270.9101              1324.4720
 Red. masses --     3.0587                 3.0132                 3.6280
 Frc consts  --     0.0000                 0.0000                 0.0000
 IR Inten    --    14.4856                17.8666                12.0350
 Raman Activ --     0.0000                 0.0000                 0.0000
 Depolar     --     0.0000                 0.0000                 0.0000
 Atom AN      X      Y      Z        X      Y      Z        X      Y      Z
   1   7     0.17   0.17  -0.10    -0.04  -0.08  -0.01    -0.01  -0.10  -0.16
   2   6    -0.16  -0.19   0.05     0.03  -0.12   0.08     0.37  -0.20   0.08
   3   6     0.14   0.03   0.13     0.33   0.20   0.06    -0.12   0.02   0.03
   4  16     0.00   0.03  -0.01     0.00   0.02  -0.02    -0.01  -0.01   0.01
   5   6     0.01  -0.00  -0.01     0.01   0.01   0.00     0.01  -0.00  -0.01
   6   1     0.05  -0.15  -0.09    -0.00   0.05   0.03     0.04   0.11   0.02
   7   1    -0.04  -0.05   0.04    -0.01   0.05   0.02    -0.06   0.14   0.10
   8   1    -0.14   0.14   0.13     0.01  -0.03  -0.01    -0.07   0.00   0.09
   9   1    -0.35   0.42   0.05     0.15  -0.10   0.05    -0.51   0.37  -0.07
  10   1     0.37  -0.33  -0.12    -0.37   0.28  -0.07    -0.39   0.32  -0.03
  11   1    -0.30  -0.12  -0.11    -0.34  -0.15  -0.08     0.01   0.06  -0.05
  12   1    -0.19  -0.12  -0.07    -0.54  -0.21  -0.27     0.18   0.07   0.10
  13   1    -0.01  -0.00   0.00    -0.01  -0.01   0.00    -0.01  -0.00   0.00
  14   1    -0.01   0.00   0.00    -0.01  -0.01  -0.01    -0.01   0.00   0.01
  15   1    -0.01   0.01   0.01    -0.01   0.01  -0.00    -0.01   0.01   0.01
                     22                     23                     24
                        a                      a                      a 
 Frequencies --  1360.8321              1387.5181              1426.6092
 Red. masses --     2.6334                 2.9302                 1.6742
 Frc consts  --     0.0000                 0.0000                 0.0000
 IR Inten    --     6.5629               230.3750                63.0096
 Raman Activ --     0.0000                 0.0000                 0.0000
 Depolar     --     0.0000                 0.0000                 0.0000
 Atom AN      X      Y      Z        X      Y      Z        X      Y      Z
   1   7    -0.02   0.04   0.01    -0.19   0.31   0.09    -0.19  -0.07   0.03
   2   6     0.00   0.00  -0.00     0.10  -0.05   0.03    -0.02  -0.01  -0.00
   3   6    -0.00   0.00  -0.01    -0.01   0.04   0.01    -0.03   0.09  -0.04
   4  16     0.03  -0.01  -0.01    -0.01  -0.00   0.00     0.00   0.01  -0.00
   5   6     0.31  -0.12  -0.18    -0.03   0.01   0.02     0.00   0.03  -0.01
   6   1     0.02  -0.03   0.00     0.16  -0.38  -0.05     0.54  -0.03   0.24
   7   1     0.00  -0.06  -0.03     0.02  -0.48  -0.27     0.40   0.27  -0.41
   8   1     0.05  -0.03   0.01     0.47  -0.29  -0.05    -0.18   0.09   0.03
   9   1     0.00  -0.01  -0.00    -0.15   0.04  -0.05    -0.02   0.02  -0.00
  10   1    -0.01   0.01  -0.00    -0.10   0.09  -0.07     0.02  -0.02  -0.01
  11   1     0.02   0.00   0.02    -0.03  -0.02   0.01    -0.05  -0.12   0.22
  12   1     0.00  -0.01  -0.00     0.03  -0.03   0.01     0.13  -0.24  -0.02
  13   1    -0.50   0.11   0.08     0.05  -0.00  -0.01    -0.02  -0.09   0.02
  14   1    -0.42   0.00   0.31     0.05   0.00  -0.03     0.01  -0.02  -0.06
  15   1    -0.30   0.36   0.28     0.03  -0.04  -0.03     0.00  -0.00   0.06
                     25                     26                     27
                        a                      a                      a 
 Frequencies --  1429.9704              1439.3503              1452.1139
 Red. masses --     1.6641                 1.7671                 1.6106
 Frc consts  --     0.0000                 0.0000                 0.0000
 IR Inten    --    80.0790                38.2359                12.1347
 Raman Activ --     0.0000                 0.0000                 0.0000
 Depolar     --     0.0000                 0.0000                 0.0000
 Atom AN      X      Y      Z        X      Y      Z        X      Y      Z
   1   7    -0.01   0.01  -0.20     0.09   0.01   0.02     0.01  -0.01  -0.00
   2   6    -0.05   0.03  -0.06     0.03   0.02  -0.02     0.01   0.01   0.01
   3   6    -0.00   0.04  -0.02    -0.07   0.17  -0.10    -0.01   0.04  -0.01
   4  16    -0.00   0.00   0.00     0.01   0.02  -0.00    -0.01  -0.01  -0.01
   5   6    -0.00   0.00   0.01     0.02   0.10  -0.02    -0.11  -0.08  -0.18
   6   1     0.13   0.46   0.18    -0.28  -0.07  -0.15    -0.02   0.02  -0.00
   7   1    -0.16  -0.34   0.03    -0.14  -0.02   0.19    -0.02  -0.00   0.02
   8   1     0.06  -0.18   0.67     0.05   0.01  -0.16    -0.00   0.00   0.01
   9   1     0.08  -0.02   0.01     0.00   0.04   0.01    -0.01  -0.03  -0.02
  10   1     0.03  -0.03   0.05    -0.02   0.02   0.06     0.01   0.00  -0.03
  11   1    -0.03  -0.07   0.13    -0.08  -0.24   0.44    -0.03  -0.05   0.08
  12   1     0.08  -0.13  -0.01     0.26  -0.47  -0.04     0.04  -0.09  -0.01
  13   1     0.03  -0.01  -0.00    -0.07  -0.30   0.08    -0.28   0.28  -0.01
  14   1    -0.01  -0.02  -0.02     0.01  -0.09  -0.20     0.45   0.37   0.37
  15   1    -0.01   0.01  -0.03    -0.01   0.01   0.19     0.27  -0.33   0.33
                     28                     29                     30
                        a                      a                      a 
 Frequencies --  1453.3849              1468.3473              2933.3139
 Red. masses --     1.6236                 1.8796                 1.9239
 Frc consts  --     0.0000                 0.0000                 0.0000
 IR Inten    --     5.2778                25.3210                 1.4319
 Raman Activ --     0.0000                 0.0000                 0.0000
 Depolar     --     0.0000                 0.0000                 0.0000
 Atom AN      X      Y      Z        X      Y      Z        X      Y      Z
   1   7    -0.02   0.01  -0.02     0.02  -0.01  -0.00     0.00  -0.00  -0.00
   2   6    -0.01  -0.01   0.01     0.06   0.12   0.25    -0.18  -0.22   0.06
   3   6     0.03  -0.09   0.05    -0.01   0.02  -0.01    -0.00   0.01  -0.01
   4  16    -0.00   0.01  -0.01    -0.00  -0.00  -0.00     0.00   0.00  -0.00
   5   6     0.00   0.18  -0.09     0.01   0.00   0.01    -0.00  -0.00  -0.00
   6   1     0.06   0.04   0.04    -0.04   0.07   0.01    -0.00  -0.00   0.01
   7   1     0.01  -0.03  -0.03    -0.02   0.02   0.05     0.00   0.00  -0.00
   8   1     0.01  -0.02   0.08    -0.04   0.03   0.04    -0.01  -0.01  -0.00
   9   1     0.00  -0.03  -0.01    -0.33  -0.51  -0.28     0.12   0.10  -0.37
  10   1     0.01  -0.01  -0.03     0.17   0.03  -0.65     0.51   0.68   0.15
  11   1     0.05   0.13  -0.24    -0.00  -0.02   0.05     0.02  -0.03  -0.02
  12   1    -0.14   0.25   0.02     0.01  -0.04  -0.01    -0.02  -0.02   0.07
  13   1    -0.24  -0.55   0.16     0.02  -0.01  -0.00     0.00   0.00   0.01
  14   1     0.16  -0.08  -0.30    -0.03  -0.02  -0.02    -0.00  -0.00  -0.00
  15   1     0.07  -0.08   0.51    -0.02   0.02  -0.03     0.00   0.00  -0.00
                     31                     32                     33
                        a                      a                      a 
 Frequencies --  2956.2890              2967.7426              2977.2119
 Red. masses --     1.8307                 1.7208                 1.5295
 Frc consts  --     0.0000                 0.0000                 0.0000
 IR Inten    --     2.3069                 1.1869                 3.3470
 Raman Activ --     0.0000                 0.0000                 0.0000
 Depolar     --     0.0000                 0.0000                 0.0000
 Atom AN      X      Y      Z        X      Y      Z        X      Y      Z
   1   7     0.00  -0.00  -0.00    -0.00   0.00  -0.00    -0.00   0.00   0.00
   2   6     0.00  -0.01  -0.11    -0.02   0.01   0.19    -0.01  -0.02   0.04
   3   6    -0.12   0.06   0.21    -0.08   0.07   0.13     0.05  -0.19   0.07
   4  16    -0.00  -0.00   0.00    -0.00   0.00   0.00    -0.00  -0.00  -0.00
   5   6    -0.00  -0.01   0.00    -0.01  -0.01  -0.00     0.01   0.00  -0.00
   6   1     0.01   0.00  -0.01    -0.01  -0.01   0.02     0.00  -0.00  -0.00
   7   1     0.00  -0.00  -0.00     0.00   0.00   0.00     0.00  -0.00   0.00
   8   1    -0.00  -0.00  -0.00     0.00   0.01   0.00    -0.00  -0.00   0.00
   9   1    -0.16  -0.14   0.40     0.26   0.23  -0.65     0.05   0.04  -0.13
  10   1     0.16   0.21   0.03    -0.21  -0.27  -0.03     0.01   0.01   0.01
  11   1     0.21  -0.37  -0.16     0.19  -0.33  -0.15    -0.35   0.58   0.31
  12   1     0.21   0.17  -0.61     0.10   0.09  -0.30     0.21   0.13  -0.56
  13   1     0.00  -0.00   0.00     0.00   0.00   0.01     0.00   0.00   0.01
  14   1    -0.00   0.01  -0.01    -0.00   0.01  -0.00    -0.00   0.01  -0.00
  15   1     0.01   0.01   0.00     0.02   0.02   0.00    -0.02  -0.02  -0.00
                     34                     35                     36
                        a                      a                      a 
 Frequencies --  3012.2817              3017.6055              3033.0882
 Red. masses --     1.9870                 1.6107                 1.5774
 Frc consts  --     0.0000                 0.0000                 0.0000
 IR Inten    --     6.2738                 4.9041                 0.0755
 Raman Activ --     0.0000                 0.0000                 0.0000
 Depolar     --     0.0000                 0.0000                 0.0000
 Atom AN      X      Y      Z        X      Y      Z        X      Y      Z
   1   7     0.00   0.00  -0.00     0.00   0.00   0.00     0.00   0.00  -0.00
   2   6    -0.00  -0.00   0.00     0.00   0.00  -0.00    -0.00  -0.00  -0.00
   3   6    -0.00   0.00  -0.00     0.00  -0.00  -0.01     0.00  -0.01  -0.00
   4  16     0.00  -0.00   0.00     0.00  -0.00  -0.00    -0.00  -0.00   0.00
   5   6     0.09  -0.13   0.25    -0.04  -0.21  -0.10    -0.19  -0.13   0.00
   6   1    -0.00  -0.00   0.00     0.00   0.00  -0.00    -0.00   0.00   0.00
   7   1     0.00  -0.00   0.00     0.00   0.00   0.00    -0.00   0.00  -0.00
   8   1    -0.00  -0.00  -0.00    -0.00  -0.00  -0.00    -0.00  -0.00  -0.00
   9   1     0.00   0.00  -0.01    -0.00  -0.00   0.01    -0.00  -0.00   0.01
  10   1     0.00   0.00   0.00    -0.00   0.00  -0.00     0.00   0.00   0.00
  11   1     0.00  -0.00   0.00    -0.00   0.01   0.00    -0.02   0.03   0.01
  12   1    -0.00   0.00   0.00    -0.01  -0.00   0.02     0.00   0.00  -0.01
  13   1    -0.16  -0.15  -0.62     0.16   0.10   0.67    -0.05  -0.04  -0.12
  14   1    -0.20   0.59  -0.30    -0.20   0.53  -0.32     0.03  -0.16   0.07
  15   1     0.04   0.00   0.04     0.15   0.11  -0.00     0.70   0.63   0.03
                     37                     38                     39
                        a                      a                      a 
 Frequencies --  3206.4264              3216.8720              3236.0899
 Red. masses --     2.0251                 2.0166                 1.3213
 Frc consts  --     0.0000                 0.0000                 0.0000
 IR Inten    --   103.5719                85.2101                33.5694
 Raman Activ --     0.0000                 0.0000                 0.0000
 Depolar     --     0.0000                 0.0000                 0.0000
 Atom AN      X      Y      Z        X      Y      Z        X      Y      Z
   1   7     0.22   0.16   0.06     0.04  -0.14   0.24     0.11  -0.06  -0.10
   2   6     0.00   0.01   0.00    -0.00  -0.00   0.01     0.00  -0.01  -0.01
   3   6    -0.00  -0.00   0.00    -0.00   0.00  -0.00    -0.00  -0.00   0.00
   4  16    -0.00  -0.00   0.00     0.00  -0.00  -0.00     0.00   0.00  -0.00
   5   6     0.00   0.00  -0.00     0.00  -0.00   0.00    -0.00  -0.00  -0.00
   6   1    -0.04  -0.03   0.15     0.24   0.18  -0.53    -0.27  -0.23   0.65
   7   1    -0.31   0.13  -0.26    -0.54   0.17  -0.41    -0.38   0.13  -0.32
   8   1    -0.47  -0.69  -0.13     0.15   0.19   0.06     0.24   0.33   0.05
   9   1    -0.00  -0.00   0.00     0.01   0.01  -0.01    -0.01  -0.00   0.01
  10   1    -0.01  -0.01  -0.00     0.00   0.00  -0.00     0.00   0.01   0.00
  11   1     0.00  -0.00  -0.00     0.00  -0.00  -0.00    -0.00   0.00   0.00
  12   1     0.00   0.00  -0.00    -0.00   0.00  -0.00     0.00  -0.00  -0.00
  13   1    -0.00  -0.00  -0.00    -0.00  -0.00  -0.00     0.00   0.00   0.00
  14   1    -0.00  -0.00   0.00    -0.00   0.00  -0.00    -0.00   0.00  -0.00
  15   1    -0.00  -0.00  -0.00     0.00   0.00  -0.00    -0.00  -0.00   0.00
