      -----------------------------------------------------------      
     |                   =====================                   |     
     |                           x T B                           |     
     |                   =====================                   |     
     |                         S. Grimme                         |     
     |          Mulliken Center for Theoretical Chemistry        |     
     |                    University of Bonn                     |     
      -----------------------------------------------------------      

   * xtb version 6.5.1 (fef0646) compiled by 'conda@b96dff2e9fd6' on 2023-01-04

   xtb is free software: you can redistribute it and/or modify it under
   the terms of the GNU Lesser General Public License as published by
   the Free Software Foundation, either version 3 of the License, or
   (at your option) any later version.
   
   xtb is distributed in the hope that it will be useful,
   but WITHOUT ANY WARRANTY; without even the implied warranty of
   MERCHANTABILITY or FITNESS FOR A PARTICULAR PURPOSE.  See the
   GNU Lesser General Public License for more details.
   
   Cite this work as:
   * C. Bannwarth, E. Caldeweyher, S. Ehlert, A. Hansen, P. Pracht,
     J. Seibert, S. Spicher, S. Grimme, WIREs Comput. Mol. Sci., 2020, 11,
     e01493. DOI: 10.1002/wcms.1493
   
   for GFN2-xTB:
   * C. Bannwarth, S. Ehlert and S. Grimme., J. Chem. Theory Comput., 2019,
     15, 1652-1671. DOI: 10.1021/acs.jctc.8b01176
   for GFN1-xTB:
   * S. Grimme, C. Bannwarth, P. Shushkov, J. Chem. Theory Comput., 2017,
     13, 1989-2009. DOI: 10.1021/acs.jctc.7b00118
   for GFN0-xTB:
   * P. Pracht, E. Caldeweyher, S. Ehlert, S. Grimme, ChemRxiv, 2019, preprint.
     DOI: 10.26434/chemrxiv.8326202.v1
   for GFN-FF:
   * S. Spicher and S. Grimme, Angew. Chem. Int. Ed., 2020, 59, 15665-15673.
     DOI: 10.1002/anie.202004239
   
   for ALPB and GBSA implicit solvation:
   * S. Ehlert, M. Stahn, S. Spicher, S. Grimme, J. Chem. Theory Comput.,
     2021, 17, 4250-4261. DOI: 10.1021/acs.jctc.1c00471
   
   for DFT-D4:
   * E. Caldeweyher, C. Bannwarth and S. Grimme, J. Chem. Phys., 2017,
     147, 034112. DOI: 10.1063/1.4993215
   * E. Caldeweyher, S. Ehlert, A. Hansen, H. Neugebauer, S. Spicher,
     C. Bannwarth and S. Grimme, J. Chem. Phys., 2019, 150, 154122.
     DOI: 10.1063/1.5090222
   * E. Caldeweyher, J.-M. Mewes, S. Ehlert and S. Grimme, Phys. Chem. Chem. Phys.
     2020, 22, 8499-8512. DOI: 10.1039/D0CP00502A
   
   for sTDA-xTB:
   * S. Grimme and C. Bannwarth, J. Chem. Phys., 2016, 145, 054103.
     DOI: 10.1063/1.4959605
   
   in the mass-spec context:
   * V. Asgeirsson, C. Bauer and S. Grimme, Chem. Sci., 2017, 8, 4879.
     DOI: 10.1039/c7sc00601b
   * J. Koopman and S. Grimme, ACS Omega 2019, 4, 12, 15120-15133.
     DOI: 10.1021/acsomega.9b02011
   
   for metadynamics refer to:
   * S. Grimme, J. Chem. Theory Comput., 2019, 155, 2847-2862
     DOI: 10.1021/acs.jctc.9b00143
   
   for SPH calculations refer to:
   * S. Spicher and S. Grimme, J. Chem. Theory Comput., 2021, 17, 1701-1714
     DOI: 10.1021/acs.jctc.0c01306
   
   with help from (in alphabetical order)
   P. Atkinson, C. Bannwarth, F. Bohle, G. Brandenburg, E. Caldeweyher
   M. Checinski, S. Dohm, S. Ehlert, S. Ehrlich, I. Gerasimov, C. Hölzer
   A. Katbashev, J. Koopman, C. Lavigne, S. Lehtola, F. März, M. Müller,
   F. Musil, H. Neugebauer, J. Pisarek, C. Plett, P. Pracht, F. Pultar,
   J. Seibert, P. Shushkov, S. Spicher, M. Stahn, M. Steiner, T. Strunk,
   J. Stückrath, T. Rose, and J. Unsleber
   
 * started run on 2023/01/23 at 13:58:51.750     

           -------------------------------------------------
          |                Calculation Setup                |
           -------------------------------------------------

          program call               : xtb init.xyz --opt -c 1 -u 0 -P 16
          hostname                   : gpg-woodward
          coordinate file            : init.xyz
          omp threads                :                    16

   ID    Z sym.   atoms
    1    7 N      1, 24, 26
    2    6 C      2-21, 23, 27
    3   16 S      22, 25, 28, 29
    4    1 H      30-49

           -------------------------------------------------
          |                 G F N 2 - x T B                 |
           -------------------------------------------------

        Reference                      10.1021/acs.jctc.8b01176
      * Hamiltonian:
        H0-scaling (s, p, d)           1.850000    2.230000    2.230000
        zeta-weighting                 0.500000
      * Dispersion:
        s8                             2.700000
        a1                             0.520000
        a2                             5.000000
        s9                             5.000000
      * Repulsion:
        kExp                           1.500000    1.000000
        rExp                           1.000000
      * Coulomb:
        alpha                          2.000000
        third order                    shell-resolved
        anisotropic                    true
        a3                             3.000000
        a5                             4.000000
        cn-shift                       1.200000
        cn-exp                         4.000000
        max-rad                        5.000000


          ...................................................
          :                      SETUP                      :
          :.................................................:
          :  # basis functions                 160          :
          :  # atomic orbitals                 156          :
          :  # shells                           82          :
          :  # electrons                       146          :
          :  max. iterations                   250          :
          :  Hamiltonian                  GFN2-xTB          :
          :  restarted?                      false          :
          :  GBSA solvation                  false          :
          :  PC potential                    false          :
          :  electronic temp.          300.0000000     K    :
          :  accuracy                    1.0000000          :
          :  -> integral cutoff          0.2500000E+02      :
          :  -> integral neglect         0.1000000E-07      :
          :  -> SCF convergence          0.1000000E-05 Eh   :
          :  -> wf. convergence          0.1000000E-03 e    :
          :  Broyden damping             0.4000000          :
          ...................................................

 iter      E             dE          RMSdq      gap      omega  full diag
   1    -79.4659012 -0.794659E+02  0.386E+00    1.86       0.0  T
   2    -79.6318840 -0.165983E+00  0.253E+00    1.54       1.0  T
   3    -79.6413988 -0.951486E-02  0.141E+00    1.60       1.0  T
   4    -79.6650657 -0.236669E-01  0.737E-01    1.43       1.0  T
   5    -79.6753818 -0.103161E-01  0.291E-01    1.44       1.0  T
   6    -79.6777797 -0.239793E-02  0.112E-01    1.45       1.0  T
   7    -79.6778677 -0.879057E-04  0.431E-02    1.46       1.0  T
   8    -79.6778939 -0.262090E-04  0.224E-02    1.46       1.0  T
   9    -79.6779041 -0.101978E-04  0.113E-02    1.46       1.3  T
  10    -79.6779049 -0.884795E-06  0.618E-03    1.46       2.3  T
  11    -79.6779062 -0.122399E-05  0.314E-03    1.46       4.5  T
  12    -79.6779063 -0.147393E-06  0.159E-03    1.46       9.0  T
  13    -79.6779063 -0.303939E-07  0.800E-04    1.46      17.9  T
  14    -79.6779064 -0.201003E-07  0.325E-04    1.46      44.0  T

   *** convergence criteria satisfied after 14 iterations ***

         #    Occupation            Energy/Eh            Energy/eV
      -------------------------------------------------------------
         1        2.0000           -0.8845612             -24.0701
       ...           ...                  ...                  ...
        67        2.0000           -0.4703273             -12.7983
        68        2.0000           -0.4670112             -12.7080
        69        2.0000           -0.4622464             -12.5784
        70        2.0000           -0.4612275             -12.5506
        71        2.0000           -0.4475088             -12.1773
        72        2.0000           -0.4345464             -11.8246
        73        2.0000           -0.4237664             -11.5313 (HOMO)
        74                         -0.3700981             -10.0709 (LUMO)
        75                         -0.3590108              -9.7692
        76                         -0.3182926              -8.6612
        77                         -0.3129995              -8.5171
        78                         -0.2988228              -8.1314
       ...                                ...                  ...
       156                          0.6292107              17.1217
      -------------------------------------------------------------
                  HL-Gap            0.0536683 Eh            1.4604 eV
             Fermi-level           -0.3969322 Eh          -10.8011 eV

 SCC (total)                   0 d,  0 h,  0 min,  0.381 sec
 SCC setup                      ...        0 min,  0.000 sec (  0.112%)
 Dispersion                     ...        0 min,  0.001 sec (  0.367%)
 classical contributions        ...        0 min,  0.000 sec (  0.033%)
 integral evaluation            ...        0 min,  0.006 sec (  1.493%)
 iterations                     ...        0 min,  0.358 sec ( 93.850%)
 molecular gradient             ...        0 min,  0.013 sec (  3.487%)
 printout                       ...        0 min,  0.002 sec (  0.550%)

         :::::::::::::::::::::::::::::::::::::::::::::::::::::
         ::                     SUMMARY                     ::
         :::::::::::::::::::::::::::::::::::::::::::::::::::::
         :: total energy             -78.612142502430 Eh    ::
         :: gradient norm              0.104477788112 Eh/a0 ::
         :: HOMO-LUMO gap              1.460387796369 eV    ::
         ::.................................................::
         :: SCC energy               -79.677906368212 Eh    ::
         :: -> isotropic ES            0.121379631194 Eh    ::
         :: -> anisotropic ES         -0.011598641836 Eh    ::
         :: -> anisotropic XC          0.044055160329 Eh    ::
         :: -> dispersion             -0.063859968141 Eh    ::
         :: repulsion energy           1.066189502316 Eh    ::
         :: add. restraining           0.000000000000 Eh    ::
         :: total charge               1.000000000000 e     ::
         :::::::::::::::::::::::::::::::::::::::::::::::::::::

      ----------------------------------------------------------- 
     |                   =====================                   |
     |                        A N C O P T                        |
     |                   =====================                   |
     |               Approximate Normal Coordinate               |
     |                Rational Function Optimizer                |
      ----------------------------------------------------------- 

          ...................................................
          :                      SETUP                      :
          :.................................................:
          :   optimization level            normal          :
          :   max. optcycles                   200          :
          :   ANC micro-cycles                  20          :
          :   degrees of freedom               141          :
          :.................................................:
          :   RF solver                   davidson          :
          :   write xtbopt.log                true          :
          :   linear?                        false          :
          :   energy convergence         0.5000000E-05 Eh   :
          :   grad. convergence          0.1000000E-02 Eh/α :
          :   maximium RF displ.         1.0000000          :
          :   Hlow (freq-cutoff)         0.1000000E-01      :
          :   Hmax (freq-cutoff)         5.0000000          :
          :   S6 in model hess.         20.0000000          :
          ...................................................

generating ANC from model Hessian ...
Using Lindh-Hessian (1995)
 Shifting diagonal of input Hessian by    9.9063947662093241E-003
 Lowest  eigenvalues of input Hessian
    0.000000    0.000000    0.000000    0.000000    0.000000    0.000000
    0.010000    0.010217    0.010277    0.010554    0.010571    0.011127
    0.011623    0.011925    0.012601    0.013169    0.014242    0.014762
 Highest eigenvalues
    1.812937    1.821885    1.834837    1.920579    1.934920    1.967282


........................................................................
.............................. CYCLE    1 ..............................
........................................................................
   1    -79.6779064 -0.796779E+02  0.136E-04    1.46       0.0  T
   2    -79.6779064 -0.947864E-10  0.100E-04    1.46     142.8  T
   3    -79.6779064 -0.203030E-09  0.579E-05    1.46     246.9  T
     SCC iter.                  ...        0 min,  0.067 sec
     gradient                   ...        0 min,  0.015 sec
 * total energy  :   -78.6121425 Eh     change       -0.1385899E-08 Eh
   gradient norm :     0.1044775 Eh/α   predicted     0.0000000E+00 (-100.00%)
   displ. norm   :     0.4091342 α      lambda       -0.2248426E-01
   maximum displ.:     0.1730285 α      in ANC's #28, #14, #27, ...

........................................................................
.............................. CYCLE    2 ..............................
........................................................................
   1    -79.7415789 -0.797416E+02  0.216E-01    1.46       0.0  T
   2    -79.7417076 -0.128700E-03  0.134E-01    1.48       1.0  T
   3    -79.7416203  0.873511E-04  0.780E-02    1.47       1.0  T
   4    -79.7417961 -0.175845E-03  0.284E-02    1.48       1.0  T
   5    -79.7418104 -0.142458E-04  0.143E-02    1.48       1.0  T
   6    -79.7418164 -0.605007E-05  0.597E-03    1.48       2.4  T
   7    -79.7418166 -0.221069E-06  0.350E-03    1.48       4.1  T
   8    -79.7418169 -0.262585E-06  0.166E-03    1.48       8.6  T
   9    -79.7418169 -0.508142E-07  0.785E-04    1.48      18.2  T
  10    -79.7418169 -0.821235E-08  0.367E-04    1.48      38.9  T
     SCC iter.                  ...        0 min,  0.226 sec
     gradient                   ...        0 min,  0.014 sec
 * total energy  :   -78.6283585 Eh     change       -0.1621601E-01 Eh
   gradient norm :     0.0525165 Eh/α   predicted    -0.1312562E-01 ( -19.06%)
   displ. norm   :     0.4449360 α      lambda       -0.9713391E-02
   maximum displ.:     0.2053404 α      in ANC's #14, #28, #27, ...

........................................................................
.............................. CYCLE    3 ..............................
........................................................................
   1    -79.7826228 -0.797826E+02  0.183E-01    1.44       0.0  T
   2    -79.7827263 -0.103481E-03  0.113E-01    1.47       1.0  T
   3    -79.7827069  0.193941E-04  0.709E-02    1.46       1.0  T
   4    -79.7828365 -0.129657E-03  0.242E-02    1.47       1.0  T
   5    -79.7828443 -0.772920E-05  0.119E-02    1.47       1.2  T
   6    -79.7828495 -0.527457E-05  0.437E-03    1.47       3.3  T
   7    -79.7828496 -0.108585E-06  0.268E-03    1.47       5.3  T
   8    -79.7828497 -0.109002E-06  0.141E-03    1.47      10.1  T
   9    -79.7828498 -0.425331E-07  0.649E-04    1.47      22.0  T
  10    -79.7828498 -0.297165E-08  0.316E-04    1.47      45.2  T
     SCC iter.                  ...        0 min,  0.214 sec
     gradient                   ...        0 min,  0.015 sec
 * total energy  :   -78.6343383 Eh     change       -0.5979781E-02 Eh
   gradient norm :     0.0218539 Eh/α   predicted    -0.5818166E-02 (  -2.70%)
   displ. norm   :     0.3711500 α      lambda       -0.2688796E-02
   maximum displ.:     0.1910114 α      in ANC's #14, #5, #18, ...

........................................................................
.............................. CYCLE    4 ..............................
........................................................................
   1    -79.7896642 -0.797897E+02  0.112E-01    1.43       0.0  T
   2    -79.7896928 -0.286089E-04  0.662E-02    1.45       1.0  T
   3    -79.7896726  0.201653E-04  0.442E-02    1.44       1.0  T
   4    -79.7897290 -0.563447E-04  0.122E-02    1.45       1.2  T
   5    -79.7897310 -0.207820E-05  0.592E-03    1.45       2.4  T
   6    -79.7897323 -0.129508E-05  0.200E-03    1.45       7.2  T
   7    -79.7897324 -0.508319E-07  0.127E-03    1.45      11.3  T
   8    -79.7897324 -0.394462E-07  0.593E-04    1.45      24.1  T
   9    -79.7897324 -0.159669E-08  0.357E-04    1.45      40.0  T
     SCC iter.                  ...        0 min,  0.191 sec
     gradient                   ...        0 min,  0.013 sec
 * total energy  :   -78.6363605 Eh     change       -0.2022215E-02 Eh
   gradient norm :     0.0148471 Eh/α   predicted    -0.1529734E-02 ( -24.35%)
   displ. norm   :     0.4938231 α      lambda       -0.2256091E-02
   maximum displ.:     0.2423483 α      in ANC's #5, #14, #16, ...

........................................................................
.............................. CYCLE    5 ..............................
........................................................................
   1    -79.7899263 -0.797899E+02  0.119E-01    1.41       0.0  T
   2    -79.7899587 -0.324031E-04  0.708E-02    1.42       1.0  T
   3    -79.7899308  0.279400E-04  0.465E-02    1.42       1.0  T
   4    -79.7899938 -0.629697E-04  0.127E-02    1.42       1.1  T
   5    -79.7899965 -0.271191E-05  0.598E-03    1.42       2.4  T
   6    -79.7899978 -0.126609E-05  0.199E-03    1.42       7.2  T
   7    -79.7899978 -0.476011E-07  0.122E-03    1.42      11.7  T
   8    -79.7899978 -0.335252E-07  0.597E-04    1.42      23.9  T
   9    -79.7899978 -0.435406E-09  0.385E-04    1.42      37.1  T
     SCC iter.                  ...        0 min,  0.188 sec
     gradient                   ...        0 min,  0.015 sec
 * total energy  :   -78.6379999 Eh     change       -0.1639426E-02 Eh
   gradient norm :     0.0126062 Eh/α   predicted    -0.1403131E-02 ( -14.41%)
   displ. norm   :     0.4776704 α      lambda       -0.1404267E-02
   maximum displ.:     0.2686205 α      in ANC's #5, #4, #14, ...

........................................................................
.............................. CYCLE    6 ..............................
........................................................................
   1    -79.7885640 -0.797886E+02  0.901E-02    1.40       0.0  T
   2    -79.7885814 -0.173732E-04  0.520E-02    1.40       1.0  T
   3    -79.7885605  0.209387E-04  0.309E-02    1.40       1.0  T
   4    -79.7885914 -0.309405E-04  0.885E-03    1.40       1.6  T
   5    -79.7885928 -0.141231E-05  0.396E-03    1.40       3.6  T
   6    -79.7885934 -0.602758E-06  0.149E-03    1.40       9.6  T
   7    -79.7885935 -0.325769E-07  0.785E-04    1.40      18.2  T
   8    -79.7885935 -0.105696E-07  0.419E-04    1.40      34.1  T
     SCC iter.                  ...        0 min,  0.162 sec
     gradient                   ...        0 min,  0.014 sec
 * total energy  :   -78.6391108 Eh     change       -0.1110853E-02 Eh
   gradient norm :     0.0147064 Eh/α   predicted    -0.8623389E-03 ( -22.37%)
   displ. norm   :     0.5121390 α      lambda       -0.1377049E-02
   maximum displ.:     0.3011129 α      in ANC's #5, #4, #16, ...

........................................................................
.............................. CYCLE    7 ..............................
........................................................................
   1    -79.7890722 -0.797891E+02  0.860E-02    1.39       0.0  T
   2    -79.7890868 -0.145513E-04  0.489E-02    1.39       1.0  T
   3    -79.7890731  0.136816E-04  0.214E-02    1.39       1.0  T
   4    -79.7890908 -0.176831E-04  0.668E-03    1.39       2.1  T
   5    -79.7890919 -0.112401E-05  0.270E-03    1.39       5.3  T
   6    -79.7890920 -0.143510E-06  0.117E-03    1.39      12.2  T
   7    -79.7890921 -0.352157E-07  0.616E-04    1.39      23.2  T
   8    -79.7890921 -0.114771E-07  0.277E-04    1.39      51.7  T
     SCC iter.                  ...        0 min,  0.162 sec
     gradient                   ...        0 min,  0.015 sec
 * total energy  :   -78.6402311 Eh     change       -0.1120312E-02 Eh
   gradient norm :     0.0137594 Eh/α   predicted    -0.8691153E-03 ( -22.42%)
   displ. norm   :     0.5269412 α      lambda       -0.1322395E-02
   maximum displ.:     0.3217955 α      in ANC's #5, #4, #23, ...

........................................................................
.............................. CYCLE    8 ..............................
........................................................................
   1    -79.7918190 -0.797918E+02  0.879E-02    1.39       0.0  T
   2    -79.7918315 -0.124515E-04  0.501E-02    1.39       1.0  T
   3    -79.7917999  0.316284E-04  0.325E-02    1.39       1.0  T
   4    -79.7918407 -0.408695E-04  0.732E-03    1.39       2.0  T
   5    -79.7918418 -0.108069E-05  0.346E-03    1.39       4.1  T
   6    -79.7918421 -0.333606E-06  0.119E-03    1.39      12.0  T
   7    -79.7918422 -0.375338E-07  0.570E-04    1.39      25.1  T
   8    -79.7918422 -0.101883E-07  0.252E-04    1.39      56.7  T
     SCC iter.                  ...        0 min,  0.163 sec
     gradient                   ...        0 min,  0.014 sec
 * total energy  :   -78.6412672 Eh     change       -0.1036131E-02 Eh
   gradient norm :     0.0100092 Eh/α   predicted    -0.8447901E-03 ( -18.47%)
   displ. norm   :     0.5204990 α      lambda       -0.9454384E-03
   maximum displ.:     0.3232245 α      in ANC's #5, #4, #23, ...

........................................................................
.............................. CYCLE    9 ..............................
........................................................................
   1    -79.7933007 -0.797933E+02  0.832E-02    1.38       0.0  T
   2    -79.7933103 -0.954941E-05  0.475E-02    1.38       1.0  T
   3    -79.7932784  0.318947E-04  0.324E-02    1.38       1.0  T
   4    -79.7933197 -0.412723E-04  0.663E-03    1.38       2.2  T
   5    -79.7933205 -0.854115E-06  0.319E-03    1.38       4.5  T
   6    -79.7933208 -0.249380E-06  0.119E-03    1.38      12.0  T
   7    -79.7933208 -0.301591E-07  0.611E-04    1.38      23.4  T
   8    -79.7933208 -0.126482E-07  0.265E-04    1.38      53.9  T
     SCC iter.                  ...        0 min,  0.173 sec
     gradient                   ...        0 min,  0.015 sec
 * total energy  :   -78.6419963 Eh     change       -0.7290750E-03 Eh
   gradient norm :     0.0084192 Eh/α   predicted    -0.6007941E-03 ( -17.60%)
   displ. norm   :     0.4578857 α      lambda       -0.6766141E-03
   maximum displ.:     0.2847961 α      in ANC's #5, #4, #2, ...

........................................................................
.............................. CYCLE   10 ..............................
........................................................................
   1    -79.7966605 -0.797967E+02  0.761E-02    1.38       0.0  T
   2    -79.7966668 -0.627013E-05  0.427E-02    1.38       1.0  T
   3    -79.7966404  0.263637E-04  0.289E-02    1.38       1.0  T
   4    -79.7966739 -0.334984E-04  0.589E-03    1.38       2.4  T
   5    -79.7966745 -0.614233E-06  0.277E-03    1.38       5.2  T
   6    -79.7966747 -0.165231E-06  0.107E-03    1.38      13.4  T
   7    -79.7966747 -0.225288E-07  0.560E-04    1.38      25.5  T
   8    -79.7966747 -0.107085E-07  0.269E-04    1.38      53.1  T
     SCC iter.                  ...        0 min,  0.166 sec
     gradient                   ...        0 min,  0.015 sec
 * total energy  :   -78.6424955 Eh     change       -0.4991858E-03 Eh
   gradient norm :     0.0079594 Eh/α   predicted    -0.4092381E-03 ( -18.02%)
   displ. norm   :     0.4932936 α      lambda       -0.5422038E-03
   maximum displ.:     0.3028864 α      in ANC's #5, #4, #2, ...

........................................................................
.............................. CYCLE   11 ..............................
........................................................................
   1    -79.7930819 -0.797931E+02  0.809E-02    1.37       0.0  T
   2    -79.7930902 -0.828256E-05  0.463E-02    1.37       1.0  T
   3    -79.7930755  0.146777E-04  0.194E-02    1.37       1.0  T
   4    -79.7930923 -0.167869E-04  0.601E-03    1.37       2.4  T
   5    -79.7930932 -0.868806E-06  0.295E-03    1.37       4.9  T
   6    -79.7930933 -0.174101E-06  0.121E-03    1.37      11.9  T
   7    -79.7930934 -0.312306E-07  0.510E-04    1.37      28.0  T
   8    -79.7930934 -0.525586E-08  0.271E-04    1.37      52.7  T
     SCC iter.                  ...        0 min,  0.170 sec
     gradient                   ...        0 min,  0.015 sec
 * total energy  :   -78.6428397 Eh     change       -0.3442437E-03 Eh
   gradient norm :     0.0095930 Eh/α   predicted    -0.3370721E-03 (  -2.08%)
   displ. norm   :     0.3673660 α      lambda       -0.4881325E-03
   maximum displ.:     0.2415327 α      in ANC's #4, #5, #2, ...

........................................................................
.............................. CYCLE   12 ..............................
........................................................................
   1    -79.7967467 -0.797967E+02  0.715E-02    1.37       0.0  T
   2    -79.7967502 -0.351652E-05  0.401E-02    1.37       1.0  T
   3    -79.7967453  0.488110E-05  0.118E-02    1.37       1.2  T
   4    -79.7967507 -0.542441E-05  0.463E-03    1.37       3.1  T
   5    -79.7967512 -0.526768E-06  0.207E-03    1.37       6.9  T
   6    -79.7967513 -0.984583E-07  0.684E-04    1.37      20.9  T
   7    -79.7967514 -0.135899E-07  0.299E-04    1.37      47.7  T
     SCC iter.                  ...        0 min,  0.148 sec
     gradient                   ...        0 min,  0.014 sec
 * total energy  :   -78.6431743 Eh     change       -0.3345673E-03 Eh
   gradient norm :     0.0076452 Eh/α   predicted    -0.2770132E-03 ( -17.20%)
   displ. norm   :     0.3820032 α      lambda       -0.3034380E-03
   maximum displ.:     0.2523830 α      in ANC's #4, #5, #7, ...

........................................................................
.............................. CYCLE   13 ..............................
........................................................................
   1    -79.7954249 -0.797954E+02  0.716E-02    1.36       0.0  T
   2    -79.7954274 -0.248934E-05  0.405E-02    1.37       1.0  T
   3    -79.7954237  0.366488E-05  0.106E-02    1.37       1.3  T
   4    -79.7954280 -0.428007E-05  0.374E-03    1.37       3.8  T
   5    -79.7954283 -0.227823E-06  0.169E-03    1.37       8.4  T
   6    -79.7954283 -0.718947E-07  0.593E-04    1.37      24.1  T
   7    -79.7954283 -0.937639E-08  0.271E-04    1.37      52.7  T
     SCC iter.                  ...        0 min,  0.144 sec
     gradient                   ...        0 min,  0.013 sec
 * total energy  :   -78.6434089 Eh     change       -0.2345634E-03 Eh
   gradient norm :     0.0074517 Eh/α   predicted    -0.1738589E-03 ( -25.88%)
   displ. norm   :     0.3904668 α      lambda       -0.3469501E-03
   maximum displ.:     0.2523082 α      in ANC's #4, #5, #7, ...

........................................................................
.............................. CYCLE   14 ..............................
........................................................................
   1    -79.7963553 -0.797964E+02  0.813E-02    1.36       0.0  T
   2    -79.7963585 -0.325158E-05  0.456E-02    1.37       1.0  T
   3    -79.7963509  0.759491E-05  0.146E-02    1.37       1.0  T
   4    -79.7963595 -0.853440E-05  0.509E-03    1.37       2.8  T
   5    -79.7963601 -0.616410E-06  0.207E-03    1.37       6.9  T
   6    -79.7963602 -0.104671E-06  0.731E-04    1.37      19.6  T
   7    -79.7963602 -0.121427E-07  0.379E-04    1.37      37.7  T
     SCC iter.                  ...        0 min,  0.146 sec
     gradient                   ...        0 min,  0.015 sec
 * total energy  :   -78.6436350 Eh     change       -0.2260865E-03 Eh
   gradient norm :     0.0073172 Eh/α   predicted    -0.1999259E-03 ( -11.57%)
   displ. norm   :     0.3938207 α      lambda       -0.3121617E-03
   maximum displ.:     0.2481639 α      in ANC's #4, #5, #7, ...

........................................................................
.............................. CYCLE   15 ..............................
........................................................................
   1    -79.7940911 -0.797941E+02  0.835E-02    1.36       0.0  T
   2    -79.7940961 -0.502848E-05  0.469E-02    1.36       1.0  T
   3    -79.7940853  0.107903E-04  0.168E-02    1.36       1.0  T
   4    -79.7940974 -0.120449E-04  0.545E-03    1.36       2.6  T
   5    -79.7940982 -0.873057E-06  0.239E-03    1.36       6.0  T
   6    -79.7940984 -0.141224E-06  0.968E-04    1.36      14.8  T
   7    -79.7940984 -0.270295E-07  0.412E-04    1.36      34.7  T
     SCC iter.                  ...        0 min,  0.146 sec
     gradient                   ...        0 min,  0.015 sec
 * total energy  :   -78.6437807 Eh     change       -0.1457734E-03 Eh
   gradient norm :     0.0093012 Eh/α   predicted    -0.1802974E-03 (  23.68%)
   displ. norm   :     0.1725615 α      lambda       -0.1767318E-03
   maximum displ.:     0.1051378 α      in ANC's #4, #7, #5, ...

........................................................................
.............................. CYCLE   16 ..............................
........................................................................
   1    -79.7944913 -0.797945E+02  0.365E-02    1.36       0.0  T
   2    -79.7944924 -0.106843E-05  0.208E-02    1.36       1.0  T
   3    -79.7944894  0.302448E-05  0.873E-03    1.36       1.6  T
   4    -79.7944927 -0.335385E-05  0.253E-03    1.36       5.7  T
   5    -79.7944929 -0.176780E-06  0.102E-03    1.36      14.0  T
   6    -79.7944929 -0.190810E-07  0.407E-04    1.36      35.1  T
   7    -79.7944929 -0.644272E-08  0.164E-04    1.36      87.0  T
     SCC iter.                  ...        0 min,  0.146 sec
     gradient                   ...        0 min,  0.015 sec
 * total energy  :   -78.6439060 Eh     change       -0.1252585E-03 Eh
   gradient norm :     0.0067766 Eh/α   predicted    -0.9099877E-04 ( -27.35%)
   displ. norm   :     0.2384324 α      lambda       -0.2256946E-03
   maximum displ.:     0.1295484 α      in ANC's #4, #7, #6, ...

........................................................................
.............................. CYCLE   17 ..............................
........................................................................
   1    -79.7978517 -0.797979E+02  0.556E-02    1.36       0.0  T
   2    -79.7978553 -0.353421E-05  0.313E-02    1.36       1.0  T
   3    -79.7978471  0.813562E-05  0.146E-02    1.36       1.0  T
   4    -79.7978562 -0.905500E-05  0.440E-03    1.36       3.2  T
   5    -79.7978569 -0.658034E-06  0.166E-03    1.36       8.6  T
   6    -79.7978569 -0.562624E-07  0.694E-04    1.36      20.6  T
   7    -79.7978569 -0.179292E-07  0.279E-04    1.36      51.2  T
     SCC iter.                  ...        0 min,  0.147 sec
     gradient                   ...        0 min,  0.015 sec
 * total energy  :   -78.6440136 Eh     change       -0.1076413E-03 Eh
   gradient norm :     0.0070781 Eh/α   predicted    -0.1192703E-03 (  10.80%)
   displ. norm   :     0.2363954 α      lambda       -0.1846308E-03
   maximum displ.:     0.1343467 α      in ANC's #4, #7, #5, ...

........................................................................
.............................. CYCLE   18 ..............................
........................................................................
   1    -79.7973921 -0.797974E+02  0.535E-02    1.36       0.0  T
   2    -79.7973948 -0.266556E-05  0.302E-02    1.36       1.0  T
   3    -79.7973865  0.829482E-05  0.144E-02    1.36       1.0  T
   4    -79.7973958 -0.930238E-05  0.409E-03    1.36       3.5  T
   5    -79.7973962 -0.458784E-06  0.162E-03    1.36       8.8  T
   6    -79.7973963 -0.570661E-07  0.634E-04    1.36      22.5  T
   7    -79.7973963 -0.155725E-07  0.265E-04    1.36      54.0  T
     SCC iter.                  ...        0 min,  0.146 sec
     gradient                   ...        0 min,  0.014 sec
 * total energy  :   -78.6441189 Eh     change       -0.1052405E-03 Eh
   gradient norm :     0.0060958 Eh/α   predicted    -0.9747459E-04 (  -7.38%)
   displ. norm   :     0.2507835 α      lambda       -0.1169999E-03
   maximum displ.:     0.1639004 α      in ANC's #4, #5, #7, ...

........................................................................
.............................. CYCLE   19 ..............................
........................................................................
   1    -79.7945476 -0.797945E+02  0.527E-02    1.35       0.0  T
   2    -79.7945497 -0.204471E-05  0.298E-02    1.35       1.0  T
   3    -79.7945442  0.545437E-05  0.116E-02    1.36       1.2  T
   4    -79.7945505 -0.625399E-05  0.323E-03    1.36       4.4  T
   5    -79.7945507 -0.235392E-06  0.159E-03    1.36       9.0  T
   6    -79.7945507 -0.504549E-07  0.646E-04    1.36      22.1  T
   7    -79.7945508 -0.119117E-07  0.262E-04    1.36      54.6  T
     SCC iter.                  ...        0 min,  0.146 sec
     gradient                   ...        0 min,  0.014 sec
 * total energy  :   -78.6441910 Eh     change       -0.7212369E-04 Eh
   gradient norm :     0.0052718 Eh/α   predicted    -0.6218231E-04 ( -13.78%)
   displ. norm   :     0.1900978 α      lambda       -0.1613545E-03
   maximum displ.:     0.0861991 α      in ANC's #10, #4, #6, ...

........................................................................
.............................. CYCLE   20 ..............................
........................................................................
   1    -79.7974496 -0.797974E+02  0.524E-02    1.35       0.0  T
   2    -79.7974515 -0.188421E-05  0.300E-02    1.35       1.0  T
   3    -79.7974480  0.354032E-05  0.963E-03    1.35       1.5  T
   4    -79.7974520 -0.403207E-05  0.302E-03    1.35       4.7  T
   5    -79.7974523 -0.235308E-06  0.139E-03    1.35      10.3  T
   6    -79.7974523 -0.548724E-07  0.603E-04    1.35      23.7  T
   7    -79.7974523 -0.123683E-07  0.254E-04    1.35      56.3  T
     SCC iter.                  ...        0 min,  0.153 sec
     gradient                   ...        0 min,  0.015 sec
 * total energy  :   -78.6442785 Eh     change       -0.8752094E-04 Eh
   gradient norm :     0.0053398 Eh/α   predicted    -0.8359408E-04 (  -4.49%)
   displ. norm   :     0.2020964 α      lambda       -0.7847881E-04
   maximum displ.:     0.1283948 α      in ANC's #4, #7, #6, ...
 * RMSD in coord.:     0.8203459 α      energy gain  -0.3213601E-01 Eh

generating ANC from model Hessian ...
Using Lindh-Hessian (1995)
 Shifting diagonal of input Hessian by    9.8800482808719860E-003
 Lowest  eigenvalues of input Hessian
    0.000000    0.000000    0.000000    0.000000    0.000000    0.000000
    0.010000    0.010293    0.010340    0.010658    0.010776    0.011350
    0.011696    0.012459    0.013000    0.014095    0.014748    0.015507
 Highest eigenvalues
    1.904393    1.936099    1.959261    2.021727    2.103357    2.189944


........................................................................
.............................. CYCLE   21 ..............................
........................................................................
   1    -79.7966829 -0.797967E+02  0.435E-02    1.35       0.0  T
   2    -79.7966837 -0.776434E-06  0.249E-02    1.35       1.0  T
   3    -79.7966794  0.424811E-05  0.958E-03    1.35       1.5  T
   4    -79.7966842 -0.473073E-05  0.226E-03    1.35       6.3  T
   5    -79.7966843 -0.101359E-06  0.106E-03    1.35      13.5  T
   6    -79.7966843 -0.215085E-07  0.406E-04    1.35      35.2  T
   7    -79.7966843 -0.443460E-08  0.184E-04    1.35      77.6  T
     SCC iter.                  ...        0 min,  0.145 sec
     gradient                   ...        0 min,  0.014 sec
 * total energy  :   -78.6443353 Eh     change       -0.5681651E-04 Eh
   gradient norm :     0.0042538 Eh/α   predicted     0.0000000E+00 (-100.00%)
   displ. norm   :     0.0444268 α      lambda       -0.4884792E-04
   maximum displ.:     0.0203670 α      in ANC's #10, #4, #12, ...

........................................................................
.............................. CYCLE   22 ..............................
........................................................................
   1    -79.7971624 -0.797972E+02  0.135E-02    1.35       0.0  T
   2    -79.7971626 -0.203265E-06  0.768E-03    1.35       1.9  T
   3    -79.7971621  0.420768E-06  0.334E-03    1.35       4.3  T
   4    -79.7971626 -0.463815E-06  0.109E-03    1.35      13.1  T
   5    -79.7971626 -0.379281E-07  0.401E-04    1.35      35.6  T
   6    -79.7971626 -0.328481E-08  0.171E-04    1.35      83.5  T
     SCC iter.                  ...        0 min,  0.125 sec
     gradient                   ...        0 min,  0.014 sec
 * total energy  :   -78.6443776 Eh     change       -0.4230463E-04 Eh
   gradient norm :     0.0020991 Eh/α   predicted    -0.2668028E-04 ( -36.93%)
   displ. norm   :     0.1158422 α      lambda       -0.7630736E-04
   maximum displ.:     0.0546679 α      in ANC's #10, #4, #12, ...

........................................................................
.............................. CYCLE   23 ..............................
........................................................................
   1    -79.7973712 -0.797974E+02  0.292E-02    1.35       0.0  T
   2    -79.7973718 -0.569082E-06  0.165E-02    1.35       1.0  T
   3    -79.7973703  0.148092E-05  0.606E-03    1.35       2.4  T
   4    -79.7973719 -0.159094E-05  0.216E-03    1.35       6.6  T
   5    -79.7973720 -0.146053E-06  0.804E-04    1.35      17.8  T
   6    -79.7973721 -0.166648E-07  0.327E-04    1.35      43.6  T
     SCC iter.                  ...        0 min,  0.124 sec
     gradient                   ...        0 min,  0.015 sec
 * total energy  :   -78.6444277 Eh     change       -0.5009495E-04 Eh
   gradient norm :     0.0020741 Eh/α   predicted    -0.3866629E-04 ( -22.81%)
   displ. norm   :     0.0979526 α      lambda       -0.3425991E-04
   maximum displ.:     0.0496367 α      in ANC's #4, #10, #1, ...

........................................................................
.............................. CYCLE   24 ..............................
........................................................................
   1    -79.7970947 -0.797971E+02  0.219E-02    1.35       0.0  T
   2    -79.7970949 -0.218787E-06  0.124E-02    1.35       1.2  T
   3    -79.7970946  0.384078E-06  0.321E-03    1.35       4.5  T
   4    -79.7970950 -0.418829E-06  0.129E-03    1.35      11.1  T
   5    -79.7970950 -0.432253E-07  0.499E-04    1.35      28.6  T
   6    -79.7970950 -0.736708E-08  0.202E-04    1.35      70.8  T
     SCC iter.                  ...        0 min,  0.124 sec
     gradient                   ...        0 min,  0.015 sec
 * total energy  :   -78.6444551 Eh     change       -0.2740956E-04 Eh
   gradient norm :     0.0027872 Eh/α   predicted    -0.1738557E-04 ( -36.57%)
   displ. norm   :     0.1525309 α      lambda       -0.4908496E-04
   maximum displ.:     0.0810002 α      in ANC's #4, #10, #1, ...

........................................................................
.............................. CYCLE   25 ..............................
........................................................................
   1    -79.7965168 -0.797965E+02  0.320E-02    1.35       0.0  T
   2    -79.7965173 -0.444671E-06  0.183E-02    1.35       1.0  T
   3    -79.7965165  0.742380E-06  0.471E-03    1.35       3.0  T
   4    -79.7965174 -0.864153E-06  0.163E-03    1.35       8.8  T
   5    -79.7965174 -0.389568E-07  0.685E-04    1.35      20.9  T
   6    -79.7965174 -0.142149E-07  0.274E-04    1.35      52.1  T
     SCC iter.                  ...        0 min,  0.131 sec
     gradient                   ...        0 min,  0.015 sec
 * total energy  :   -78.6444928 Eh     change       -0.3764084E-04 Eh
   gradient norm :     0.0027041 Eh/α   predicted    -0.2511376E-04 ( -33.28%)
   displ. norm   :     0.1640967 α      lambda       -0.4493830E-04
   maximum displ.:     0.0926821 α      in ANC's #4, #1, #10, ...

........................................................................
.............................. CYCLE   26 ..............................
........................................................................
   1    -79.7961505 -0.797962E+02  0.326E-02    1.35       0.0  T
   2    -79.7961510 -0.498422E-06  0.186E-02    1.35       1.0  T
   3    -79.7961498  0.120495E-05  0.579E-03    1.35       2.5  T
   4    -79.7961512 -0.136916E-05  0.177E-03    1.35       8.1  T
   5    -79.7961512 -0.388443E-07  0.891E-04    1.35      16.0  T
   6    -79.7961513 -0.285109E-07  0.330E-04    1.35      43.3  T
     SCC iter.                  ...        0 min,  0.124 sec
     gradient                   ...        0 min,  0.015 sec
 * total energy  :   -78.6445275 Eh     change       -0.3467927E-04 Eh
   gradient norm :     0.0021925 Eh/α   predicted    -0.2307489E-04 ( -33.46%)
   displ. norm   :     0.1584634 α      lambda       -0.4008134E-04
   maximum displ.:     0.0938999 α      in ANC's #4, #1, #3, ...

........................................................................
.............................. CYCLE   27 ..............................
........................................................................
   1    -79.7963263 -0.797963E+02  0.301E-02    1.35       0.0  T
   2    -79.7963268 -0.507338E-06  0.171E-02    1.35       1.0  T
   3    -79.7963256  0.116634E-05  0.574E-03    1.35       2.5  T
   4    -79.7963269 -0.132477E-05  0.179E-03    1.35       8.0  T
   5    -79.7963270 -0.580843E-07  0.820E-04    1.35      17.4  T
   6    -79.7963270 -0.184337E-07  0.357E-04    1.35      40.0  T
     SCC iter.                  ...        0 min,  0.126 sec
     gradient                   ...        0 min,  0.015 sec
 * total energy  :   -78.6445593 Eh     change       -0.3186034E-04 Eh
   gradient norm :     0.0017417 Eh/α   predicted    -0.2054505E-04 ( -35.52%)
   displ. norm   :     0.2419532 α      lambda       -0.3741583E-04
   maximum displ.:     0.1472696 α      in ANC's #4, #1, #3, ...

........................................................................
.............................. CYCLE   28 ..............................
........................................................................
   1    -79.7969679 -0.797970E+02  0.445E-02    1.34       0.0  T
   2    -79.7969691 -0.121981E-05  0.252E-02    1.34       1.0  T
   3    -79.7969668  0.232283E-05  0.826E-03    1.34       1.7  T
   4    -79.7969694 -0.265822E-05  0.275E-03    1.34       5.2  T
   5    -79.7969696 -0.169488E-06  0.109E-03    1.34      13.1  T
   6    -79.7969696 -0.240432E-07  0.502E-04    1.34      28.5  T
   7    -79.7969696 -0.585385E-08  0.242E-04    1.34      59.0  T
     SCC iter.                  ...        0 min,  0.144 sec
     gradient                   ...        0 min,  0.015 sec
 * total energy  :   -78.6445979 Eh     change       -0.3861560E-04 Eh
   gradient norm :     0.0019563 Eh/α   predicted    -0.1920249E-04 ( -50.27%)
   displ. norm   :     0.1424611 α      lambda       -0.1900545E-04
   maximum displ.:     0.0900603 α      in ANC's #4, #1, #3, ...

........................................................................
.............................. CYCLE   29 ..............................
........................................................................
   1    -79.7974321 -0.797974E+02  0.250E-02    1.34       0.0  T
   2    -79.7974324 -0.258080E-06  0.144E-02    1.34       1.0  T
   3    -79.7974313  0.104597E-05  0.468E-03    1.34       3.1  T
   4    -79.7974325 -0.113777E-05  0.145E-03    1.34       9.8  T
   5    -79.7974325 -0.566048E-07  0.655E-04    1.34      21.8  T
   6    -79.7974325 -0.129919E-07  0.261E-04    1.34      54.7  T
     SCC iter.                  ...        0 min,  0.124 sec
     gradient                   ...        0 min,  0.015 sec
 * total energy  :   -78.6446212 Eh     change       -0.2325941E-04 Eh
   gradient norm :     0.0014304 Eh/α   predicted    -0.9590102E-05 ( -58.77%)
   displ. norm   :     0.1520846 α      lambda       -0.2003629E-04
   maximum displ.:     0.0950112 α      in ANC's #4, #1, #3, ...

........................................................................
.............................. CYCLE   30 ..............................
........................................................................
   1    -79.7976652 -0.797977E+02  0.264E-02    1.34       0.0  T
   2    -79.7976654 -0.170509E-06  0.153E-02    1.34       1.0  T
   3    -79.7976641  0.125388E-05  0.471E-03    1.34       3.0  T
   4    -79.7976655 -0.136188E-05  0.126E-03    1.34      11.3  T
   5    -79.7976655 -0.309095E-07  0.552E-04    1.34      25.9  T
   6    -79.7976655 -0.850736E-08  0.190E-04    1.34      75.2  T
     SCC iter.                  ...        0 min,  0.124 sec
     gradient                   ...        0 min,  0.014 sec
 * total energy  :   -78.6446461 Eh     change       -0.2486237E-04 Eh
   gradient norm :     0.0010696 Eh/α   predicted    -0.1012210E-04 ( -59.29%)
   displ. norm   :     0.1957238 α      lambda       -0.2181633E-04
   maximum displ.:     0.1194036 α      in ANC's #4, #1, #2, ...

........................................................................
.............................. CYCLE   31 ..............................
........................................................................
   1    -79.7973656 -0.797974E+02  0.338E-02    1.34       0.0  T
   2    -79.7973658 -0.222854E-06  0.195E-02    1.34       1.0  T
   3    -79.7973647  0.105424E-05  0.446E-03    1.34       3.2  T
   4    -79.7973659 -0.113754E-05  0.159E-03    1.34       9.0  T
   5    -79.7973659 -0.531418E-07  0.644E-04    1.34      22.2  T
   6    -79.7973659 -0.127988E-07  0.193E-04    1.34      74.0  T
     SCC iter.                  ...        0 min,  0.124 sec
     gradient                   ...        0 min,  0.015 sec
 * total energy  :   -78.6446734 Eh     change       -0.2729705E-04 Eh
   gradient norm :     0.0013155 Eh/α   predicted    -0.1109675E-04 ( -59.35%)
   displ. norm   :     0.2522747 α      lambda       -0.2431552E-04
   maximum displ.:     0.1508889 α      in ANC's #1, #4, #2, ...

........................................................................
.............................. CYCLE   32 ..............................
........................................................................
   1    -79.7971796 -0.797972E+02  0.439E-02    1.34       0.0  T
   2    -79.7971799 -0.394860E-06  0.252E-02    1.34       1.0  T
   3    -79.7971789  0.103174E-05  0.496E-03    1.34       2.9  T
   4    -79.7971800 -0.112004E-05  0.205E-03    1.34       7.0  T
   5    -79.7971801 -0.862435E-07  0.898E-04    1.34      15.9  T
   6    -79.7971802 -0.288776E-07  0.253E-04    1.34      56.5  T
     SCC iter.                  ...        0 min,  0.125 sec
     gradient                   ...        0 min,  0.015 sec
 * total energy  :   -78.6447023 Eh     change       -0.2895306E-04 Eh
   gradient norm :     0.0014271 Eh/α   predicted    -0.1250393E-04 ( -56.81%)
   displ. norm   :     0.2697285 α      lambda       -0.2059990E-04
   maximum displ.:     0.1618111 α      in ANC's #1, #4, #2, ...

........................................................................
.............................. CYCLE   33 ..............................
........................................................................
   1    -79.7960580 -0.797961E+02  0.470E-02    1.34       0.0  T
   2    -79.7960587 -0.648277E-06  0.269E-02    1.34       1.0  T
   3    -79.7960573  0.137729E-05  0.604E-03    1.34       2.4  T
   4    -79.7960588 -0.155259E-05  0.220E-03    1.34       6.5  T
   5    -79.7960589 -0.724790E-07  0.106E-03    1.34      13.5  T
   6    -79.7960590 -0.363325E-07  0.331E-04    1.34      43.2  T
   7    -79.7960590 -0.295412E-08  0.160E-04    1.34      89.4  T
     SCC iter.                  ...        0 min,  0.143 sec
     gradient                   ...        0 min,  0.015 sec
 * total energy  :   -78.6447231 Eh     change       -0.2083329E-04 Eh
   gradient norm :     0.0018718 Eh/α   predicted    -0.1063632E-04 ( -48.95%)
   displ. norm   :     0.1962322 α      lambda       -0.1796721E-04
   maximum displ.:     0.1239721 α      in ANC's #1, #4, #2, ...

........................................................................
.............................. CYCLE   34 ..............................
........................................................................
   1    -79.7969675 -0.797970E+02  0.347E-02    1.33       0.0  T
   2    -79.7969681 -0.537379E-06  0.198E-02    1.34       1.0  T
   3    -79.7969672  0.851651E-06  0.487E-03    1.33       2.9  T
   4    -79.7969681 -0.940792E-06  0.182E-03    1.34       7.9  T
   5    -79.7969682 -0.705538E-07  0.801E-04    1.34      17.8  T
   6    -79.7969682 -0.152017E-07  0.328E-04    1.34      43.5  T
     SCC iter.                  ...        0 min,  0.124 sec
     gradient                   ...        0 min,  0.014 sec
 * total energy  :   -78.6447382 Eh     change       -0.1507453E-04 Eh
   gradient norm :     0.0010490 Eh/α   predicted    -0.9139815E-05 ( -39.37%)
   displ. norm   :     0.1119879 α      lambda       -0.7778198E-05
   maximum displ.:     0.0717442 α      in ANC's #1, #4, #2, ...

........................................................................
.............................. CYCLE   35 ..............................
........................................................................
   1    -79.7968822 -0.797969E+02  0.198E-02    1.33       0.0  T
   2    -79.7968824 -0.180742E-06  0.114E-02    1.33       1.3  T
   3    -79.7968819  0.430345E-06  0.317E-03    1.33       4.5  T
   4    -79.7968824 -0.481287E-06  0.102E-03    1.33      14.0  T
   5    -79.7968824 -0.191461E-07  0.547E-04    1.33      26.1  T
   6    -79.7968825 -0.879588E-08  0.175E-04    1.33      81.7  T
     SCC iter.                  ...        0 min,  0.125 sec
     gradient                   ...        0 min,  0.014 sec
 * total energy  :   -78.6447475 Eh     change       -0.9292663E-05 Eh
   gradient norm :     0.0006337 Eh/α   predicted    -0.3911694E-05 ( -57.91%)
   displ. norm   :     0.0977738 α      lambda       -0.7767774E-05
   maximum displ.:     0.0650722 α      in ANC's #1, #4, #2, ...

........................................................................
.............................. CYCLE   36 ..............................
........................................................................
   1    -79.7969289 -0.797969E+02  0.167E-02    1.33       0.0  T
   2    -79.7969291 -0.189278E-06  0.952E-03    1.33       1.5  T
   3    -79.7969287  0.404968E-06  0.316E-03    1.33       4.5  T
   4    -79.7969292 -0.459022E-06  0.101E-03    1.33      14.2  T
   5    -79.7969292 -0.219522E-07  0.523E-04    1.33      27.3  T
   6    -79.7969292 -0.822027E-08  0.182E-04    1.33      78.4  T
     SCC iter.                  ...        0 min,  0.124 sec
     gradient                   ...        0 min,  0.015 sec
 * total energy  :   -78.6447565 Eh     change       -0.8955321E-05 Eh
   gradient norm :     0.0007013 Eh/α   predicted    -0.3906767E-05 ( -56.37%)
   displ. norm   :     0.0861240 α      lambda       -0.6416280E-05
   maximum displ.:     0.0599618 α      in ANC's #1, #2, #10, ...

........................................................................
.............................. CYCLE   37 ..............................
........................................................................
   1    -79.7970670 -0.797971E+02  0.142E-02    1.33       0.0  T
   2    -79.7970672 -0.141205E-06  0.813E-03    1.33       1.8  T
   3    -79.7970668  0.338386E-06  0.282E-03    1.33       5.1  T
   4    -79.7970672 -0.373833E-06  0.899E-04    1.33      15.9  T
   5    -79.7970672 -0.254341E-07  0.437E-04    1.33      32.7  T
     SCC iter.                  ...        0 min,  0.104 sec
     gradient                   ...        0 min,  0.015 sec
 * total energy  :   -78.6447637 Eh     change       -0.7235525E-05 Eh
   gradient norm :     0.0008067 Eh/α   predicted    -0.3223656E-05 ( -55.45%)
   displ. norm   :     0.0723447 α      lambda       -0.5025265E-05
   maximum displ.:     0.0522589 α      in ANC's #1, #2, #5, ...

........................................................................
.............................. CYCLE   38 ..............................
........................................................................
   1    -79.7971908 -0.797972E+02  0.107E-02    1.33       0.0  T
   2    -79.7971909 -0.665259E-07  0.601E-03    1.33       2.4  T
   3    -79.7971907  0.188418E-06  0.229E-03    1.33       6.3  T
   4    -79.7971909 -0.214245E-06  0.659E-04    1.33      21.7  T
   5    -79.7971909 -0.722910E-08  0.327E-04    1.33      43.7  T
     SCC iter.                  ...        0 min,  0.108 sec
     gradient                   ...        0 min,  0.015 sec
 * total energy  :   -78.6447698 Eh     change       -0.6110177E-05 Eh
   gradient norm :     0.0007304 Eh/α   predicted    -0.2519821E-05 ( -58.76%)
   displ. norm   :     0.0741053 α      lambda       -0.5258461E-05
   maximum displ.:     0.0536339 α      in ANC's #1, #2, #9, ...

........................................................................
.............................. CYCLE   39 ..............................
........................................................................
   1    -79.7971924 -0.797972E+02  0.116E-02    1.33       0.0  T
   2    -79.7971925 -0.407744E-07  0.670E-03    1.33       2.1  T
   3    -79.7971923  0.134637E-06  0.194E-03    1.33       7.4  T
   4    -79.7971925 -0.151152E-06  0.521E-04    1.33      27.4  T
   5    -79.7971925 -0.361977E-08  0.230E-04    1.33      62.0  T
     SCC iter.                  ...        0 min,  0.106 sec
     gradient                   ...        0 min,  0.015 sec
 * total energy  :   -78.6447767 Eh     change       -0.6871706E-05 Eh
   gradient norm :     0.0006186 Eh/α   predicted    -0.2640478E-05 ( -61.57%)
   displ. norm   :     0.0867872 α      lambda       -0.6221181E-05
   maximum displ.:     0.0611562 α      in ANC's #1, #2, #3, ...

........................................................................
.............................. CYCLE   40 ..............................
........................................................................
   1    -79.7971828 -0.797972E+02  0.146E-02    1.33       0.0  T
   2    -79.7971828 -0.785225E-07  0.829E-03    1.33       1.7  T
   3    -79.7971825  0.336440E-06  0.303E-03    1.33       4.7  T
   4    -79.7971829 -0.387257E-06  0.709E-04    1.33      20.1  T
   5    -79.7971829 -0.365515E-08  0.292E-04    1.33      49.0  T
     SCC iter.                  ...        0 min,  0.105 sec
     gradient                   ...        0 min,  0.013 sec
 * total energy  :   -78.6447845 Eh     change       -0.7859902E-05 Eh
   gradient norm :     0.0005454 Eh/α   predicted    -0.3125604E-05 ( -60.23%)
   displ. norm   :     0.0928735 α      lambda       -0.5781553E-05
   maximum displ.:     0.0655015 α      in ANC's #1, #2, #3, ...

........................................................................
.............................. CYCLE   41 ..............................
........................................................................
   1    -79.7970054 -0.797970E+02  0.160E-02    1.33       0.0  T
   2    -79.7970055 -0.907952E-07  0.915E-03    1.33       1.6  T
   3    -79.7970050  0.466338E-06  0.339E-03    1.33       4.2  T
   4    -79.7970055 -0.533263E-06  0.761E-04    1.33      18.8  T
   5    -79.7970055 -0.418467E-08  0.373E-04    1.33      38.3  T
     SCC iter.                  ...        0 min,  0.104 sec
     gradient                   ...        0 min,  0.015 sec
 * total energy  :   -78.6447917 Eh     change       -0.7117001E-05 Eh
   gradient norm :     0.0005678 Eh/α   predicted    -0.2904442E-05 ( -59.19%)
   displ. norm   :     0.0809404 α      lambda       -0.4360449E-05
   maximum displ.:     0.0567483 α      in ANC's #1, #2, #3, ...

........................................................................
.............................. CYCLE   42 ..............................
........................................................................
   1    -79.7969058 -0.797969E+02  0.140E-02    1.33       0.0  T
   2    -79.7969059 -0.631799E-07  0.793E-03    1.33       1.8  T
   3    -79.7969056  0.328077E-06  0.294E-03    1.33       4.9  T
   4    -79.7969060 -0.376642E-06  0.717E-04    1.33      19.9  T
   5    -79.7969060 -0.186326E-08  0.340E-04    1.33      42.0  T
     SCC iter.                  ...        0 min,  0.107 sec
     gradient                   ...        0 min,  0.015 sec
 * total energy  :   -78.6447974 Eh     change       -0.5701666E-05 Eh
   gradient norm :     0.0005397 Eh/α   predicted    -0.2191367E-05 ( -61.57%)
   displ. norm   :     0.0777080 α      lambda       -0.4319757E-05
   maximum displ.:     0.0546294 α      in ANC's #1, #2, #3, ...
 * RMSD in coord.:     0.3523863 α      energy gain  -0.5188454E-03 Eh

generating ANC from model Hessian ...
Using Lindh-Hessian (1995)
 Shifting diagonal of input Hessian by    9.8819293910577567E-003
 Lowest  eigenvalues of input Hessian
    0.000000    0.000000    0.000000    0.000000    0.000000    0.000000
    0.010000    0.010300    0.010360    0.010593    0.010816    0.011311
    0.011700    0.012470    0.012976    0.014138    0.014768    0.015686
 Highest eigenvalues
    1.904021    1.935652    1.960351    2.023891    2.104189    2.190367


........................................................................
.............................. CYCLE   43 ..............................
........................................................................
   1    -79.7968292 -0.797968E+02  0.139E-02    1.33       0.0  T
   2    -79.7968292 -0.482930E-07  0.787E-03    1.33       1.8  T
   3    -79.7968290  0.268151E-06  0.261E-03    1.33       5.5  T
   4    -79.7968293 -0.303508E-06  0.702E-04    1.33      20.3  T
   5    -79.7968293 -0.184217E-08  0.324E-04    1.33      44.1  T
     SCC iter.                  ...        0 min,  0.105 sec
     gradient                   ...        0 min,  0.013 sec
 * total energy  :   -78.6448033 Eh     change       -0.5927458E-05 Eh
   gradient norm :     0.0004791 Eh/α   predicted     0.0000000E+00 (-100.00%)
   displ. norm   :     0.0180224 α      lambda       -0.1955929E-06
   maximum displ.:     0.0123560 α      in ANC's #1, #9, #2, ...

........................................................................
.............................. CYCLE   44 ..............................
........................................................................
   1    -79.7968876 -0.797969E+02  0.441E-03    1.33       0.0  T
   2    -79.7968876 -0.884408E-08  0.250E-03    1.33       5.7  T
   3    -79.7968876  0.197787E-07  0.702E-04    1.33      20.3  T
   4    -79.7968876 -0.218483E-07  0.264E-04    1.33      54.2  T
     SCC iter.                  ...        0 min,  0.084 sec
     gradient                   ...        0 min,  0.015 sec
 * total energy  :   -78.6448061 Eh     change       -0.2770360E-05 Eh
   gradient norm :     0.0002822 Eh/α   predicted    -0.1055696E-05 ( -61.89%)
   displ. norm   :     0.0594686 α      lambda       -0.5442903E-05
   maximum displ.:     0.0374787 α      in ANC's #1, #9, #2, ...

   *** GEOMETRY OPTIMIZATION CONVERGED AFTER 44 ITERATIONS ***

------------------------------------------------------------------------
 total energy gain   :        -0.0326636 Eh      -20.4967 kcal/mol
 total RMSD          :         0.9979710 a0        0.5281 Å
 total power (kW/mol):        -1.9490487 (step)  -11.7912 (real)
------------------------------------------------------------------------

 ANCopt (total)                0 d,  0 h,  0 min,  7.273 sec
 optimizer setup                ...        0 min,  0.000 sec (  0.003%)
 model hessian                  ...        0 min,  0.045 sec (  0.623%)
 ANC generation                 ...        0 min,  0.042 sec (  0.578%)
 coordinate transformation      ...        0 min,  0.004 sec (  0.049%)
 single point calculation       ...        0 min,  7.149 sec ( 98.294%)
 optimization log               ...        0 min,  0.011 sec (  0.151%)
 hessian update                 ...        0 min,  0.003 sec (  0.047%)
 rational function              ...        0 min,  0.010 sec (  0.139%)

================
 final structure:
================
49
 xtb: 6.5.1 (fef0646)
N            3.52321052100160        0.80979500959604        1.29258698215790
C            2.72797979936810        1.30006908041660        0.13271240788467
C            3.56339975493617        2.32489731504520       -0.64238979368261
C            4.80604367943131        1.69567456898732       -1.17821994711964
C            5.06096461692031        1.22144893618700       -2.42617204526931
C            6.31354171363261        0.59247555423344       -2.54997611913941
C            7.04253879945225        0.55833848291523       -1.39009750231172
C            8.31826028174435       -0.00655377985857       -1.14652645093021
C            9.05648928127120        0.01553918834014        0.01523230078524
C           10.28453591006748       -0.64965763011846       -0.07674080665592
C           11.23363053744962       -0.68453828830257        1.07622503991190
C           10.49133556834762       -1.20171916430316       -1.33476067077015
C           11.58151674175663       -1.98350573045605       -1.85270925445435
C           12.56038062053963       -2.60960119590462       -1.09453097489473
C           13.59205792843051       -3.36501344316421       -1.65463317311836
C           13.73590645278988       -3.56664413613419       -3.01925304333659
C           14.78798263593139       -4.34246963762147       -3.61698011243332
C           15.51650033272791       -5.39842128245611       -3.10168454811957
C           15.31715798197711       -6.04481174036732       -1.77048630144080
C           16.47478436745034       -5.87489337135691       -4.02134596365864
C           16.47644789317335       -5.19725400362814       -5.20035080265564
S           15.28572967730093       -3.97141189285818       -5.24714434462076
C           12.75672386160568       -2.93724929250133       -3.83332260988517
N           12.66460864020870       -2.98562908102825       -5.15999778479883
S           11.37923942218696       -2.15979363547372       -5.63737315580653
N           10.85979381271030       -1.69755099754093       -4.18153434457218
C           11.68832581640835       -2.17492225184356       -3.25515566667380
S            9.17146676286004       -0.84856814003470       -2.40926166616033
S            6.16957798633556        1.37049220892065       -0.10656494021006
H            3.13192820348617       -0.04238387056260        1.70350955152134
H            3.58848382291962        1.53434761110634        2.01563975467716
H            4.50803641897375        0.63764015966947        0.93817645654188
H            1.79533465752344        1.73955154158954        0.48640021828052
H            2.50123007528548        0.45034144281775       -0.51240752121253
H            3.80747908423347        3.16818976093085        0.00678796233116
H            2.96733815492057        2.70209237343783       -1.47308197700777
H            4.37112000849271        1.32256329628206       -3.24474076675383
H            6.68797423192136        0.17061942692677       -3.46410503291339
H            8.72315004834246        0.51201806819002        0.91228952704548
H           10.93519009024558        0.05475048726439        1.81612065060078
H           12.24770022836224       -0.45989411892640        0.75205630286083
H           11.22880831718128       -1.66240540360767        1.55815787053372
H           12.53126210208816       -2.53749828077426       -0.02168440133943
H           14.32282196318882       -3.78400108888107       -0.98391616539254
H           14.26780686918551       -6.03722813692131       -1.48290357144902
H           15.89383735459220       -5.53158645892165       -1.00006720062811
H           15.66285619061036       -7.07524040693361       -1.81115746812227
H           17.13677147378448       -6.69462745076983       -3.80570710140639
H           17.10650930664654       -5.35725060160428       -6.05263179618945

 Bond Distances (Angstroems)
 ---------------------------
N1-C2=1.4893         N1-H30=1.0238        N1-H31=1.0257        N1-H32=1.0607        C2-N1=1.4893         C2-C3=1.5326         
C2-H33=1.0900        C2-H34=1.0907        C3-C2=1.5326         C3-C4=1.4924         C3-H35=1.0919        C3-H36=1.0898        
C4-C3=1.4924         C4-C5=1.3591         C4-S29=1.7645        C5-C4=1.3591         C5-C6=1.4071         C5-H37=1.0753        
C6-C5=1.4071         C6-C7=1.3704         C6-H38=1.0741        C7-C6=1.3704         C7-C8=1.4163         C7-S29=1.7519        
C8-C7=1.4163         C8-C9=1.3766         C8-S28=1.7411        C9-C8=1.3766         C9-C10=1.3997        C9-H39=1.0781        
C10-C9=1.3997        C10-C11=1.4938       C10-C12=1.3893       C11-C10=1.4938       C11-H40=1.0877       C11-H41=1.0881       
C11-H42=1.0902       C12-C10=1.3893       C12-C13=1.4380       C12-S28=1.7382       C13-C12=1.4380       C13-C14=1.3874       
C13-C27=1.4195       C14-C13=1.3874       C14-C15=1.3960       C14-H43=1.0757       C15-C14=1.3960       C15-C16=1.3869       
C15-H44=1.0768       C16-C15=1.3869       C16-C17=1.4374       C16-C23=1.4204       C17-C16=1.4374       C17-C18=1.3825       
C17-S22=1.7444       C18-C17=1.3825       C18-C19=1.4932       C18-C20=1.4111       C19-C18=1.4932       C19-H45=1.0881       
C19-H46=1.0906       C19-H47=1.0876       C20-C18=1.4111       C20-C21=1.3599       C20-H48=1.0755       C21-C20=1.3599       
C21-S22=1.7096       C21-H49=1.0719       S22-C17=1.7444       S22-C21=1.7096       C23-C16=1.4204       C23-N24=1.3307       
C23-C27=1.4342       N24-C23=1.3307       N24-S25=1.6006       S25-N24=1.6006       S25-N26=1.6134       N26-S25=1.6134       
N26-C27=1.3314       C27-C13=1.4195       C27-C23=1.4342       C27-N26=1.3314       S28-C8=1.7411        S28-C12=1.7382       
S29-C4=1.7645        S29-C7=1.7519        H30-N1=1.0238        H31-N1=1.0257        H32-N1=1.0607        H33-C2=1.0900        
H34-C2=1.0907        H35-C3=1.0919        H36-C3=1.0898        H37-C5=1.0753        H38-C6=1.0741        H39-C9=1.0781        
H40-C11=1.0877       H41-C11=1.0881       H42-C11=1.0902       H43-C14=1.0757       H44-C15=1.0768       H45-C19=1.0881       
H46-C19=1.0906       H47-C19=1.0876       H48-C20=1.0755       H49-C21=1.0719       
 C  H  Rav=1.0836 sigma=0.0071  Rmin=1.0719  Rmax=1.0919    17
 C  C  Rav=1.4184 sigma=0.0462  Rmin=1.3591  Rmax=1.5326    22
 N  H  Rav=1.0367 sigma=0.0170  Rmin=1.0238  Rmax=1.0607     3
 N  C  Rav=1.3838 sigma=0.0746  Rmin=1.3307  Rmax=1.4893     3
 S  C  Rav=1.7416 sigma=0.0167  Rmin=1.7096  Rmax=1.7645     6
 S  N  Rav=1.6070 sigma=0.0064  Rmin=1.6006  Rmax=1.6134     2

 selected bond angles (degree)
 --------------------
H30-N1-C2=112.49               H31-N1-C2=110.51               H31-N1-H30=109.23              H32-N1-C2=106.80               
H32-N1-H30=110.72              H32-N1-H31=106.92              C3-C2-N1=108.84                H33-C2-N1=109.69               
H33-C2-C3=111.16               H34-C2-N1=108.37               H34-C2-C3=109.58               H34-C2-H33=109.16              
C4-C3-C2=110.70                H35-C3-C2=109.73               H35-C3-C4=110.67               H36-C3-C2=108.59               
H36-C3-C4=109.13               H36-C3-H35=107.95              C5-C4-C3=129.27                S29-C4-C3=120.20               
S29-C4-C5=110.39               C6-C5-C4=113.81                H37-C5-C4=123.08               H37-C5-C6=123.10               
C7-C6-C5=114.22                H38-C6-C5=124.11               H38-C6-C7=121.67               C8-C7-C6=129.40                
S29-C7-C6=110.09               S29-C7-C8=120.51               C9-C8-C7=128.44                S28-C8-C7=120.63               
S28-C8-C9=110.92               C10-C9-C8=114.04               H39-C9-C8=122.94               H39-C9-C10=123.01              
C11-C10-C9=121.19              C12-C10-C9=112.27              C12-C10-C11=126.52             

 selected dihedral angles (degree)
 ---------------------------------
C3-C2-N1-H30=195.07           C3-C2-N1-H31= 72.69           C3-C2-N1-H32=316.74           H33-C2-N1-H30= 73.26          
H33-C2-N1-H31=310.88          H33-C2-N1-H32=194.93          H34-C2-N1-H30=314.18          H34-C2-N1-H31=191.80          
H34-C2-N1-H32= 75.85          C4-C3-C2-N1= 61.83            C4-C3-C2-H33=182.74           C4-C3-C2-H34=303.48           
H35-C3-C2-N1=299.39           H35-C3-C2-H33= 60.30          H35-C3-C2-H34=181.04          H36-C3-C2-N1=181.61           
H36-C3-C2-H33=302.53          H36-C3-C2-H34= 63.26          C5-C4-C3-C2= 98.70            C5-C4-C3-H35=220.59           
C5-C4-C3-H36=339.24           S29-C4-C3-C2=283.38           S29-C4-C3-H35= 45.27          S29-C4-C3-H36=163.92          
C6-C5-C4-C3=184.85            C6-C5-C4-S29=  0.54           H37-C5-C4-C3=  5.18           H37-C5-C4-S29=180.87          
C7-C6-C5-C4=  0.68            C7-C6-C5-H37=180.36           H38-C6-C5-C4=180.82           H38-C6-C5-H37=  0.50          
C8-C7-C6-C5=178.90            C8-C7-C6-H38=358.77           S29-C7-C6-C5=358.43           S29-C7-C6-H38=178.30          
C9-C8-C7-C6=177.22            C9-C8-C7-S29=357.73           S28-C8-C7-C6=357.97           S28-C8-C7-S29=178.48          
C10-C9-C8-C7=179.62           C10-C9-C8-S28=358.93          H39-C9-C8-C7=358.90           H39-C9-C8-S28=178.20          
C11-C10-C9-C8=177.91          C11-C10-C9-H39=358.64         C12-C10-C9-C8=359.65          C12-C10-C9-H39=180.38         
           -------------------------------------------------
          |                Final Singlepoint                |
           -------------------------------------------------

          ...................................................
          :                      SETUP                      :
          :.................................................:
          :  # basis functions                 160          :
          :  # atomic orbitals                 156          :
          :  # shells                           82          :
          :  # electrons                       146          :
          :  max. iterations                   250          :
          :  Hamiltonian                  GFN2-xTB          :
          :  restarted?                      false          :
          :  GBSA solvation                  false          :
          :  PC potential                    false          :
          :  electronic temp.          300.0000000     K    :
          :  accuracy                    1.0000000          :
          :  -> integral cutoff          0.2500000E+02      :
          :  -> integral neglect         0.1000000E-07      :
          :  -> SCF convergence          0.1000000E-05 Eh   :
          :  -> wf. convergence          0.1000000E-03 e    :
          :  Broyden damping             0.4000000          :
          ...................................................

 iter      E             dE          RMSdq      gap      omega  full diag
   1    -79.7968876 -0.797969E+02  0.107E-04    1.33       0.0  T
   2    -79.7968876 -0.134861E-10  0.861E-05    1.33     165.9  T
   3    -79.7968876 -0.333529E-09  0.296E-05    1.33     482.3  T

   *** convergence criteria satisfied after 3 iterations ***

         #    Occupation            Energy/Eh            Energy/eV
      -------------------------------------------------------------
         1        2.0000           -0.8668215             -23.5874
       ...           ...                  ...                  ...
        67        2.0000           -0.4759454             -12.9511
        68        2.0000           -0.4740741             -12.9002
        69        2.0000           -0.4717264             -12.8363
        70        2.0000           -0.4650192             -12.6538
        71        2.0000           -0.4526012             -12.3159
        72        2.0000           -0.4410115             -12.0005
        73        2.0000           -0.4258687             -11.5885 (HOMO)
        74                         -0.3770387             -10.2597 (LUMO)
        75                         -0.3611435              -9.8272
        76                         -0.3297854              -8.9739
        77                         -0.3203315              -8.7167
        78                         -0.3029569              -8.2439
       ...                                ...                  ...
       156                          0.6659130              18.1204
      -------------------------------------------------------------
                  HL-Gap            0.0488300 Eh            1.3287 eV
             Fermi-level           -0.4014537 Eh          -10.9241 eV

 SCC (total)                   0 d,  0 h,  0 min,  0.088 sec
 SCC setup                      ...        0 min,  0.000 sec (  0.247%)
 Dispersion                     ...        0 min,  0.001 sec (  1.210%)
 classical contributions        ...        0 min,  0.000 sec (  0.071%)
 integral evaluation            ...        0 min,  0.006 sec (  6.699%)
 iterations                     ...        0 min,  0.064 sec ( 72.666%)
 molecular gradient             ...        0 min,  0.015 sec ( 16.492%)
 printout                       ...        0 min,  0.002 sec (  2.247%)

         :::::::::::::::::::::::::::::::::::::::::::::::::::::
         ::                     SUMMARY                     ::
         :::::::::::::::::::::::::::::::::::::::::::::::::::::
         :: total energy             -78.644806055313 Eh    ::
         :: gradient norm              0.000283405657 Eh/a0 ::
         :: HOMO-LUMO gap              1.328730990801 eV    ::
         ::.................................................::
         :: SCC energy               -79.796887611351 Eh    ::
         :: -> isotropic ES            0.113109596977 Eh    ::
         :: -> anisotropic ES         -0.016045172273 Eh    ::
         :: -> anisotropic XC          0.041977975306 Eh    ::
         :: -> dispersion             -0.065607672697 Eh    ::
         :: repulsion energy           1.152623197283 Eh    ::
         :: add. restraining           0.000000000000 Eh    ::
         :: total charge               1.000000000000 e     ::
         :::::::::::::::::::::::::::::::::::::::::::::::::::::

           -------------------------------------------------
          |                Property Printout                |
           -------------------------------------------------

    * Orbital Energies and Occupations

         #    Occupation            Energy/Eh            Energy/eV
      -------------------------------------------------------------
         1        2.0000           -0.8668215             -23.5874
       ...           ...                  ...                  ...
        61        2.0000           -0.5115919             -13.9211
        62        2.0000           -0.5104841             -13.8910
        63        2.0000           -0.5064151             -13.7803
        64        2.0000           -0.4982989             -13.5594
        65        2.0000           -0.4964504             -13.5091
        66        2.0000           -0.4804285             -13.0731
        67        2.0000           -0.4759454             -12.9511
        68        2.0000           -0.4740741             -12.9002
        69        2.0000           -0.4717264             -12.8363
        70        2.0000           -0.4650192             -12.6538
        71        2.0000           -0.4526012             -12.3159
        72        2.0000           -0.4410115             -12.0005
        73        2.0000           -0.4258687             -11.5885 (HOMO)
        74                         -0.3770387             -10.2597 (LUMO)
        75                         -0.3611435              -9.8272
        76                         -0.3297854              -8.9739
        77                         -0.3203315              -8.7167
        78                         -0.3029569              -8.2439
        79                         -0.2844149              -7.7393
        80                         -0.2820235              -7.6742
        81                         -0.2755815              -7.4990
        82                         -0.2667692              -7.2592
        83                         -0.2559229              -6.9640
        84                         -0.2476775              -6.7396
       ...                                ...                  ...
       156                          0.6659130              18.1204
      -------------------------------------------------------------
                  HL-Gap            0.0488300 Eh            1.3287 eV
             Fermi-level           -0.4014537 Eh          -10.9241 eV

     #   Z          covCN         q      C6AA      α(0)
     1   7 N        3.482    -0.150    24.242     7.313
     2   6 C        3.733    -0.030    21.199     6.572
     3   6 C        3.822    -0.086    22.118     6.693
     4   6 C        2.984    -0.010    28.256     8.719
     5   6 C        3.089    -0.043    28.950     8.820
     6   6 C        3.105    -0.054    29.188     8.852
     7   6 C        3.018     0.036    27.173     8.551
     8   6 C        3.018    -0.000    28.014     8.682
     9   6 C        3.100    -0.055    29.237     8.861
    10   6 C        3.124    -0.001    27.855     8.643
    11   6 C        3.755    -0.106    22.582     6.776
    12   6 C        2.996     0.022    27.511     8.604
    13   6 C        3.007    -0.009    28.234     8.716
    14   6 C        2.922    -0.039    28.980     8.828
    15   6 C        2.923    -0.045    29.128     8.851
    16   6 C        2.998     0.007    27.854     8.657
    17   6 C        2.997     0.007    27.862     8.659
    18   6 C        3.135     0.005    27.697     8.614
    19   6 C        3.755    -0.106    22.582     6.776
    20   6 C        3.119    -0.052    29.106     8.836
    21   6 C        2.934    -0.018    28.466     8.750
    22  16 S        2.334     0.009   140.701    19.964
    23   6 C        3.351     0.072    23.768     7.681
    24   7 N        1.867    -0.253    27.438     7.764
    25  16 S        2.663     0.364   127.097    18.974
    26   7 N        1.943    -0.268    27.802     7.819
    27   6 C        3.352     0.072    23.734     7.672
    28  16 S        2.435    -0.007   141.334    20.009
    29  16 S        2.365    -0.116   145.905    20.330
    30   1 H        0.859     0.260     0.845     1.440
    31   1 H        0.859     0.265     0.828     1.426
    32   1 H        0.887     0.285     0.757     1.362
    33   1 H        0.925     0.101     1.774     2.083
    34   1 H        0.924     0.105     1.744     2.065
    35   1 H        0.924     0.075     2.028     2.227
    36   1 H        0.925     0.096     1.826     2.113
    37   1 H        0.926     0.053     2.282     2.362
    38   1 H        0.926     0.061     2.186     2.312
    39   1 H        0.926     0.035     2.515     2.480
    40   1 H        0.925     0.051     2.313     2.378
    41   1 H        0.925     0.055     2.255     2.348
    42   1 H        0.925     0.051     2.303     2.373
    43   1 H        0.926     0.051     2.303     2.373
    44   1 H        0.926     0.054     2.274     2.358
    45   1 H        0.925     0.047     2.360     2.402
    46   1 H        0.924     0.052     2.296     2.370
    47   1 H        0.925     0.055     2.257     2.349
    48   1 H        0.926     0.047     2.359     2.402
    49   1 H        0.926     0.056     2.243     2.342

 Mol. C6AA /au·bohr⁶  :      41553.233357
 Mol. C8AA /au·bohr⁸  :    1230116.768639
 Mol. α(0) /au        :        327.552703


Wiberg/Mayer (AO) data.
largest (>0.10) Wiberg bond orders for each atom

 ---------------------------------------------------------------------------
     #   Z sym  total        # sym  WBO       # sym  WBO       # sym  WBO
 ---------------------------------------------------------------------------
     1   7 N    3.658 --     2 C    0.940    30 H    0.918    31 H    0.914
                            32 H    0.822
     2   6 C    3.901 --     3 C    0.991    34 H    0.968    33 H    0.968
                             1 N    0.940
     3   6 C    3.982 --     4 C    1.022     2 C    0.991    35 H    0.964
                            36 H    0.957
     4   6 C    3.894 --     5 C    1.594    29 S    1.086     3 C    1.022
     5   6 C    3.987 --     4 C    1.594     6 C    1.291    37 H    0.960
     6   6 C    3.964 --     7 C    1.509     5 C    1.291    38 H    0.957
     7   6 C    3.941 --     6 C    1.509     8 C    1.189    29 S    1.068
     8   6 C    3.931 --     9 C    1.445     7 C    1.189    28 S    1.119
     9   6 C    3.981 --     8 C    1.445    10 C    1.342    39 H    0.961
    10   6 C    3.949 --    12 C    1.420     9 C    1.342    11 C    1.026
    11   6 C    3.994 --    10 C    1.026    40 H    0.982    41 H    0.972
                            42 H    0.965
    12   6 C    3.934 --    10 C    1.420    28 S    1.152    13 C    1.150
    13   6 C    3.948 --    14 C    1.419    27 C    1.190    12 C    1.150
    14   6 C    3.973 --    13 C    1.419    15 C    1.376    43 H    0.962
    15   6 C    3.986 --    16 C    1.424    14 C    1.376    44 H    0.964
    16   6 C    3.943 --    15 C    1.424    23 C    1.187    17 C    1.146
    17   6 C    3.941 --    18 C    1.460    16 C    1.146    22 S    1.127
    18   6 C    3.948 --    17 C    1.460    20 C    1.289    19 C    1.027
    19   6 C    3.995 --    18 C    1.027    47 H    0.979    45 H    0.976
                            46 H    0.963
    20   6 C    3.980 --    21 C    1.585    18 C    1.289    48 H    0.964
    21   6 C    3.923 --    20 C    1.585    22 S    1.227    49 H    0.969
    22  16 S    2.660 --    21 C    1.227    17 C    1.127
    23   6 C    3.973 --    24 N    1.391    16 C    1.187    27 C    1.177
    24   7 N    3.108 --    25 S    1.442    23 C    1.391    26 N    0.158
    25  16 S    3.175 --    24 N    1.442    26 N    1.400
    26   7 N    3.124 --    25 S    1.400    27 C    1.389    24 N    0.158
    27   6 C    3.970 --    26 N    1.389    13 C    1.190    23 C    1.177
    28  16 S    2.669 --    12 C    1.152     8 C    1.119
    29  16 S    2.545 --     4 C    1.086     7 C    1.068
    30   1 H    0.932 --     1 N    0.918
    31   1 H    0.930 --     1 N    0.914
    32   1 H    0.918 --     1 N    0.822
    33   1 H    0.988 --     2 C    0.968
    34   1 H    0.989 --     2 C    0.968
    35   1 H    0.993 --     3 C    0.964
    36   1 H    0.990 --     3 C    0.957
    37   1 H    0.997 --     5 C    0.960
    38   1 H    0.996 --     6 C    0.957
    39   1 H    0.998 --     9 C    0.961
    40   1 H    0.997 --    11 C    0.982
    41   1 H    0.996 --    11 C    0.972
    42   1 H    0.995 --    11 C    0.965
    43   1 H    0.995 --    14 C    0.962
    44   1 H    0.995 --    15 C    0.964
    45   1 H    0.997 --    19 C    0.976
    46   1 H    0.995 --    19 C    0.963
    47   1 H    0.996 --    19 C    0.979
    48   1 H    0.997 --    20 C    0.964
    49   1 H    0.996 --    21 C    0.969
 ---------------------------------------------------------------------------

Topologies differ in total number of bonds
Writing topology from bond orders to xtbtopo.mol

molecular dipole:
                 x           y           z       tot (Debye)
 q only:        9.501       0.167       0.939
   full:       10.126      -0.107       1.163      25.907
molecular quadrupole (traceless):
                xx          xy          yy          xz          yz          zz
 q only:      136.992     -47.405     -70.759     -11.067      12.377     -66.233
  q+dip:      158.420     -59.306     -77.592      -4.160      12.215     -80.829
   full:      158.503     -56.181     -75.506      -4.021      11.192     -82.997

           -------------------------------------------------
          |                Geometry Summary                 |
           -------------------------------------------------

      molecular mass/u    :      454.6742641
   center of mass at/Å    :       10.3673737      -1.5870144      -2.3311953
  moments of inertia/u·Å² :        0.1218755E+04   0.1070698E+05   0.1159968E+05
rotational constants/cm⁻¹ :        0.1383185E-01   0.1574452E-02   0.1453284E-02

 * 51 selected distances

     #   Z          #   Z                                           value/Å
     1   7 N        2   6 C                                       1.4893186
     2   6 C        3   6 C                                       1.5326393
     4   6 C        5   6 C                                       1.3591392
     5   6 C        6   6 C                                       1.4070838
     6   6 C        7   6 C                                       1.3703725
     7   6 C        8   6 C                                       1.4162965
     8   6 C        9   6 C                                       1.3766459
     9   6 C       10   6 C                                       1.3996588
    10   6 C       11   6 C                                       1.4937630
    10   6 C       12   6 C                                       1.3892992
    12   6 C       13   6 C                                       1.4380391
    13   6 C       14   6 C                                       1.3874454
    14   6 C       15   6 C                                       1.3959658
    15   6 C       16   6 C                                       1.3869157
    16   6 C       17   6 C                                       1.4373752
    17   6 C       18   6 C                                       1.3824984
    18   6 C       19   6 C                                       1.4932003
    18   6 C       20   6 C                                       1.4110675
    20   6 C       21   6 C                                       1.3598716
    17   6 C       22  16 S                                       1.7443830
    21   6 C       22  16 S                                       1.7095874
    16   6 C       23   6 C                                       1.4204387
    23   6 C       24   7 N                                       1.3307491
    24   7 N       25  16 S                                       1.6006455
    25  16 S       26   7 N                                       1.6133689
    13   6 C       27   6 C                                       1.4194734
    23   6 C       27   6 C                                       1.4341877
    26   7 N       27   6 C                                       1.3313626
     8   6 C       28  16 S                                       1.7411060
    12   6 C       28  16 S                                       1.7381951
     7   6 C       29  16 S                                       1.7518877 (max)
     1   7 N       30   1 H                                       1.0238009 (min)
     1   7 N       31   1 H                                       1.0256913
     1   7 N       32   1 H                                       1.0607197
     2   6 C       33   1 H                                       1.0899849
     2   6 C       34   1 H                                       1.0907027
     3   6 C       35   1 H                                       1.0918557
     3   6 C       36   1 H                                       1.0897776
     5   6 C       37   1 H                                       1.0752510
     6   6 C       38   1 H                                       1.0741481
     9   6 C       39   1 H                                       1.0781086
    11   6 C       40   1 H                                       1.0876858
    11   6 C       41   1 H                                       1.0880661
    11   6 C       42   1 H                                       1.0901866
    14   6 C       43   1 H                                       1.0756611
    15   6 C       44   1 H                                       1.0767675
    19   6 C       45   1 H                                       1.0880714
    19   6 C       46   1 H                                       1.0906444
    19   6 C       47   1 H                                       1.0876327
    20   6 C       48   1 H                                       1.0754958
    21   6 C       49   1 H                                       1.0718952

 * 6 distinct bonds (by element types)

   Z      Z             #   av. dist./Å        max./Å        min./Å
   1 H    6 C          17     1.0836432     1.0918557     1.0718952
   6 C    6 C          21     1.4148275     1.5326393     1.3591392
   1 H    7 N           3     1.0367373     1.0607197     1.0238009
   6 C    7 N           3     1.3838101     1.4893186     1.3307491
   6 C   16 S           5     1.7370318     1.7518877     1.7095874
   7 N   16 S           2     1.6070072     1.6133689     1.6006455


optimized geometry written to: xtbopt.xyz


           -------------------------------------------------
          | TOTAL ENERGY              -78.644806055313 Eh   |
          | GRADIENT NORM               0.000283405657 Eh/α |
          | HOMO-LUMO GAP               1.328730990801 eV   |
           -------------------------------------------------

------------------------------------------------------------------------
 * finished run on 2023/01/23 at 13:58:59.526     
------------------------------------------------------------------------
 total:
 * wall-time:     0 d,  0 h,  0 min,  7.776 sec
 *  cpu-time:     0 d,  0 h, 18 min, 25.756 sec
 * ratio c/w:   142.198 speedup
 SCF:
 * wall-time:     0 d,  0 h,  0 min,  0.382 sec
 *  cpu-time:     0 d,  0 h,  0 min, 53.987 sec
 * ratio c/w:   141.258 speedup
 ANC optimizer:
 * wall-time:     0 d,  0 h,  0 min,  7.363 sec
 *  cpu-time:     0 d,  0 h, 17 min, 27.586 sec
 * ratio c/w:   142.273 speedup

