49
 energy: -78.644806055313 gnorm: 0.000283405657 xtb: 6.5.1 (fef0646)
N            3.52321052100160        0.80979500959604        1.29258698215790
C            2.72797979936810        1.30006908041660        0.13271240788467
C            3.56339975493617        2.32489731504520       -0.64238979368261
C            4.80604367943131        1.69567456898732       -1.17821994711964
C            5.06096461692031        1.22144893618700       -2.42617204526931
C            6.31354171363261        0.59247555423344       -2.54997611913941
C            7.04253879945225        0.55833848291523       -1.39009750231172
C            8.31826028174435       -0.00655377985857       -1.14652645093021
C            9.05648928127120        0.01553918834014        0.01523230078524
C           10.28453591006748       -0.64965763011846       -0.07674080665592
C           11.23363053744962       -0.68453828830257        1.07622503991190
C           10.49133556834762       -1.20171916430316       -1.33476067077015
C           11.58151674175663       -1.98350573045605       -1.85270925445435
C           12.56038062053963       -2.60960119590462       -1.09453097489473
C           13.59205792843051       -3.36501344316421       -1.65463317311836
C           13.73590645278988       -3.56664413613419       -3.01925304333659
C           14.78798263593139       -4.34246963762147       -3.61698011243332
C           15.51650033272791       -5.39842128245611       -3.10168454811957
C           15.31715798197711       -6.04481174036732       -1.77048630144080
C           16.47478436745034       -5.87489337135691       -4.02134596365864
C           16.47644789317335       -5.19725400362814       -5.20035080265564
S           15.28572967730093       -3.97141189285818       -5.24714434462076
C           12.75672386160568       -2.93724929250133       -3.83332260988517
N           12.66460864020870       -2.98562908102825       -5.15999778479883
S           11.37923942218696       -2.15979363547372       -5.63737315580653
N           10.85979381271030       -1.69755099754093       -4.18153434457218
C           11.68832581640835       -2.17492225184356       -3.25515566667380
S            9.17146676286004       -0.84856814003470       -2.40926166616033
S            6.16957798633556        1.37049220892065       -0.10656494021006
H            3.13192820348617       -0.04238387056260        1.70350955152134
H            3.58848382291962        1.53434761110634        2.01563975467716
H            4.50803641897375        0.63764015966947        0.93817645654188
H            1.79533465752344        1.73955154158954        0.48640021828052
H            2.50123007528548        0.45034144281775       -0.51240752121253
H            3.80747908423347        3.16818976093085        0.00678796233116
H            2.96733815492057        2.70209237343783       -1.47308197700777
H            4.37112000849271        1.32256329628206       -3.24474076675383
H            6.68797423192136        0.17061942692677       -3.46410503291339
H            8.72315004834246        0.51201806819002        0.91228952704548
H           10.93519009024558        0.05475048726439        1.81612065060078
H           12.24770022836224       -0.45989411892640        0.75205630286083
H           11.22880831718128       -1.66240540360767        1.55815787053372
H           12.53126210208816       -2.53749828077426       -0.02168440133943
H           14.32282196318882       -3.78400108888107       -0.98391616539254
H           14.26780686918551       -6.03722813692131       -1.48290357144902
H           15.89383735459220       -5.53158645892165       -1.00006720062811
H           15.66285619061036       -7.07524040693361       -1.81115746812227
H           17.13677147378448       -6.69462745076983       -3.80570710140639
H           17.10650930664654       -5.35725060160428       -6.05263179618945
