13
 energy: -17.938577110516 gnorm: 0.000729447150 xtb: 6.5.1 (fef0646)
N            1.10053898709710       -0.34014972137573       -0.17770531908244
C            2.54154246674469       -0.36242307980284       -0.11634039684772
C            3.32123914316649        0.46715260545256       -1.08289038316964
C            3.36578759052593       -1.03272896514479       -1.17930833117978
Cl          -0.01850852405075        2.04615359868607        1.16117943569868
H            0.51705117280141        0.95596416432446        0.55832346136949
H            0.70127480463256       -1.17510194514917        0.23985617443921
H            0.78211705228964       -0.27025652387125       -1.13918793911589
H            2.88902445609275       -0.41752137232107        0.90731783512238
H            4.19304572060517        0.99135105557783       -0.72704444589147
H            2.77076047724812        1.00642573405172       -1.83840926198684
H            4.27036949506961       -1.54349254019543       -0.88906719617955
H            2.85087715777741       -1.49944301023242       -2.00639363317635
