28
 energy: -40.339819032295 gnorm: 0.000393099502 xtb: 6.5.1 (fef0646)
N            1.06157587022365       -0.29745840395037        0.22352329106433
C            2.53303182685810       -0.34300903568761        0.12648957134688
C            3.16718034135801       -0.58426247718342        1.49838309075795
C            4.66480882274390       -0.62807038752250        1.36166644169085
C            5.41399787555563        0.51629555708797        1.44479270549926
C            6.81292204226695        0.49139597384832        1.27537925488300
C            7.59815020761646        1.66103900082180        1.35141530521059
C            8.95245350447828        1.60531647218593        1.17718603596279
C            9.58517445278878        0.37812173807618        0.92214972467798
C            8.85219963172952       -0.77306270107820        0.84396292947158
C            7.45285477999818       -0.74848098193966        1.01521718405078
C            6.66258012465721       -1.91423460066250        0.93568525368195
C            5.30838047846300       -1.85347415644329        1.10061438698490
Cl          -0.16228536756010        0.37690179147516       -2.47834385462568
H            0.63683142961091       -0.08185067692788       -0.71571530662655
H            0.76185571633190        0.43856668634299        0.86759433293482
H            0.68364844566375       -1.19550710195808        0.53438954809571
H            2.88510460780366        0.60093583035271       -0.28892511005578
H            2.81498229214436       -1.13620721905878       -0.56530735766801
H            2.81449966698780       -1.53079078813123        1.90823351638474
H            2.89116703079346        0.22195857339918        2.17807531768382
H            4.94061980527112        1.46662395139249        1.64524489931104
H            7.10931911175804        2.60435347576408        1.54788425861565
H            9.54756241056804        2.50494924670619        1.23357956672118
H           10.65651837155402        0.35316507399460        0.78702529563537
H            9.33506236534351       -1.71960304767225        0.64670486857778
H            7.15112862107061       -2.85774408501399        0.73914165842038
H            4.71781553390888       -2.75511770822357        1.03587319131799
