      -----------------------------------------------------------      
     |                   =====================                   |     
     |                           x T B                           |     
     |                   =====================                   |     
     |                         S. Grimme                         |     
     |          Mulliken Center for Theoretical Chemistry        |     
     |                    University of Bonn                     |     
      -----------------------------------------------------------      

   * xtb version 6.5.1 (fef0646) compiled by 'conda@b96dff2e9fd6' on 2023-01-04

   xtb is free software: you can redistribute it and/or modify it under
   the terms of the GNU Lesser General Public License as published by
   the Free Software Foundation, either version 3 of the License, or
   (at your option) any later version.
   
   xtb is distributed in the hope that it will be useful,
   but WITHOUT ANY WARRANTY; without even the implied warranty of
   MERCHANTABILITY or FITNESS FOR A PARTICULAR PURPOSE.  See the
   GNU Lesser General Public License for more details.
   
   Cite this work as:
   * C. Bannwarth, E. Caldeweyher, S. Ehlert, A. Hansen, P. Pracht,
     J. Seibert, S. Spicher, S. Grimme, WIREs Comput. Mol. Sci., 2020, 11,
     e01493. DOI: 10.1002/wcms.1493
   
   for GFN2-xTB:
   * C. Bannwarth, S. Ehlert and S. Grimme., J. Chem. Theory Comput., 2019,
     15, 1652-1671. DOI: 10.1021/acs.jctc.8b01176
   for GFN1-xTB:
   * S. Grimme, C. Bannwarth, P. Shushkov, J. Chem. Theory Comput., 2017,
     13, 1989-2009. DOI: 10.1021/acs.jctc.7b00118
   for GFN0-xTB:
   * P. Pracht, E. Caldeweyher, S. Ehlert, S. Grimme, ChemRxiv, 2019, preprint.
     DOI: 10.26434/chemrxiv.8326202.v1
   for GFN-FF:
   * S. Spicher and S. Grimme, Angew. Chem. Int. Ed., 2020, 59, 15665-15673.
     DOI: 10.1002/anie.202004239
   
   for ALPB and GBSA implicit solvation:
   * S. Ehlert, M. Stahn, S. Spicher, S. Grimme, J. Chem. Theory Comput.,
     2021, 17, 4250-4261. DOI: 10.1021/acs.jctc.1c00471
   
   for DFT-D4:
   * E. Caldeweyher, C. Bannwarth and S. Grimme, J. Chem. Phys., 2017,
     147, 034112. DOI: 10.1063/1.4993215
   * E. Caldeweyher, S. Ehlert, A. Hansen, H. Neugebauer, S. Spicher,
     C. Bannwarth and S. Grimme, J. Chem. Phys., 2019, 150, 154122.
     DOI: 10.1063/1.5090222
   * E. Caldeweyher, J.-M. Mewes, S. Ehlert and S. Grimme, Phys. Chem. Chem. Phys.
     2020, 22, 8499-8512. DOI: 10.1039/D0CP00502A
   
   for sTDA-xTB:
   * S. Grimme and C. Bannwarth, J. Chem. Phys., 2016, 145, 054103.
     DOI: 10.1063/1.4959605
   
   in the mass-spec context:
   * V. Asgeirsson, C. Bauer and S. Grimme, Chem. Sci., 2017, 8, 4879.
     DOI: 10.1039/c7sc00601b
   * J. Koopman and S. Grimme, ACS Omega 2019, 4, 12, 15120-15133.
     DOI: 10.1021/acsomega.9b02011
   
   for metadynamics refer to:
   * S. Grimme, J. Chem. Theory Comput., 2019, 155, 2847-2862
     DOI: 10.1021/acs.jctc.9b00143
   
   for SPH calculations refer to:
   * S. Spicher and S. Grimme, J. Chem. Theory Comput., 2021, 17, 1701-1714
     DOI: 10.1021/acs.jctc.0c01306
   
   with help from (in alphabetical order)
   P. Atkinson, C. Bannwarth, F. Bohle, G. Brandenburg, E. Caldeweyher
   M. Checinski, S. Dohm, S. Ehlert, S. Ehrlich, I. Gerasimov, C. Hölzer
   A. Katbashev, J. Koopman, C. Lavigne, S. Lehtola, F. März, M. Müller,
   F. Musil, H. Neugebauer, J. Pisarek, C. Plett, P. Pracht, F. Pultar,
   J. Seibert, P. Shushkov, S. Spicher, M. Stahn, M. Steiner, T. Strunk,
   J. Stückrath, T. Rose, and J. Unsleber
   
 * started run on 2023/01/24 at 16:47:26.771     

           -------------------------------------------------
          |                Calculation Setup                |
           -------------------------------------------------

          program call               : xtb init.xyz --opt -c 0 -u 0 -P 16 --alpb water
          hostname                   : gpg-woodward
          coordinate file            : init.xyz
          omp threads                :                    16

   ID    Z sym.   atoms
    1    7 N      1
    2    6 C      2, 3, 5-20
    3    8 O      4
    4   17 Cl     21
    5    1 H      22-37

molecular fragmentation (1/2 indicates fragments):
1111111111111111111121111111111111111
# atoms in fragment 1/2:    36     1
 fragment masses (1/2) :      262.33       35.45
CMA distance (Bohr)    :  15.477
constraining FC (au)   :  0.0500

           -------------------------------------------------
          |                 G F N 2 - x T B                 |
           -------------------------------------------------

        Reference                      10.1021/acs.jctc.8b01176
      * Hamiltonian:
        H0-scaling (s, p, d)           1.850000    2.230000    2.230000
        zeta-weighting                 0.500000
      * Dispersion:
        s8                             2.700000
        a1                             0.520000
        a2                             5.000000
        s9                             5.000000
      * Repulsion:
        kExp                           1.500000    1.000000
        rExp                           1.000000
      * Coulomb:
        alpha                          2.000000
        third order                    shell-resolved
        anisotropic                    true
        a3                             3.000000
        a5                             4.000000
        cn-shift                       1.200000
        cn-exp                         4.000000
        max-rad                        5.000000

      * Solvation model:               ALPB
        Solvent                        water
        Parameter file                 internal GFN2-xTB/ALPB
        Dielectric constant                8.0200E+01
        Reference state                gsolv [1 M gas/solution]
        Free energy shift                  1.0808E-03 Eh       6.7819E-01 kcal/mol
        Temperature                        2.9815E+02 K
        Density                            1.0000E+00 kg/L
        Solvent mass                       1.8000E+01 g/mol
        Interaction kernel             P16
        Born radius scaling (c1)           1.4744E+00
        Born radii integrator          GBOBC
        Born offset                        0.0000E+00 a0       0.0000E+00 AA
        H-bond correction              true
        Ion screening                  false
        Surface tension                    1.0000E-05 Eh       1.5569E+01 dyn/cm
        Grid points                               230 per atom

          ...................................................
          :                      SETUP                      :
          :.................................................:
          :  # basis functions                 106          :
          :  # atomic orbitals                 105          :
          :  # shells                           59          :
          :  # electrons                       106          :
          :  max. iterations                   250          :
          :  Hamiltonian                  GFN2-xTB          :
          :  restarted?                      false          :
          :  GBSA solvation                   true          :
          :  PC potential                    false          :
          :  electronic temp.          300.0000000     K    :
          :  accuracy                    1.0000000          :
          :  -> integral cutoff          0.2500000E+02      :
          :  -> integral neglect         0.1000000E-07      :
          :  -> SCF convergence          0.1000000E-05 Eh   :
          :  -> wf. convergence          0.1000000E-03 e    :
          :  Broyden damping             0.4000000          :
          ...................................................

 iter      E             dE          RMSdq      gap      omega  full diag
   1    -59.0764157 -0.590764E+02  0.413E+00    2.09       0.0  T
   2    -59.1711194 -0.947037E-01  0.232E+00    2.06       1.0  T
   3    -59.1713848 -0.265460E-03  0.107E+00    2.08       1.0  T
   4    -59.1754222 -0.403737E-02  0.532E-01    2.05       1.0  T
   5    -59.1806983 -0.527607E-02  0.256E-01    2.06       1.0  T
   6    -59.1813009 -0.602662E-03  0.198E-01    2.06       1.0  T
   7    -59.1818199 -0.518997E-03  0.893E-02    2.06       1.0  T
   8    -59.1819281 -0.108205E-03  0.494E-02    2.06       1.0  T
   9    -59.1819534 -0.252483E-04  0.209E-02    2.06       1.0  T
  10    -59.1819579 -0.450268E-05  0.826E-03    2.06       2.0  T
  11    -59.1819584 -0.519532E-06  0.381E-03    2.06       4.3  T
  12    -59.1819587 -0.245552E-06  0.119E-03    2.06      13.8  T
  13    -59.1819587 -0.110375E-07  0.637E-04    2.06      25.8  T
  14    -59.1819587 -0.212518E-08  0.374E-04    2.06      44.0  T

   *** convergence criteria satisfied after 14 iterations ***

         #    Occupation            Energy/Eh            Energy/eV
      -------------------------------------------------------------
         1        2.0000           -1.0135870             -27.5811
       ...           ...                  ...                  ...
        47        2.0000           -0.4044596             -11.0059
        48        2.0000           -0.4042650             -11.0006
        49        2.0000           -0.4030819             -10.9684
        50        2.0000           -0.4023372             -10.9482
        51        2.0000           -0.3971926             -10.8082
        52        2.0000           -0.3882089             -10.5637
        53        2.0000           -0.3504321              -9.5357 (HOMO)
        54                         -0.2748911              -7.4802 (LUMO)
        55                         -0.2364850              -6.4351
        56                         -0.2236286              -6.0852
        57                         -0.1939562              -5.2778
        58                         -0.1798098              -4.8929
       ...                                ...                  ...
       105                          0.7287909              19.8314
      -------------------------------------------------------------
                  HL-Gap            0.0755410 Eh            2.0556 eV
             Fermi-level           -0.3126616 Eh           -8.5080 eV

 SCC (total)                   0 d,  0 h,  0 min,  0.122 sec
 SCC setup                      ...        0 min,  0.000 sec (  0.360%)
 Dispersion                     ...        0 min,  0.001 sec (  0.738%)
 classical contributions        ...        0 min,  0.000 sec (  0.049%)
 integral evaluation            ...        0 min,  0.002 sec (  1.576%)
 iterations                     ...        0 min,  0.113 sec ( 92.812%)
 molecular gradient             ...        0 min,  0.004 sec (  3.597%)
 printout                       ...        0 min,  0.001 sec (  0.605%)

         :::::::::::::::::::::::::::::::::::::::::::::::::::::
         ::                     SUMMARY                     ::
         :::::::::::::::::::::::::::::::::::::::::::::::::::::
         :: total energy             -58.293584500766 Eh    ::
         :: total w/o Gsasa/hb       -58.284704010814 Eh    ::
         :: gradient norm              0.100335865034 Eh/a0 ::
         :: HOMO-LUMO gap              2.055575129693 eV    ::
         ::.................................................::
         :: SCC energy               -59.181958673704 Eh    ::
         :: -> isotropic ES            0.122273982579 Eh    ::
         :: -> anisotropic ES         -0.024040750255 Eh    ::
         :: -> anisotropic XC          0.016723702539 Eh    ::
         :: -> dispersion             -0.041652424315 Eh    ::
         :: -> Gsolv                  -0.066138384741 Eh    ::
         ::    -> Gelec               -0.057257894788 Eh    ::
         ::    -> Gsasa               -0.002665382400 Eh    ::
         ::    -> Ghb                 -0.007295867250 Eh    ::
         ::    -> Gshift               0.001080759698 Eh    ::
         :: repulsion energy           0.888486524376 Eh    ::
         :: add. restraining           0.000000000000 Eh    ::
         :: total charge               0.000000000000 e     ::
         :::::::::::::::::::::::::::::::::::::::::::::::::::::

      ----------------------------------------------------------- 
     |                   =====================                   |
     |                        A N C O P T                        |
     |                   =====================                   |
     |               Approximate Normal Coordinate               |
     |                Rational Function Optimizer                |
      ----------------------------------------------------------- 

          ...................................................
          :                      SETUP                      :
          :.................................................:
          :   optimization level            normal          :
          :   max. optcycles                   200          :
          :   ANC micro-cycles                  20          :
          :   degrees of freedom               105          :
          :.................................................:
          :   RF solver                   davidson          :
          :   write xtbopt.log                true          :
          :   linear?                        false          :
          :   energy convergence         0.5000000E-05 Eh   :
          :   grad. convergence          0.1000000E-02 Eh/α :
          :   maximium RF displ.         1.0000000          :
          :   Hlow (freq-cutoff)         0.1000000E-01      :
          :   Hmax (freq-cutoff)         5.0000000          :
          :   S6 in model hess.         20.0000000          :
          ...................................................

generating ANC from model Hessian ...
Using Lindh-Hessian (1995)
 Shifting diagonal of input Hessian by    9.9916042226090001E-003
 Lowest  eigenvalues of input Hessian
    0.000000    0.000000    0.000000    0.000000    0.000000    0.000000
    0.010000    0.010340    0.010731    0.011435    0.012630    0.012815
    0.013618    0.016572    0.017075    0.018298    0.022175    0.022715
 Highest eigenvalues
    1.868100    1.931694    1.965029    2.029214    2.116300    2.142337


........................................................................
.............................. CYCLE    1 ..............................
........................................................................
   1    -59.1819587 -0.591820E+02  0.152E-04    2.06       0.0  T
   2    -59.1819587 -0.948432E-10  0.118E-04    2.06     139.1  T
   3    -59.1819587 -0.269864E-10  0.888E-05    2.06     185.2  T
     SCC iter.                  ...        0 min,  0.023 sec
     gradient                   ...        0 min,  0.005 sec
 * total energy  :   -58.2935845 Eh     change       -0.1668944E-08 Eh
   gradient norm :     0.1003349 Eh/α   predicted     0.0000000E+00 (-100.00%)
   displ. norm   :     0.3265578 α      lambda       -0.1363360E-01
   maximum displ.:     0.2338370 α      in ANC's #21, #24, #29, ...

........................................................................
.............................. CYCLE    2 ..............................
........................................................................
   1    -59.2077990 -0.592078E+02  0.197E-01    2.19       0.0  T
   2    -59.2079226 -0.123597E-03  0.114E-01    2.19       1.0  T
   3    -59.2079124  0.101703E-04  0.399E-02    2.19       1.0  T
   4    -59.2079350 -0.226543E-04  0.143E-02    2.19       1.2  T
   5    -59.2079388 -0.371743E-05  0.504E-03    2.19       3.3  T
   6    -59.2079390 -0.246014E-06  0.337E-03    2.19       4.9  T
   7    -59.2079391 -0.782219E-07  0.211E-03    2.19       7.8  T
   8    -59.2079391 -0.450058E-07  0.136E-03    2.19      12.1  T
   9    -59.2079391 -0.189878E-07  0.647E-04    2.19      25.4  T
  10    -59.2079392 -0.515684E-08  0.198E-04    2.19      82.9  T
     SCC iter.                  ...        0 min,  0.075 sec
     gradient                   ...        0 min,  0.005 sec
 * total energy  :   -58.3025896 Eh     change       -0.9005077E-02 Eh
   gradient norm :     0.0443079 Eh/α   predicted    -0.7548647E-02 ( -16.17%)
   displ. norm   :     0.2341021 α      lambda       -0.3560060E-02
   maximum displ.:     0.1044624 α      in ANC's #21, #8, #4, ...

........................................................................
.............................. CYCLE    3 ..............................
........................................................................
   1    -59.2209767 -0.592210E+02  0.109E-01    2.29       0.0  T
   2    -59.2210082 -0.314495E-04  0.646E-02    2.29       1.0  T
   3    -59.2210028  0.541916E-05  0.247E-02    2.29       1.0  T
   4    -59.2210140 -0.111970E-04  0.725E-03    2.29       2.3  T
   5    -59.2210147 -0.709150E-06  0.384E-03    2.29       4.3  T
   6    -59.2210147 -0.890183E-07  0.277E-03    2.29       5.9  T
   7    -59.2210148 -0.634841E-07  0.163E-03    2.29      10.1  T
   8    -59.2210148 -0.312076E-07  0.908E-04    2.29      18.1  T
   9    -59.2210149 -0.833909E-08  0.403E-04    2.29      40.8  T
     SCC iter.                  ...        0 min,  0.067 sec
     gradient                   ...        0 min,  0.004 sec
 * total energy  :   -58.3047317 Eh     change       -0.2142099E-02 Eh
   gradient norm :     0.0119210 Eh/α   predicted    -0.1879374E-02 ( -12.26%)
   displ. norm   :     0.1916837 α      lambda       -0.6748218E-03
   maximum displ.:     0.1090682 α      in ANC's #4, #8, #7, ...

........................................................................
.............................. CYCLE    4 ..............................
........................................................................
   1    -59.2214128 -0.592214E+02  0.534E-02    2.31       0.0  T
   2    -59.2214170 -0.417142E-05  0.319E-02    2.31       1.0  T
   3    -59.2214166  0.381175E-06  0.978E-03    2.31       1.7  T
   4    -59.2214181 -0.148534E-05  0.491E-03    2.31       3.3  T
   5    -59.2214183 -0.219292E-06  0.338E-03    2.31       4.9  T
   6    -59.2214184 -0.765343E-07  0.212E-03    2.31       7.8  T
   7    -59.2214184 -0.538406E-07  0.972E-04    2.31      16.9  T
   8    -59.2214184 -0.150674E-07  0.396E-04    2.31      41.5  T
     SCC iter.                  ...        0 min,  0.059 sec
     gradient                   ...        0 min,  0.004 sec
 * total energy  :   -58.3052111 Eh     change       -0.4794258E-03 Eh
   gradient norm :     0.0076280 Eh/α   predicted    -0.3498287E-03 ( -27.03%)
   displ. norm   :     0.2275048 α      lambda       -0.3903324E-03
   maximum displ.:     0.1500656 α      in ANC's #4, #7, #3, ...

........................................................................
.............................. CYCLE    5 ..............................
........................................................................
   1    -59.2209529 -0.592210E+02  0.454E-02    2.31       0.0  T
   2    -59.2209552 -0.226038E-05  0.282E-02    2.31       1.0  T
   3    -59.2209555 -0.274551E-06  0.858E-03    2.31       1.9  T
   4    -59.2209566 -0.108999E-05  0.573E-03    2.31       2.9  T
   5    -59.2209568 -0.233249E-06  0.406E-03    2.31       4.0  T
   6    -59.2209569 -0.130788E-06  0.228E-03    2.31       7.2  T
   7    -59.2209570 -0.859401E-07  0.667E-04    2.31      24.6  T
   8    -59.2209570 -0.574727E-08  0.301E-04    2.31      54.6  T
     SCC iter.                  ...        0 min,  0.059 sec
     gradient                   ...        0 min,  0.004 sec
 * total energy  :   -58.3054739 Eh     change       -0.2628050E-03 Eh
   gradient norm :     0.0049199 Eh/α   predicted    -0.2052682E-03 ( -21.89%)
   displ. norm   :     0.1735094 α      lambda       -0.1684941E-03
   maximum displ.:     0.1191806 α      in ANC's #4, #3, #7, ...

........................................................................
.............................. CYCLE    6 ..............................
........................................................................
   1    -59.2212638 -0.592213E+02  0.276E-02    2.31       0.0  T
   2    -59.2212646 -0.841525E-06  0.176E-02    2.31       1.0  T
   3    -59.2212649 -0.295890E-06  0.644E-03    2.31       2.6  T
   4    -59.2212655 -0.595212E-06  0.457E-03    2.31       3.6  T
   5    -59.2212656 -0.145954E-06  0.282E-03    2.31       5.8  T
   6    -59.2212657 -0.103626E-06  0.112E-03    2.31      14.7  T
   7    -59.2212658 -0.212060E-07  0.349E-04    2.31      47.1  T
   8    -59.2212658 -0.955751E-09  0.171E-04    2.31      96.2  T
     SCC iter.                  ...        0 min,  0.059 sec
     gradient                   ...        0 min,  0.004 sec
 * total energy  :   -58.3056090 Eh     change       -0.1350532E-03 Eh
   gradient norm :     0.0041394 Eh/α   predicted    -0.8686752E-04 ( -35.68%)
   displ. norm   :     0.2131925 α      lambda       -0.1872547E-03
   maximum displ.:     0.1425647 α      in ANC's #4, #3, #2, ...

........................................................................
.............................. CYCLE    7 ..............................
........................................................................
   1    -59.2219590 -0.592220E+02  0.330E-02    2.30       0.0  T
   2    -59.2219603 -0.126813E-05  0.211E-02    2.30       1.0  T
   3    -59.2219610 -0.720826E-06  0.809E-03    2.30       2.0  T
   4    -59.2219617 -0.741011E-06  0.593E-03    2.30       2.8  T
   5    -59.2219620 -0.288461E-06  0.335E-03    2.30       4.9  T
   6    -59.2219622 -0.142668E-06  0.130E-03    2.30      12.6  T
   7    -59.2219622 -0.309394E-07  0.417E-04    2.30      39.4  T
   8    -59.2219622 -0.757183E-09  0.193E-04    2.30      85.0  T
     SCC iter.                  ...        0 min,  0.064 sec
     gradient                   ...        0 min,  0.004 sec
 * total energy  :   -58.3057630 Eh     change       -0.1539948E-03 Eh
   gradient norm :     0.0041723 Eh/α   predicted    -0.9788320E-04 ( -36.44%)
   displ. norm   :     0.2854278 α      lambda       -0.2070406E-03
   maximum displ.:     0.1870854 α      in ANC's #4, #3, #2, ...

........................................................................
.............................. CYCLE    8 ..............................
........................................................................
   1    -59.2225766 -0.592226E+02  0.424E-02    2.29       0.0  T
   2    -59.2225788 -0.219951E-05  0.274E-02    2.29       1.0  T
   3    -59.2225806 -0.177144E-05  0.108E-02    2.29       1.5  T
   4    -59.2225816 -0.104686E-05  0.823E-03    2.29       2.0  T
   5    -59.2225823 -0.683175E-06  0.388E-03    2.29       4.2  T
   6    -59.2225825 -0.185361E-06  0.147E-03    2.29      11.2  T
   7    -59.2225825 -0.420019E-07  0.502E-04    2.29      32.8  T
   8    -59.2225825 -0.917765E-09  0.215E-04    2.29      76.4  T
     SCC iter.                  ...        0 min,  0.059 sec
     gradient                   ...        0 min,  0.004 sec
 * total energy  :   -58.3059267 Eh     change       -0.1637567E-03 Eh
   gradient norm :     0.0048098 Eh/α   predicted    -0.1119562E-03 ( -31.63%)
   displ. norm   :     0.3184334 α      lambda       -0.1795040E-03
   maximum displ.:     0.2039220 α      in ANC's #4, #3, #2, ...

........................................................................
.............................. CYCLE    9 ..............................
........................................................................
   1    -59.2228677 -0.592229E+02  0.448E-02    2.29       0.0  T
   2    -59.2228704 -0.264651E-05  0.295E-02    2.29       1.0  T
   3    -59.2228729 -0.252007E-05  0.120E-02    2.29       1.4  T
   4    -59.2228741 -0.123881E-05  0.934E-03    2.29       1.8  T
   5    -59.2228751 -0.977409E-06  0.328E-03    2.29       5.0  T
   6    -59.2228753 -0.177250E-06  0.121E-03    2.29      13.6  T
   7    -59.2228753 -0.245644E-07  0.470E-04    2.29      35.0  T
   8    -59.2228753 -0.891525E-09  0.201E-04    2.29      81.6  T
     SCC iter.                  ...        0 min,  0.059 sec
     gradient                   ...        0 min,  0.004 sec
 * total energy  :   -58.3060673 Eh     change       -0.1406339E-03 Eh
   gradient norm :     0.0048852 Eh/α   predicted    -0.9885480E-04 ( -29.71%)
   displ. norm   :     0.3802561 α      lambda       -0.1815205E-03
   maximum displ.:     0.2361067 α      in ANC's #4, #3, #2, ...

........................................................................
.............................. CYCLE   10 ..............................
........................................................................
   1    -59.2228613 -0.592229E+02  0.528E-02    2.30       0.0  T
   2    -59.2228650 -0.364927E-05  0.349E-02    2.30       1.0  T
   3    -59.2228686 -0.364447E-05  0.143E-02    2.30       1.2  T
   4    -59.2228703 -0.170700E-05  0.111E-02    2.30       1.5  T
   5    -59.2228717 -0.138978E-05  0.357E-03    2.30       4.6  T
   6    -59.2228720 -0.262163E-06  0.116E-03    2.30      14.2  T
   7    -59.2228720 -0.137625E-07  0.544E-04    2.30      30.2  T
   8    -59.2228720 -0.164582E-08  0.179E-04    2.30      92.0  T
     SCC iter.                  ...        0 min,  0.060 sec
     gradient                   ...        0 min,  0.004 sec
 * total energy  :   -58.3062067 Eh     change       -0.1393910E-03 Eh
   gradient norm :     0.0046047 Eh/α   predicted    -0.1038840E-03 ( -25.47%)
   displ. norm   :     0.3520768 α      lambda       -0.1661127E-03
   maximum displ.:     0.2004052 α      in ANC's #4, #3, #1, ...

........................................................................
.............................. CYCLE   11 ..............................
........................................................................
   1    -59.2227536 -0.592228E+02  0.524E-02    2.30       0.0  T
   2    -59.2227567 -0.304434E-05  0.337E-02    2.30       1.0  T
   3    -59.2227595 -0.282548E-05  0.129E-02    2.30       1.3  T
   4    -59.2227609 -0.139300E-05  0.101E-02    2.30       1.6  T
   5    -59.2227620 -0.109858E-05  0.390E-03    2.30       4.2  T
   6    -59.2227622 -0.254074E-06  0.123E-03    2.30      13.3  T
   7    -59.2227623 -0.206280E-07  0.579E-04    2.30      28.4  T
   8    -59.2227623 -0.156896E-08  0.205E-04    2.30      80.1  T
     SCC iter.                  ...        0 min,  0.061 sec
     gradient                   ...        0 min,  0.004 sec
 * total energy  :   -58.3063326 Eh     change       -0.1258461E-03 Eh
   gradient norm :     0.0039566 Eh/α   predicted    -0.9335395E-04 ( -25.82%)
   displ. norm   :     0.3029682 α      lambda       -0.1668105E-03
   maximum displ.:     0.1513526 α      in ANC's #3, #1, #4, ...

........................................................................
.............................. CYCLE   12 ..............................
........................................................................
   1    -59.2225872 -0.592226E+02  0.546E-02    2.31       0.0  T
   2    -59.2225895 -0.227114E-05  0.336E-02    2.31       1.0  T
   3    -59.2225911 -0.163860E-05  0.103E-02    2.31       1.6  T
   4    -59.2225920 -0.860937E-06  0.798E-03    2.31       2.1  T
   5    -59.2225926 -0.596135E-06  0.434E-03    2.31       3.8  T
   6    -59.2225928 -0.218357E-06  0.171E-03    2.31       9.6  T
   7    -59.2225928 -0.509685E-07  0.649E-04    2.31      25.3  T
   8    -59.2225929 -0.242048E-08  0.292E-04    2.31      56.3  T
     SCC iter.                  ...        0 min,  0.062 sec
     gradient                   ...        0 min,  0.004 sec
 * total energy  :   -58.3064564 Eh     change       -0.1238235E-03 Eh
   gradient norm :     0.0032978 Eh/α   predicted    -0.9106721E-04 ( -26.45%)
   displ. norm   :     0.2816917 α      lambda       -0.1197554E-03
   maximum displ.:     0.1465049 α      in ANC's #1, #3, #4, ...

........................................................................
.............................. CYCLE   13 ..............................
........................................................................
   1    -59.2219073 -0.592219E+02  0.530E-02    2.31       0.0  T
   2    -59.2219089 -0.159830E-05  0.322E-02    2.31       1.0  T
   3    -59.2219100 -0.110313E-05  0.885E-03    2.31       1.9  T
   4    -59.2219107 -0.711978E-06  0.679E-03    2.31       2.4  T
   5    -59.2219111 -0.421421E-06  0.343E-03    2.31       4.8  T
   6    -59.2219113 -0.159063E-06  0.134E-03    2.31      12.2  T
   7    -59.2219113 -0.234088E-07  0.641E-04    2.31      25.6  T
   8    -59.2219113 -0.225930E-08  0.199E-04    2.31      82.6  T
     SCC iter.                  ...        0 min,  0.061 sec
     gradient                   ...        0 min,  0.005 sec
 * total energy  :   -58.3065457 Eh     change       -0.8924282E-04 Eh
   gradient norm :     0.0034431 Eh/α   predicted    -0.6463461E-04 ( -27.57%)
   displ. norm   :     0.1809991 α      lambda       -0.1015073E-03
   maximum displ.:     0.1055281 α      in ANC's #1, #5, #3, ...

........................................................................
.............................. CYCLE   14 ..............................
........................................................................
   1    -59.2222168 -0.592222E+02  0.402E-02    2.31       0.0  T
   2    -59.2222175 -0.694610E-06  0.240E-02    2.31       1.0  T
   3    -59.2222178 -0.291495E-06  0.488E-03    2.31       3.4  T
   4    -59.2222181 -0.247568E-06  0.361E-03    2.31       4.6  T
   5    -59.2222182 -0.977757E-07  0.229E-03    2.31       7.2  T
   6    -59.2222182 -0.480615E-07  0.118E-03    2.31      14.0  T
   7    -59.2222182 -0.225877E-07  0.479E-04    2.31      34.3  T
   8    -59.2222182 -0.126678E-08  0.203E-04    2.31      81.1  T
     SCC iter.                  ...        0 min,  0.065 sec
     gradient                   ...        0 min,  0.004 sec
 * total energy  :   -58.3066145 Eh     change       -0.6880643E-04 Eh
   gradient norm :     0.0031578 Eh/α   predicted    -0.5241661E-04 ( -23.82%)
   displ. norm   :     0.2528675 α      lambda       -0.9878796E-04
   maximum displ.:     0.1421164 α      in ANC's #3, #1, #2, ...

........................................................................
.............................. CYCLE   15 ..............................
........................................................................
   1    -59.2215077 -0.592215E+02  0.466E-02    2.30       0.0  T
   2    -59.2215089 -0.111306E-05  0.276E-02    2.30       1.0  T
   3    -59.2215089 -0.667328E-07  0.670E-03    2.30       2.5  T
   4    -59.2215097 -0.733939E-06  0.435E-03    2.30       3.8  T
   5    -59.2215098 -0.125465E-06  0.291E-03    2.30       5.6  T
   6    -59.2215099 -0.813329E-07  0.152E-03    2.30      10.8  T
   7    -59.2215099 -0.354241E-07  0.566E-04    2.30      29.1  T
   8    -59.2215099 -0.230231E-08  0.272E-04    2.30      60.5  T
     SCC iter.                  ...        0 min,  0.061 sec
     gradient                   ...        0 min,  0.004 sec
 * total energy  :   -58.3066819 Eh     change       -0.6739955E-04 Eh
   gradient norm :     0.0035379 Eh/α   predicted    -0.5255262E-04 ( -22.03%)
   displ. norm   :     0.1863187 α      lambda       -0.8601733E-04
   maximum displ.:     0.0946817 α      in ANC's #3, #1, #5, ...

........................................................................
.............................. CYCLE   16 ..............................
........................................................................
   1    -59.2224470 -0.592224E+02  0.333E-02    2.30       0.0  T
   2    -59.2224474 -0.420273E-06  0.196E-02    2.30       1.0  T
   3    -59.2224474  0.751053E-07  0.445E-03    2.30       3.7  T
   4    -59.2224478 -0.407015E-06  0.264E-03    2.30       6.2  T
   5    -59.2224478 -0.362488E-07  0.173E-03    2.30       9.5  T
   6    -59.2224478 -0.394850E-07  0.826E-04    2.30      19.9  T
   7    -59.2224478 -0.749643E-08  0.361E-04    2.30      45.5  T
     SCC iter.                  ...        0 min,  0.054 sec
     gradient                   ...        0 min,  0.004 sec
 * total energy  :   -58.3067450 Eh     change       -0.6318341E-04 Eh
   gradient norm :     0.0033795 Eh/α   predicted    -0.4450218E-04 ( -29.57%)
   displ. norm   :     0.2320988 α      lambda       -0.7589115E-04
   maximum displ.:     0.1272366 α      in ANC's #3, #1, #5, ...

........................................................................
.............................. CYCLE   17 ..............................
........................................................................
   1    -59.2226462 -0.592226E+02  0.414E-02    2.29       0.0  T
   2    -59.2226468 -0.617412E-06  0.241E-02    2.30       1.0  T
   3    -59.2226467  0.680213E-07  0.471E-03    2.30       3.5  T
   4    -59.2226472 -0.480479E-06  0.279E-03    2.30       5.9  T
   5    -59.2226473 -0.426556E-07  0.190E-03    2.30       8.6  T
   6    -59.2226473 -0.403432E-07  0.900E-04    2.30      18.3  T
   7    -59.2226473 -0.891837E-08  0.503E-04    2.30      32.7  T
     SCC iter.                  ...        0 min,  0.053 sec
     gradient                   ...        0 min,  0.004 sec
 * total energy  :   -58.3068007 Eh     change       -0.5569298E-04 Eh
   gradient norm :     0.0036255 Eh/α   predicted    -0.3999291E-04 ( -28.19%)
   displ. norm   :     0.2276170 α      lambda       -0.6964385E-04
   maximum displ.:     0.1315190 α      in ANC's #3, #1, #2, ...

........................................................................
.............................. CYCLE   18 ..............................
........................................................................
   1    -59.2231732 -0.592232E+02  0.406E-02    2.29       0.0  T
   2    -59.2231737 -0.501216E-06  0.237E-02    2.30       1.0  T
   3    -59.2231738 -0.105649E-06  0.390E-03    2.29       4.2  T
   4    -59.2231741 -0.265540E-06  0.269E-03    2.30       6.1  T
   5    -59.2231741 -0.501170E-07  0.150E-03    2.30      10.9  T
   6    -59.2231742 -0.298311E-07  0.808E-04    2.30      20.3  T
   7    -59.2231742 -0.531570E-08  0.381E-04    2.30      43.1  T
     SCC iter.                  ...        0 min,  0.054 sec
     gradient                   ...        0 min,  0.004 sec
 * total energy  :   -58.3068490 Eh     change       -0.4831615E-04 Eh
   gradient norm :     0.0028013 Eh/α   predicted    -0.3662921E-04 ( -24.19%)
   displ. norm   :     0.2236008 α      lambda       -0.4804663E-04
   maximum displ.:     0.1318754 α      in ANC's #3, #1, #2, ...

........................................................................
.............................. CYCLE   19 ..............................
........................................................................
   1    -59.2226615 -0.592227E+02  0.416E-02    2.30       0.0  T
   2    -59.2226621 -0.560146E-06  0.244E-02    2.30       1.0  T
   3    -59.2226624 -0.314765E-06  0.392E-03    2.30       4.2  T
   4    -59.2226625 -0.125796E-06  0.304E-03    2.30       5.4  T
   5    -59.2226626 -0.748079E-07  0.168E-03    2.30       9.8  T
   6    -59.2226626 -0.379019E-07  0.792E-04    2.30      20.8  T
   7    -59.2226626 -0.370265E-08  0.415E-04    2.30      39.6  T
     SCC iter.                  ...        0 min,  0.054 sec
     gradient                   ...        0 min,  0.004 sec
 * total energy  :   -58.3068850 Eh     change       -0.3596476E-04 Eh
   gradient norm :     0.0025892 Eh/α   predicted    -0.2522488E-04 ( -29.86%)
   displ. norm   :     0.2239174 α      lambda       -0.5908373E-04
   maximum displ.:     0.1327230 α      in ANC's #3, #1, #2, ...

........................................................................
.............................. CYCLE   20 ..............................
........................................................................
   1    -59.2229860 -0.592230E+02  0.455E-02    2.30       0.0  T
   2    -59.2229867 -0.712642E-06  0.268E-02    2.30       1.0  T
   3    -59.2229871 -0.436316E-06  0.447E-03    2.30       3.7  T
   4    -59.2229872 -0.127020E-06  0.351E-03    2.30       4.7  T
   5    -59.2229873 -0.943502E-07  0.211E-03    2.30       7.8  T
   6    -59.2229874 -0.535680E-07  0.888E-04    2.30      18.5  T
   7    -59.2229874 -0.813459E-08  0.484E-04    2.30      34.0  T
     SCC iter.                  ...        0 min,  0.054 sec
     gradient                   ...        0 min,  0.004 sec
 * total energy  :   -58.3069206 Eh     change       -0.3557314E-04 Eh
   gradient norm :     0.0026199 Eh/α   predicted    -0.3102382E-04 ( -12.79%)
   displ. norm   :     0.2279133 α      lambda        0.1465378E-04
   maximum displ.:     0.1350163 α      in ANC's #3, #1, #2, ...
 * RMSD in coord.:     0.6454086 α      energy gain  -0.1333609E-01 Eh

generating ANC from model Hessian ...
Using Lindh-Hessian (1995)
 Shifting diagonal of input Hessian by    9.9702292773707953E-003
 Lowest  eigenvalues of input Hessian
    0.000000    0.000000    0.000000    0.000000    0.000000    0.000000
    0.010000    0.010341    0.010575    0.011154    0.012458    0.012832
    0.013805    0.016938    0.017262    0.018376    0.021040    0.022847
 Highest eigenvalues
    1.906378    1.978854    1.997802    2.065893    2.128685    2.169727


........................................................................
.............................. CYCLE   21 ..............................
........................................................................
   1    -59.2228525 -0.592229E+02  0.462E-02    2.30       0.0  T
   2    -59.2228532 -0.698603E-06  0.273E-02    2.30       1.0  T
   3    -59.2228536 -0.446752E-06  0.462E-03    2.30       3.6  T
   4    -59.2228538 -0.146937E-06  0.362E-03    2.30       4.5  T
   5    -59.2228539 -0.110732E-06  0.200E-03    2.30       8.2  T
   6    -59.2228540 -0.469663E-07  0.886E-04    2.30      18.6  T
   7    -59.2228540 -0.841111E-08  0.462E-04    2.30      35.6  T
     SCC iter.                  ...        0 min,  0.054 sec
     gradient                   ...        0 min,  0.004 sec
 * total energy  :   -58.3069174 Eh     change        0.3216115E-05 Eh
   gradient norm :     0.0048745 Eh/α   predicted     0.0000000E+00 (-100.00%)
   displ. norm   :     0.0310978 α      lambda       -0.3452430E-04
   maximum displ.:     0.0194068 α      in ANC's #1, #13, #17, ...

........................................................................
.............................. CYCLE   22 ..............................
........................................................................
   1    -59.2229241 -0.592229E+02  0.109E-02    2.30       0.0  T
   2    -59.2229243 -0.156372E-06  0.639E-03    2.30       2.6  T
   3    -59.2229242  0.641107E-07  0.237E-03    2.30       6.9  T
   4    -59.2229243 -0.110313E-06  0.949E-04    2.30      17.3  T
   5    -59.2229243 -0.777953E-08  0.638E-04    2.30      25.8  T
     SCC iter.                  ...        0 min,  0.039 sec
     gradient                   ...        0 min,  0.004 sec
 * total energy  :   -58.3069493 Eh     change       -0.3195479E-04 Eh
   gradient norm :     0.0023749 Eh/α   predicted    -0.2117337E-04 ( -33.74%)
   displ. norm   :     0.0529245 α      lambda       -0.3220713E-04
   maximum displ.:     0.0382774 α      in ANC's #1, #4, #13, ...

........................................................................
.............................. CYCLE   23 ..............................
........................................................................
   1    -59.2230273 -0.592230E+02  0.145E-02    2.30       0.0  T
   2    -59.2230276 -0.211285E-06  0.880E-03    2.30       1.9  T
   3    -59.2230275  0.887384E-07  0.344E-03    2.30       4.8  T
   4    -59.2230277 -0.232931E-06  0.175E-03    2.30       9.4  T
   5    -59.2230277 -0.165013E-07  0.128E-03    2.30      12.9  T
   6    -59.2230277 -0.167518E-07  0.683E-04    2.30      24.1  T
   7    -59.2230277 -0.629422E-08  0.237E-04    2.30      69.4  T
     SCC iter.                  ...        0 min,  0.054 sec
     gradient                   ...        0 min,  0.004 sec
 * total energy  :   -58.3069686 Eh     change       -0.1929794E-04 Eh
   gradient norm :     0.0009072 Eh/α   predicted    -0.1614908E-04 ( -16.32%)
   displ. norm   :     0.0419470 α      lambda       -0.5455810E-05
   maximum displ.:     0.0345944 α      in ANC's #1, #4, #6, ...

........................................................................
.............................. CYCLE   24 ..............................
........................................................................
   1    -59.2231412 -0.592231E+02  0.795E-03    2.30       0.0  T
   2    -59.2231413 -0.760863E-07  0.509E-03    2.30       3.2  T
   3    -59.2231413 -0.235336E-07  0.217E-03    2.30       7.6  T
   4    -59.2231413 -0.634243E-07  0.146E-03    2.30      11.3  T
   5    -59.2231414 -0.161053E-07  0.871E-04    2.30      18.9  T
   6    -59.2231414 -0.936569E-08  0.329E-04    2.30      49.9  T
     SCC iter.                  ...        0 min,  0.046 sec
     gradient                   ...        0 min,  0.004 sec
 * total energy  :   -58.3069744 Eh     change       -0.5766261E-05 Eh
   gradient norm :     0.0010388 Eh/α   predicted    -0.2730235E-05 ( -52.65%)
   displ. norm   :     0.0282188 α      lambda       -0.3518564E-05
   maximum displ.:     0.0235301 α      in ANC's #1, #6, #4, ...

........................................................................
.............................. CYCLE   25 ..............................
........................................................................
   1    -59.2232107 -0.592232E+02  0.573E-03    2.30       0.0  T
   2    -59.2232107 -0.320788E-07  0.363E-03    2.30       4.5  T
   3    -59.2232108 -0.223850E-07  0.123E-03    2.30      13.4  T
   4    -59.2232108 -0.140126E-07  0.930E-04    2.30      17.7  T
   5    -59.2232108 -0.757686E-08  0.524E-04    2.30      31.4  T
     SCC iter.                  ...        0 min,  0.038 sec
     gradient                   ...        0 min,  0.004 sec
 * total energy  :   -58.3069785 Eh     change       -0.4148180E-05 Eh
   gradient norm :     0.0004349 Eh/α   predicted    -0.1760253E-05 ( -57.57%)
   displ. norm   :     0.0326768 α      lambda       -0.2792805E-05
   maximum displ.:     0.0260303 α      in ANC's #1, #6, #4, ...

   *** GEOMETRY OPTIMIZATION CONVERGED AFTER 25 ITERATIONS ***

------------------------------------------------------------------------
 total energy gain   :        -0.0133940 Eh       -8.4049 kcal/mol
 total RMSD          :         0.6564818 a0        0.3474 Å
 total power (kW/mol):        -1.4066417 (step)  -21.9767 (real)
------------------------------------------------------------------------

 ANCopt (total)                0 d,  0 h,  0 min,  1.600 sec
 optimizer setup                ...        0 min,  0.000 sec (  0.009%)
 model hessian                  ...        0 min,  0.015 sec (  0.910%)
 ANC generation                 ...        0 min,  0.011 sec (  0.663%)
 coordinate transformation      ...        0 min,  0.001 sec (  0.091%)
 single point calculation       ...        0 min,  1.564 sec ( 97.730%)
 optimization log               ...        0 min,  0.003 sec (  0.174%)
 hessian update                 ...        0 min,  0.001 sec (  0.062%)
 rational function              ...        0 min,  0.003 sec (  0.165%)

================
 final structure:
================
37
 xtb: 6.5.1 (fef0646)
N            0.81570503746609        1.74907839272505       -0.40487638312426
C            1.94489800169022        1.39482869040378       -1.28235764853316
C            3.27359060264963        1.57684154156623       -0.53606066468329
O            4.35263798059038        1.01729026165337       -1.25829604193373
C            4.91077763430821        1.70003627743894       -2.29908702447735
C            5.94306984291534        1.02353702849211       -2.98474007707778
C            6.35406704525753       -0.28872608556267       -2.61225025964552
C            7.34327301431850       -0.92900088228415       -3.27873651153097
C            6.58846220055338        1.66014615406410       -4.06952820128147
C            6.20494526364196        2.96616864067336       -4.46370285889749
C            5.18248318217092        3.59886966764987       -3.76038523904100
C            4.54448334193360        2.97920854387939       -2.70223884898470
C            6.87699345385121        3.58156995406577       -5.55956883890438
C            7.86664192244224        2.94125034569073       -6.22366951736742
C            8.27487569193382        1.62519021973210       -5.85273465586273
C            9.29193503987630        0.94590551783770       -6.52473335413035
C            9.66389120241905       -0.32976994694816       -6.13947700709328
C            9.03580350149627       -0.95716015071909       -5.07978431490331
C            8.01307945038913       -0.31591417059969       -4.37726435559288
C            7.62431094989087        0.98986175934801       -4.76533390936554
Cl           1.14773946955957        0.31596685308567        2.25781856936680
H           -0.07829626115221        1.50607662056050       -0.83853798836801
H            0.82358060771148        2.74386648232573       -0.16667156116725
H            0.88849418718040        1.22034681480567        0.50566818230537
H            1.92436655506648        2.00451580824290       -2.18728223609035
H            1.86720068879754        0.34381600078637       -1.56201535893870
H            3.23077134606341        1.00792632271859        0.39711354053276
H            3.46794875667033        2.62644554693361       -0.29518601566290
H            5.85095867346546       -0.75554984408277       -1.77946880508139
H            7.64748066731335       -1.92454641267843       -2.98885472294047
H            4.88223200940461        4.59463312545728       -4.05049584324515
H            3.76635084550871        3.51971567266311       -2.18984660978975
H            6.57501094816909        4.57830175821102       -5.84710577487627
H            8.37267002387946        3.41400268263086       -7.05315822981336
H            9.78956561746248        1.42791704355885       -7.35377412804683
H           10.45323452247245       -0.84032945290704       -6.67172666672599
H            9.33285698265898       -1.95323678142501       -4.78497063901177

 Bond Distances (Angstroems)
 ---------------------------
N1-C2=1.4733         N1-H22=1.0229        N1-H23=1.0229        N1-H24=1.0554        C2-N1=1.4733         C2-C3=1.5348         
C2-H25=1.0913        C2-H26=1.0904        C3-C2=1.5348         C3-O4=1.4139         C3-H27=1.0938        C3-H28=1.0943        
O4-C3=1.4139         O4-C5=1.3642         C5-O4=1.3642         C5-C6=1.4119         C5-C12=1.3903        C6-C5=1.4119         
C6-C7=1.4247         C6-C9=1.4137         C7-C6=1.4247         C7-C8=1.3538         C7-H29=1.0792        C8-C7=1.3538         
C8-C19=1.4252        C8-H30=1.0806        C9-C6=1.4137         C9-C10=1.4171        C9-C20=1.4165        C10-C9=1.4171        
C10-C11=1.3930       C10-C13=1.4252       C11-C10=1.3930       C11-C12=1.3823       C11-H31=1.0797       C12-C5=1.3903        
C12-C11=1.3823       C12-H32=1.0771       C13-C10=1.4252       C13-C14=1.3529       C13-H33=1.0804       C14-C13=1.3529       
C14-C15=1.4270       C14-H34=1.0806       C15-C14=1.4270       C15-C16=1.3955       C15-C20=1.4175       C16-C15=1.3955       
C16-C17=1.3835       C16-H35=1.0804       C17-C16=1.3835       C17-C18=1.3824       C17-H36=1.0803       C18-C17=1.3824       
C18-C19=1.3967       C18-H37=1.0804       C19-C8=1.4252        C19-C18=1.3967       C19-C20=1.4166       C20-C9=1.4165        
C20-C15=1.4175       C20-C19=1.4166       H22-N1=1.0229        H23-N1=1.0229        H24-N1=1.0554        H25-C2=1.0913        
H26-C2=1.0904        H27-C3=1.0938        H28-C3=1.0943        H29-C7=1.0792        H30-C8=1.0806        H31-C11=1.0797       
H32-C12=1.0771       H33-C13=1.0804       H34-C14=1.0806       H35-C16=1.0804       H36-C17=1.0803       H37-C18=1.0804       
 C  H  Rav=1.0837 sigma=0.0059  Rmin=1.0771  Rmax=1.0943    13
 C  C  Rav=1.4080 sigma=0.0363  Rmin=1.3529  Rmax=1.5348    20
 N  H  Rav=1.0338 sigma=0.0153  Rmin=1.0229  Rmax=1.0554     3
 N  C  Rav=1.4733 sigma=0.0000  Rmin=1.4733  Rmax=1.4733     1
 O  C  Rav=1.3890 sigma=0.0249  Rmin=1.3642  Rmax=1.4139     2

 selected bond angles (degree)
 --------------------
H22-N1-C2=111.11               H23-N1-C2=111.51               H23-N1-H22=109.66              H24-N1-C2=109.91               
H24-N1-H22=107.88              H24-N1-H23=106.60              C3-C2-N1=110.21                H25-C2-N1=110.19               
H25-C2-C3=110.69               H26-C2-N1=109.26               H26-C2-C3=107.50               H26-C2-H25=108.93              
O4-C3-C2=111.43                H27-C3-C2=108.62               H27-C3-O4=105.06               H28-C3-C2=112.00               
H28-C3-O4=110.88               H28-C3-H27=108.55              C5-O4-C3=120.26                C6-C5-O4=115.46                
C12-C5-O4=125.02               C12-C5-C6=119.52               C7-C6-C5=121.69                C9-C6-C5=119.38                
C9-C6-C7=118.93                C8-C7-C6=121.18                H29-C7-C6=117.76               H29-C7-C8=121.06               
C19-C8-C7=121.29               H30-C8-C7=120.62               H30-C8-C19=118.08              C10-C9-C6=120.33               
C20-C9-C6=119.85               C20-C9-C10=119.83              C11-C10-C9=118.48              C13-C10-C9=118.96              
C13-C10-C11=122.56             

 selected dihedral angles (degree)
 ---------------------------------
C3-C2-N1-H22=188.19           C3-C2-N1-H23= 65.52           C3-C2-N1-H24=307.52           H25-C2-N1-H22= 65.75          
H25-C2-N1-H23=303.08          H25-C2-N1-H24=185.08          H26-C2-N1-H22=306.10          H26-C2-N1-H23=183.43          
H26-C2-N1-H24= 65.43          O4-C3-C2-N1=169.21            O4-C3-C2-H25=291.36           O4-C3-C2-H26= 50.22           
H27-C3-C2-N1= 53.95           H27-C3-C2-H25=176.09          H27-C3-C2-H26=294.96          H28-C3-C2-N1=294.08           
H28-C3-C2-H25= 56.22          H28-C3-C2-H26=175.09          C5-O4-C3-C2= 79.86            C5-O4-C3-H27=197.30           
C5-O4-C3-H28=314.38           C6-C5-O4-C3=182.59            C12-C5-O4-C3=  3.15           C7-C6-C5-O4=  0.62            
C7-C6-C5-C12=180.10           C9-C6-C5-O4=180.61            C9-C6-C5-C12=  0.09           C8-C7-C6-C5=179.86            
C8-C7-C6-C9=359.87            H29-C7-C6-C5=359.79           H29-C7-C6-C9=179.80           C19-C8-C7-C6=  0.07           
C19-C8-C7-H29=180.15          H30-C8-C7-C6=180.03           H30-C8-C7-H29=  0.11          C10-C9-C6-C5=  0.12           
C10-C9-C6-C7=180.11           C20-C9-C6-C5=180.07           C20-C9-C6-C7=  0.06           C11-C10-C9-C6=359.91          
C11-C10-C9-C20=179.96         C13-C10-C9-C6=179.87          C13-C10-C9-C20=359.92         

 CMA Distance (Angstroems)
 ---------------------------
R(CMA):  7.7119
           -------------------------------------------------
          |                Final Singlepoint                |
           -------------------------------------------------

          ...................................................
          :                      SETUP                      :
          :.................................................:
          :  # basis functions                 106          :
          :  # atomic orbitals                 105          :
          :  # shells                           59          :
          :  # electrons                       106          :
          :  max. iterations                   250          :
          :  Hamiltonian                  GFN2-xTB          :
          :  restarted?                      false          :
          :  GBSA solvation                   true          :
          :  PC potential                    false          :
          :  electronic temp.          300.0000000     K    :
          :  accuracy                    1.0000000          :
          :  -> integral cutoff          0.2500000E+02      :
          :  -> integral neglect         0.1000000E-07      :
          :  -> SCF convergence          0.1000000E-05 Eh   :
          :  -> wf. convergence          0.1000000E-03 e    :
          :  Broyden damping             0.4000000          :
          ...................................................

 iter      E             dE          RMSdq      gap      omega  full diag
   1    -59.2232108 -0.592232E+02  0.149E-04    2.30       0.0  T
   2    -59.2232108 -0.205425E-09  0.111E-04    2.30     148.5  T
   3    -59.2232108 -0.280167E-09  0.530E-05    2.30     309.9  T

   *** convergence criteria satisfied after 3 iterations ***

         #    Occupation            Energy/Eh            Energy/eV
      -------------------------------------------------------------
         1        2.0000           -1.0083561             -27.4388
       ...           ...                  ...                  ...
        47        2.0000           -0.4037457             -10.9865
        48        2.0000           -0.4018055             -10.9337
        49        2.0000           -0.4016806             -10.9303
        50        2.0000           -0.4007665             -10.9054
        51        2.0000           -0.4003260             -10.8934
        52        2.0000           -0.3871964             -10.5362
        53        2.0000           -0.3541712              -9.6375 (HOMO)
        54                         -0.2696999              -7.3389 (LUMO)
        55                         -0.2375987              -6.4654
        56                         -0.2164711              -5.8905
        57                         -0.1961567              -5.3377
        58                         -0.1761149              -4.7923
       ...                                ...                  ...
       105                          0.7364643              20.0402
      -------------------------------------------------------------
                  HL-Gap            0.0844713 Eh            2.2986 eV
             Fermi-level           -0.3119356 Eh           -8.4882 eV

 SCC (total)                   0 d,  0 h,  0 min,  0.030 sec
 SCC setup                      ...        0 min,  0.000 sec (  0.951%)
 Dispersion                     ...        0 min,  0.000 sec (  1.120%)
 classical contributions        ...        0 min,  0.000 sec (  0.137%)
 integral evaluation            ...        0 min,  0.001 sec (  4.300%)
 iterations                     ...        0 min,  0.023 sec ( 77.730%)
 molecular gradient             ...        0 min,  0.004 sec ( 12.576%)
 printout                       ...        0 min,  0.001 sec (  2.446%)

         :::::::::::::::::::::::::::::::::::::::::::::::::::::
         ::                     SUMMARY                     ::
         :::::::::::::::::::::::::::::::::::::::::::::::::::::
         :: total energy             -58.306978542333 Eh    ::
         :: total w/o Gsasa/hb       -58.296800754079 Eh    ::
         :: gradient norm              0.000434743353 Eh/a0 ::
         :: HOMO-LUMO gap              2.298580173874 eV    ::
         ::.................................................::
         :: SCC energy               -59.223210776709 Eh    ::
         :: -> isotropic ES            0.138520306702 Eh    ::
         :: -> anisotropic ES         -0.026196662624 Eh    ::
         :: -> anisotropic XC          0.015838240220 Eh    ::
         :: -> dispersion             -0.041806533211 Eh    ::
         :: -> Gsolv                  -0.079051773586 Eh    ::
         ::    -> Gelec               -0.068873985332 Eh    ::
         ::    -> Gsasa               -0.002799094993 Eh    ::
         ::    -> Ghb                 -0.008459452960 Eh    ::
         ::    -> Gshift               0.001080759698 Eh    ::
         :: repulsion energy           0.916340780332 Eh    ::
         :: add. restraining           0.000000000000 Eh    ::
         :: total charge               0.000000000000 e     ::
         :::::::::::::::::::::::::::::::::::::::::::::::::::::

           -------------------------------------------------
          |                Property Printout                |
           -------------------------------------------------

    * Orbital Energies and Occupations

         #    Occupation            Energy/Eh            Energy/eV
      -------------------------------------------------------------
         1        2.0000           -1.0083561             -27.4388
       ...           ...                  ...                  ...
        41        2.0000           -0.4457269             -12.1288
        42        2.0000           -0.4373368             -11.9005
        43        2.0000           -0.4296246             -11.6907
        44        2.0000           -0.4250595             -11.5665
        45        2.0000           -0.4064821             -11.0609
        46        2.0000           -0.4059660             -11.0469
        47        2.0000           -0.4037457             -10.9865
        48        2.0000           -0.4018055             -10.9337
        49        2.0000           -0.4016806             -10.9303
        50        2.0000           -0.4007665             -10.9054
        51        2.0000           -0.4003260             -10.8934
        52        2.0000           -0.3871964             -10.5362
        53        2.0000           -0.3541712              -9.6375 (HOMO)
        54                         -0.2696999              -7.3389 (LUMO)
        55                         -0.2375987              -6.4654
        56                         -0.2164711              -5.8905
        57                         -0.1961567              -5.3377
        58                         -0.1761149              -4.7923
        59                         -0.1210703              -3.2945
        60                         -0.0952800              -2.5927
        61                         -0.0470020              -1.2790
        62                         -0.0216467              -0.5890
        63                          0.0349379               0.9507
        64                          0.0767249               2.0878
       ...                                ...                  ...
       105                          0.7364643              20.0402
      -------------------------------------------------------------
                  HL-Gap            0.0844713 Eh            2.2986 eV
             Fermi-level           -0.3119356 Eh           -8.4882 eV

     #   Z          covCN         q      C6AA      α(0)
     1   7 N        3.483    -0.173    24.733     7.386
     2   6 C        3.729    -0.032    21.243     6.580
     3   6 C        3.689     0.056    19.812     6.371
     4   8 O        1.705    -0.285    18.738     5.844
     5   6 C        2.858     0.135    25.053     8.204
     6   6 C        2.982    -0.013    28.337     8.732
     7   6 C        2.913    -0.036    28.902     8.816
     8   6 C        2.914    -0.043    29.077     8.842
     9   6 C        2.996     0.000    28.011     8.682
    10   6 C        2.981    -0.001    28.047     8.687
    11   6 C        2.920    -0.044    29.102     8.846
    12   6 C        2.912    -0.076    29.886     8.964
    13   6 C        2.913    -0.041    29.017     8.833
    14   6 C        2.913    -0.044    29.098     8.845
    15   6 C        2.982     0.008    27.824     8.653
    16   6 C        2.920    -0.045    29.107     8.847
    17   6 C        2.914    -0.036    28.901     8.816
    18   6 C        2.920    -0.044    29.101     8.846
    19   6 C        2.982     0.009    27.817     8.651
    20   6 C        2.998     0.001    27.990     8.678
    21  17 Cl       0.060    -0.943   124.715    16.996
    22   1 H        0.859     0.315     0.671     1.283
    23   1 H        0.859     0.302     0.707     1.317
    24   1 H        0.916     0.299     0.711     1.319
    25   1 H        0.924     0.112     1.680     2.027
    26   1 H        0.924     0.113     1.674     2.023
    27   1 H        0.924     0.085     1.932     2.174
    28   1 H        0.924     0.066     2.135     2.285
    29   1 H        0.926     0.045     2.384     2.414
    30   1 H        0.926     0.032     2.554     2.499
    31   1 H        0.926     0.049     2.328     2.386
    32   1 H        0.926     0.061     2.191     2.315
    33   1 H        0.926     0.039     2.462     2.454
    34   1 H        0.926     0.034     2.536     2.490
    35   1 H        0.926     0.033     2.542     2.493
    36   1 H        0.926     0.032     2.554     2.499
    37   1 H        0.926     0.031     2.565     2.505

 Mol. C6AA /au·bohr⁶  :      18704.901087
 Mol. C8AA /au·bohr⁸  :     487974.747374
 Mol. α(0) /au        :        217.604981


Wiberg/Mayer (AO) data.
largest (>0.10) Wiberg bond orders for each atom

 ---------------------------------------------------------------------------
     #   Z sym  total        # sym  WBO       # sym  WBO       # sym  WBO
 ---------------------------------------------------------------------------
     1   7 N    3.638 --     2 C    0.980    23 H    0.894    22 H    0.887
                            24 H    0.824
     2   6 C    3.930 --     3 C    0.992     1 N    0.980    26 H    0.966
                            25 H    0.964
     3   6 C    3.933 --     2 C    0.992     4 O    0.968    27 H    0.963
                            28 H    0.962
     4   8 O    2.221 --     5 C    1.062     3 C    0.968
     5   6 C    3.901 --    12 C    1.374     6 C    1.273     4 O    1.062
     6   6 C    3.987 --     5 C    1.273     9 C    1.269     7 C    1.213
     7   6 C    3.991 --     8 C    1.646     6 C    1.213    29 H    0.966
     8   6 C    3.990 --     7 C    1.646    19 C    1.204    30 H    0.968
     9   6 C    3.990 --     6 C    1.269    20 C    1.250    10 C    1.244
    10   6 C    3.989 --    11 C    1.357     9 C    1.244    13 C    1.202
    11   6 C    3.955 --    12 C    1.446    10 C    1.357    31 H    0.968
    12   6 C    3.977 --    11 C    1.446     5 C    1.374    32 H    0.960
    13   6 C    3.990 --    14 C    1.654    10 C    1.202    33 H    0.967
    14   6 C    3.982 --    13 C    1.654    15 C    1.198    34 H    0.968
    15   6 C    3.990 --    16 C    1.359    20 C    1.253    14 C    1.198
    16   6 C    3.953 --    17 C    1.439    15 C    1.359    35 H    0.969
    17   6 C    3.985 --    18 C    1.447    16 C    1.439    36 H    0.970
    18   6 C    3.954 --    17 C    1.447    19 C    1.352    37 H    0.969
    19   6 C    3.990 --    18 C    1.352    20 C    1.255     8 C    1.204
    20   6 C    3.990 --    19 C    1.255    15 C    1.253     9 C    1.250
    21  17 Cl   0.111
    22   1 H    0.901 --     1 N    0.887
    23   1 H    0.909 --     1 N    0.894
    24   1 H    0.910 --     1 N    0.824
    25   1 H    0.987 --     2 C    0.964
    26   1 H    0.987 --     2 C    0.966
    27   1 H    0.992 --     3 C    0.963
    28   1 H    0.995 --     3 C    0.962
    29   1 H    0.997 --     7 C    0.966
    30   1 H    0.998 --     8 C    0.968
    31   1 H    0.997 --    11 C    0.968
    32   1 H    0.996 --    12 C    0.960
    33   1 H    0.997 --    13 C    0.967
    34   1 H    0.998 --    14 C    0.968
    35   1 H    0.998 --    16 C    0.969
    36   1 H    0.998 --    17 C    0.970
    37   1 H    0.998 --    18 C    0.969
 ---------------------------------------------------------------------------

Topologies differ in total number of bonds
Writing topology from bond orders to xtbtopo.mol

molecular dipole:
                 x           y           z       tot (Debye)
 q only:       -1.215       2.957      -4.447
   full:       -1.219       2.677      -3.708      12.031
molecular quadrupole (traceless):
                xx          xy          yy          xz          yz          zz
 q only:      -11.063       7.462      29.596      -8.912      -9.900     -18.533
  q+dip:      -15.177       3.022      30.705     -10.256     -13.571     -15.528
   full:      -13.478       5.479      28.230      -6.774     -11.188     -14.751

           -------------------------------------------------
          |                Geometry Summary                 |
           -------------------------------------------------

      molecular mass/u    :      297.7793439
   center of mass at/Å    :        5.4728572       1.2287320      -2.9011869
  moments of inertia/u·Å² :        0.7219287E+03   0.4287477E+04   0.4908107E+04
rotational constants/cm⁻¹ :        0.2335083E-01   0.3931830E-02   0.3434651E-02

 * 39 selected distances

     #   Z          #   Z                                           value/Å
     1   7 N        2   6 C                                       1.4732764
     2   6 C        3   6 C                                       1.5347678 (max)
     3   6 C        4   8 O                                       1.4138830
     4   8 O        5   6 C                                       1.3641511
     5   6 C        6   6 C                                       1.4118778
     6   6 C        7   6 C                                       1.4246762
     7   6 C        8   6 C                                       1.3537668
     6   6 C        9   6 C                                       1.4137072
     9   6 C       10   6 C                                       1.4170935
    10   6 C       11   6 C                                       1.3929807
     5   6 C       12   6 C                                       1.3903183
    11   6 C       12   6 C                                       1.3822799
    10   6 C       13   6 C                                       1.4252334
    13   6 C       14   6 C                                       1.3529388
    14   6 C       15   6 C                                       1.4269766
    15   6 C       16   6 C                                       1.3954999
    16   6 C       17   6 C                                       1.3835180
    17   6 C       18   6 C                                       1.3824115
     8   6 C       19   6 C                                       1.4252297
    18   6 C       19   6 C                                       1.3966730
     9   6 C       20   6 C                                       1.4164779
    15   6 C       20   6 C                                       1.4175040
    19   6 C       20   6 C                                       1.4166122
     1   7 N       22   1 H                                       1.0229129 (min)
     1   7 N       23   1 H                                       1.0229404
     1   7 N       24   1 H                                       1.0554369
     2   6 C       25   1 H                                       1.0913426
     2   6 C       26   1 H                                       1.0903546
     3   6 C       27   1 H                                       1.0937606
     3   6 C       28   1 H                                       1.0942872
     7   6 C       29   1 H                                       1.0791513
     8   6 C       30   1 H                                       1.0805947
    11   6 C       31   1 H                                       1.0797500
    12   6 C       32   1 H                                       1.0771185
    13   6 C       33   1 H                                       1.0804376
    14   6 C       34   1 H                                       1.0805605
    16   6 C       35   1 H                                       1.0804074
    17   6 C       36   1 H                                       1.0802888
    18   6 C       37   1 H                                       1.0804280

 * 5 distinct bonds (by element types)

   Z      Z             #   av. dist./Å        max./Å        min./Å
   1 H    6 C          13     1.0837294     1.0942872     1.0771185
   6 C    6 C          20     1.4080272     1.5347678     1.3529388
   1 H    7 N           3     1.0337634     1.0554369     1.0229129
   6 C    7 N           1     1.4732764     1.4732764     1.4732764
   6 C    8 O           2     1.3890171     1.4138830     1.3641511


optimized geometry written to: xtbopt.xyz


           -------------------------------------------------
          | TOTAL ENERGY              -58.306978542333 Eh   |
          | GRADIENT NORM               0.000434743353 Eh/α |
          | HOMO-LUMO GAP               2.298580173874 eV   |
           -------------------------------------------------

------------------------------------------------------------------------
 * finished run on 2023/01/24 at 16:47:28.541     
------------------------------------------------------------------------
 total:
 * wall-time:     0 d,  0 h,  0 min,  1.770 sec
 *  cpu-time:     0 d,  0 h,  3 min, 35.689 sec
 * ratio c/w:   121.838 speedup
 SCF:
 * wall-time:     0 d,  0 h,  0 min,  0.122 sec
 *  cpu-time:     0 d,  0 h,  0 min, 17.238 sec
 * ratio c/w:   141.340 speedup
 ANC optimizer:
 * wall-time:     0 d,  0 h,  0 min,  1.631 sec
 *  cpu-time:     0 d,  0 h,  3 min, 16.275 sec
 * ratio c/w:   120.312 speedup

