      -----------------------------------------------------------      
     |                   =====================                   |     
     |                           x T B                           |     
     |                   =====================                   |     
     |                         S. Grimme                         |     
     |          Mulliken Center for Theoretical Chemistry        |     
     |                    University of Bonn                     |     
      -----------------------------------------------------------      

   * xtb version 6.5.1 (fef0646) compiled by 'conda@b96dff2e9fd6' on 2023-01-04

   xtb is free software: you can redistribute it and/or modify it under
   the terms of the GNU Lesser General Public License as published by
   the Free Software Foundation, either version 3 of the License, or
   (at your option) any later version.
   
   xtb is distributed in the hope that it will be useful,
   but WITHOUT ANY WARRANTY; without even the implied warranty of
   MERCHANTABILITY or FITNESS FOR A PARTICULAR PURPOSE.  See the
   GNU Lesser General Public License for more details.
   
   Cite this work as:
   * C. Bannwarth, E. Caldeweyher, S. Ehlert, A. Hansen, P. Pracht,
     J. Seibert, S. Spicher, S. Grimme, WIREs Comput. Mol. Sci., 2020, 11,
     e01493. DOI: 10.1002/wcms.1493
   
   for GFN2-xTB:
   * C. Bannwarth, S. Ehlert and S. Grimme., J. Chem. Theory Comput., 2019,
     15, 1652-1671. DOI: 10.1021/acs.jctc.8b01176
   for GFN1-xTB:
   * S. Grimme, C. Bannwarth, P. Shushkov, J. Chem. Theory Comput., 2017,
     13, 1989-2009. DOI: 10.1021/acs.jctc.7b00118
   for GFN0-xTB:
   * P. Pracht, E. Caldeweyher, S. Ehlert, S. Grimme, ChemRxiv, 2019, preprint.
     DOI: 10.26434/chemrxiv.8326202.v1
   for GFN-FF:
   * S. Spicher and S. Grimme, Angew. Chem. Int. Ed., 2020, 59, 15665-15673.
     DOI: 10.1002/anie.202004239
   
   for ALPB and GBSA implicit solvation:
   * S. Ehlert, M. Stahn, S. Spicher, S. Grimme, J. Chem. Theory Comput.,
     2021, 17, 4250-4261. DOI: 10.1021/acs.jctc.1c00471
   
   for DFT-D4:
   * E. Caldeweyher, C. Bannwarth and S. Grimme, J. Chem. Phys., 2017,
     147, 034112. DOI: 10.1063/1.4993215
   * E. Caldeweyher, S. Ehlert, A. Hansen, H. Neugebauer, S. Spicher,
     C. Bannwarth and S. Grimme, J. Chem. Phys., 2019, 150, 154122.
     DOI: 10.1063/1.5090222
   * E. Caldeweyher, J.-M. Mewes, S. Ehlert and S. Grimme, Phys. Chem. Chem. Phys.
     2020, 22, 8499-8512. DOI: 10.1039/D0CP00502A
   
   for sTDA-xTB:
   * S. Grimme and C. Bannwarth, J. Chem. Phys., 2016, 145, 054103.
     DOI: 10.1063/1.4959605
   
   in the mass-spec context:
   * V. Asgeirsson, C. Bauer and S. Grimme, Chem. Sci., 2017, 8, 4879.
     DOI: 10.1039/c7sc00601b
   * J. Koopman and S. Grimme, ACS Omega 2019, 4, 12, 15120-15133.
     DOI: 10.1021/acsomega.9b02011
   
   for metadynamics refer to:
   * S. Grimme, J. Chem. Theory Comput., 2019, 155, 2847-2862
     DOI: 10.1021/acs.jctc.9b00143
   
   for SPH calculations refer to:
   * S. Spicher and S. Grimme, J. Chem. Theory Comput., 2021, 17, 1701-1714
     DOI: 10.1021/acs.jctc.0c01306
   
   with help from (in alphabetical order)
   P. Atkinson, C. Bannwarth, F. Bohle, G. Brandenburg, E. Caldeweyher
   M. Checinski, S. Dohm, S. Ehlert, S. Ehrlich, I. Gerasimov, C. Hölzer
   A. Katbashev, J. Koopman, C. Lavigne, S. Lehtola, F. März, M. Müller,
   F. Musil, H. Neugebauer, J. Pisarek, C. Plett, P. Pracht, F. Pultar,
   J. Seibert, P. Shushkov, S. Spicher, M. Stahn, M. Steiner, T. Strunk,
   J. Stückrath, T. Rose, and J. Unsleber
   
 * started run on 2023/01/23 at 20:55:14.502     

           -------------------------------------------------
          |                Calculation Setup                |
           -------------------------------------------------

          program call               : xtb init.xyz --opt -c 0 -u 0 -P 16 --input xtb.inp
          hostname                   : gpg-woodward
          coordinate file            : init.xyz
          omp threads                :                    16

   ID    Z sym.   atoms
    1    7 N      1
    2    6 C      2, 3, 5-20
    3    8 O      4
    4   17 Cl     21
    5    1 H      22-37

molecular fragmentation (1/2 indicates fragments):
1111111111111111111121111111111111111
# atoms in fragment 1/2:    36     1
 fragment masses (1/2) :      262.33       35.45
CMA distance (Bohr)    :  15.481
constraining FC (au)   :  0.0500

           -------------------------------------------------
          |                 G F N 2 - x T B                 |
           -------------------------------------------------

        Reference                      10.1021/acs.jctc.8b01176
      * Hamiltonian:
        H0-scaling (s, p, d)           1.850000    2.230000    2.230000
        zeta-weighting                 0.500000
      * Dispersion:
        s8                             2.700000
        a1                             0.520000
        a2                             5.000000
        s9                             5.000000
      * Repulsion:
        kExp                           1.500000    1.000000
        rExp                           1.000000
      * Coulomb:
        alpha                          2.000000
        third order                    shell-resolved
        anisotropic                    true
        a3                             3.000000
        a5                             4.000000
        cn-shift                       1.200000
        cn-exp                         4.000000
        max-rad                        5.000000


          ...................................................
          :                      SETUP                      :
          :.................................................:
          :  # basis functions                 106          :
          :  # atomic orbitals                 105          :
          :  # shells                           59          :
          :  # electrons                       106          :
          :  max. iterations                   250          :
          :  Hamiltonian                  GFN2-xTB          :
          :  restarted?                      false          :
          :  GBSA solvation                  false          :
          :  PC potential                    false          :
          :  electronic temp.          300.0000000     K    :
          :  accuracy                    1.0000000          :
          :  -> integral cutoff          0.2500000E+02      :
          :  -> integral neglect         0.1000000E-07      :
          :  -> SCF convergence          0.1000000E-05 Eh   :
          :  -> wf. convergence          0.1000000E-03 e    :
          :  Broyden damping             0.4000000          :
          ...................................................

 iter      E             dE          RMSdq      gap      omega  full diag
   1    -58.9742161 -0.589742E+02  0.411E+00    2.06       0.0  T
   2    -59.1086882 -0.134472E+00  0.234E+00    2.07       1.0  T
   3    -59.0989864  0.970177E-02  0.127E+00    1.91       1.0  T
   4    -59.0938163  0.517011E-02  0.924E-01    1.70       1.0  T
   5    -59.1204867 -0.266704E-01  0.298E-01    1.56       1.0  T
   6    -59.1223292 -0.184248E-02  0.199E-01    1.58       1.0  T
   7    -59.1227608 -0.431650E-03  0.111E-01    1.60       1.0  T
   8    -59.1229082 -0.147372E-03  0.611E-02    1.59       1.0  T
   9    -59.1229676 -0.594454E-04  0.285E-02    1.59       1.0  T
  10    -59.1229759 -0.822981E-05  0.134E-02    1.58       1.2  T
  11    -59.1229794 -0.352278E-05  0.553E-03    1.58       3.0  T
  12    -59.1229801 -0.688628E-06  0.190E-03    1.58       8.7  T
  13    -59.1229801 -0.302901E-07  0.997E-04    1.58      16.5  T
  14    -59.1229801 -0.131458E-07  0.391E-04    1.58      42.0  T

   *** convergence criteria satisfied after 14 iterations ***

         #    Occupation            Energy/Eh            Energy/eV
      -------------------------------------------------------------
         1        2.0000           -0.9583411             -26.0778
       ...           ...                  ...                  ...
        47        2.0000           -0.4158179             -11.3150
        48        2.0000           -0.4093727             -11.1396
        49        2.0000           -0.4019670             -10.9381
        50        2.0000           -0.3641194              -9.9082
        51        2.0000           -0.3584863              -9.7549
        52        2.0000           -0.3465712              -9.4307
        53        2.0000           -0.3463295              -9.4241 (HOMO)
        54                         -0.2881972              -7.8422 (LUMO)
        55                         -0.2498914              -6.7999
        56                         -0.2356500              -6.4124
        57                         -0.2071276              -5.6362
        58                         -0.1935229              -5.2660
       ...                                ...                  ...
       105                          0.7151057              19.4590
      -------------------------------------------------------------
                  HL-Gap            0.0581323 Eh            1.5819 eV
             Fermi-level           -0.3169807 Eh           -8.6255 eV

 SCC (total)                   0 d,  0 h,  0 min,  0.129 sec
 SCC setup                      ...        0 min,  0.000 sec (  0.158%)
 Dispersion                     ...        0 min,  0.001 sec (  0.474%)
 classical contributions        ...        0 min,  0.000 sec (  0.167%)
 integral evaluation            ...        0 min,  0.002 sec (  1.697%)
 iterations                     ...        0 min,  0.120 sec ( 93.337%)
 molecular gradient             ...        0 min,  0.004 sec (  3.157%)
 printout                       ...        0 min,  0.001 sec (  0.764%)

         :::::::::::::::::::::::::::::::::::::::::::::::::::::
         ::                     SUMMARY                     ::
         :::::::::::::::::::::::::::::::::::::::::::::::::::::
         :: total energy             -58.235139951926 Eh    ::
         :: gradient norm              0.111697224863 Eh/a0 ::
         :: HOMO-LUMO gap              1.581859608198 eV    ::
         ::.................................................::
         :: SCC energy               -59.122980111809 Eh    ::
         :: -> isotropic ES            0.101994998726 Eh    ::
         :: -> anisotropic ES         -0.016967768959 Eh    ::
         :: -> anisotropic XC          0.016164163468 Eh    ::
         :: -> dispersion             -0.041677628890 Eh    ::
         :: repulsion energy           0.887964176478 Eh    ::
         :: add. restraining           0.000000000000 Eh    ::
         :: total charge               0.000000000000 e     ::
         :::::::::::::::::::::::::::::::::::::::::::::::::::::

      ----------------------------------------------------------- 
     |                   =====================                   |
     |                        A N C O P T                        |
     |                   =====================                   |
     |               Approximate Normal Coordinate               |
     |                Rational Function Optimizer                |
      ----------------------------------------------------------- 

          ...................................................
          :                      SETUP                      :
          :.................................................:
          :   optimization level            normal          :
          :   max. optcycles                   200          :
          :   ANC micro-cycles                  20          :
          :   degrees of freedom               105          :
          :.................................................:
          :   RF solver                   davidson          :
          :   write xtbopt.log                true          :
          :   linear?                        false          :
          :   energy convergence         0.5000000E-05 Eh   :
          :   grad. convergence          0.1000000E-02 Eh/α :
          :   maximium RF displ.         1.0000000          :
          :   Hlow (freq-cutoff)         0.1000000E-01      :
          :   Hmax (freq-cutoff)         5.0000000          :
          :   S6 in model hess.         20.0000000          :
          ...................................................

generating ANC from model Hessian ...
Using Lindh-Hessian (1995)
 Shifting diagonal of input Hessian by    9.9773942182259726E-003
 Lowest  eigenvalues of input Hessian
    0.000000    0.000000    0.000000    0.000000    0.000000    0.000000
    0.010000    0.010349    0.010662    0.011315    0.012675    0.012996
    0.013539    0.016573    0.017076    0.018276    0.022127    0.022329
 Highest eigenvalues
    1.866034    1.932700    1.962812    2.028635    2.115576    2.140717


........................................................................
.............................. CYCLE    1 ..............................
........................................................................
   1    -59.1229801 -0.591230E+02  0.195E-04    1.58       0.0  T
   2    -59.1229801 -0.168043E-09  0.137E-04    1.58     120.4  T
   3    -59.1229801 -0.859544E-10  0.104E-04    1.58     157.9  T
     SCC iter.                  ...        0 min,  0.026 sec
     gradient                   ...        0 min,  0.004 sec
 * total energy  :   -58.2351400 Eh     change       -0.2906738E-08 Eh
   gradient norm :     0.1116965 Eh/α   predicted     0.0000000E+00 (-100.00%)
   displ. norm   :     0.2533379 α      lambda       -0.1571357E-01
   maximum displ.:     0.0813759 α      in ANC's #59, #29, #57, ...

........................................................................
.............................. CYCLE    2 ..............................
........................................................................
   1    -59.1481640 -0.591482E+02  0.214E-01    1.77       0.0  T
   2    -59.1483727 -0.208734E-03  0.132E-01    1.83       1.0  T
   3    -59.1483600  0.127477E-04  0.530E-02    1.90       1.0  T
   4    -59.1483963 -0.363089E-04  0.282E-02    1.92       1.0  T
   5    -59.1484120 -0.157204E-04  0.178E-02    1.93       1.0  T
   6    -59.1484139 -0.186588E-05  0.142E-02    1.93       1.2  T
   7    -59.1484164 -0.245749E-05  0.838E-03    1.92       2.0  T
   8    -59.1484179 -0.149931E-05  0.388E-03    1.93       4.2  T
   9    -59.1484180 -0.179926E-06  0.174E-03    1.93       9.4  T
  10    -59.1484181 -0.901579E-07  0.473E-04    1.93      34.7  T
  11    -59.1484181 -0.357187E-08  0.237E-04    1.93      69.4  T
     SCC iter.                  ...        0 min,  0.095 sec
     gradient                   ...        0 min,  0.004 sec
 * total energy  :   -58.2464832 Eh     change       -0.1134328E-01 Eh
   gradient norm :     0.0607957 Eh/α   predicted    -0.8364509E-02 ( -26.26%)
   displ. norm   :     0.2942514 α      lambda       -0.9145707E-02
   maximum displ.:     0.1137071 α      in ANC's #4, #21, #8, ...

........................................................................
.............................. CYCLE    3 ..............................
........................................................................
   1    -59.1659066 -0.591659E+02  0.206E-01    2.04       0.0  T
   2    -59.1661405 -0.233905E-03  0.124E-01    2.11       1.0  T
   3    -59.1661393  0.125478E-05  0.495E-02    2.18       1.0  T
   4    -59.1661627 -0.234627E-04  0.259E-02    2.21       1.0  T
   5    -59.1661774 -0.146559E-04  0.159E-02    2.21       1.0  T
   6    -59.1661790 -0.158440E-05  0.124E-02    2.21       1.3  T
   7    -59.1661807 -0.171061E-05  0.729E-03    2.21       2.3  T
   8    -59.1661818 -0.110200E-05  0.370E-03    2.21       4.4  T
   9    -59.1661820 -0.207969E-06  0.126E-03    2.21      13.1  T
  10    -59.1661820 -0.448727E-07  0.530E-04    2.21      31.0  T
  11    -59.1661820 -0.255501E-08  0.364E-04    2.21      45.1  T
     SCC iter.                  ...        0 min,  0.094 sec
     gradient                   ...        0 min,  0.004 sec
 * total energy  :   -58.2523292 Eh     change       -0.5845921E-02 Eh
   gradient norm :     0.0394917 Eh/α   predicted    -0.4976694E-02 ( -14.87%)
   displ. norm   :     0.2453329 α      lambda       -0.3653228E-02
   maximum displ.:     0.1190850 α      in ANC's #4, #8, #9, ...

........................................................................
.............................. CYCLE    4 ..............................
........................................................................
   1    -59.1673264 -0.591673E+02  0.193E-01    2.30       0.0  T
   2    -59.1675931 -0.266635E-03  0.112E-01    2.38       1.0  T
   3    -59.1676192 -0.261669E-04  0.482E-02    2.38       1.0  T
   4    -59.1676268 -0.754324E-05  0.277E-02    2.38       1.0  T
   5    -59.1676347 -0.797901E-05  0.213E-02    2.38       1.0  T
   6    -59.1676391 -0.433835E-05  0.141E-02    2.38       1.2  T
   7    -59.1676427 -0.366846E-05  0.693E-03    2.38       2.4  T
   8    -59.1676435 -0.775696E-06  0.373E-03    2.38       4.4  T
   9    -59.1676438 -0.276262E-06  0.106E-03    2.38      15.5  T
  10    -59.1676438 -0.374060E-07  0.513E-04    2.38      32.0  T
  11    -59.1676438 -0.236694E-08  0.315E-04    2.38      52.2  T
     SCC iter.                  ...        0 min,  0.092 sec
     gradient                   ...        0 min,  0.004 sec
 * total energy  :   -58.2551998 Eh     change       -0.2870654E-02 Eh
   gradient norm :     0.0409978 Eh/α   predicted    -0.1936735E-02 ( -32.53%)
   displ. norm   :     0.3905943 α      lambda       -0.5143182E-02
   maximum displ.:     0.2098161 α      in ANC's #4, #8, #21, ...

........................................................................
.............................. CYCLE    5 ..............................
........................................................................
   1    -59.1669717 -0.591670E+02  0.274E-01    2.39       0.0  T
   2    -59.1675089 -0.537156E-03  0.155E-01    2.39       1.0  T
   3    -59.1675572 -0.482945E-04  0.612E-02    2.38       1.0  T
   4    -59.1675652 -0.803595E-05  0.340E-02    2.38       1.0  T
   5    -59.1675817 -0.164742E-04  0.249E-02    2.38       1.0  T
   6    -59.1675866 -0.492416E-05  0.189E-02    2.38       1.0  T
   7    -59.1675927 -0.607000E-05  0.105E-02    2.38       1.6  T
   8    -59.1675945 -0.187533E-05  0.604E-03    2.38       2.7  T
   9    -59.1675952 -0.692636E-06  0.203E-03    2.38       8.1  T
  10    -59.1675954 -0.123260E-06  0.111E-03    2.38      14.8  T
  11    -59.1675954 -0.104038E-07  0.720E-04    2.38      22.8  T
  12    -59.1675954 -0.435603E-08  0.470E-04    2.38      35.0  T
     SCC iter.                  ...        0 min,  0.101 sec
     gradient                   ...        0 min,  0.005 sec
 * total energy  :   -58.2589945 Eh     change       -0.3794679E-02 Eh
   gradient norm :     0.0342098 Eh/α   predicted    -0.2964008E-02 ( -21.89%)
   displ. norm   :     0.3271724 α      lambda       -0.3779256E-02
   maximum displ.:     0.1615313 α      in ANC's #4, #86, #8, ...

........................................................................
.............................. CYCLE    6 ..............................
........................................................................
   1    -59.1690735 -0.591691E+02  0.242E-01    2.36       0.0  T
   2    -59.1695329 -0.459367E-03  0.134E-01    2.36       1.0  T
   3    -59.1695804 -0.475186E-04  0.594E-02    2.36       1.0  T
   4    -59.1695895 -0.908426E-05  0.348E-02    2.36       1.0  T
   5    -59.1696067 -0.171616E-04  0.264E-02    2.36       1.0  T
   6    -59.1696150 -0.839898E-05  0.177E-02    2.36       1.0  T
   7    -59.1696212 -0.614465E-05  0.104E-02    2.36       1.6  T
   8    -59.1696230 -0.183025E-05  0.587E-03    2.36       2.8  T
   9    -59.1696238 -0.813062E-06  0.178E-03    2.36       9.2  T
  10    -59.1696239 -0.793415E-07  0.897E-04    2.36      18.3  T
  11    -59.1696239 -0.634123E-08  0.531E-04    2.36      31.0  T
     SCC iter.                  ...        0 min,  0.092 sec
     gradient                   ...        0 min,  0.004 sec
 * total energy  :   -58.2613097 Eh     change       -0.2315181E-02 Eh
   gradient norm :     0.0232464 Eh/α   predicted    -0.2091898E-02 (  -9.64%)
   displ. norm   :     0.2387937 α      lambda       -0.2147090E-02
   maximum displ.:     0.1401967 α      in ANC's #4, #21, #24, ...

........................................................................
.............................. CYCLE    7 ..............................
........................................................................
   1    -59.1691110 -0.591691E+02  0.121E-01    2.32       0.0  T
   2    -59.1691559 -0.448900E-04  0.722E-02    2.32       1.0  T
   3    -59.1691609 -0.504695E-05  0.249E-02    2.32       1.0  T
   4    -59.1691639 -0.296427E-05  0.157E-02    2.32       1.0  T
   5    -59.1691685 -0.463219E-05  0.102E-02    2.32       1.6  T
   6    -59.1691695 -0.937404E-06  0.795E-03    2.32       2.1  T
   7    -59.1691703 -0.792359E-06  0.601E-03    2.32       2.7  T
   8    -59.1691710 -0.711338E-06  0.251E-03    2.32       6.5  T
   9    -59.1691712 -0.190008E-06  0.841E-04    2.32      19.5  T
  10    -59.1691712 -0.691465E-08  0.630E-04    2.32      26.1  T
     SCC iter.                  ...        0 min,  0.077 sec
     gradient                   ...        0 min,  0.004 sec
 * total energy  :   -58.2622265 Eh     change       -0.9168578E-03 Eh
   gradient norm :     0.0139719 Eh/α   predicted    -0.1134762E-02 (  23.77%)
   displ. norm   :     0.1215844 α      lambda       -0.8314523E-03
   maximum displ.:     0.0517483 α      in ANC's #3, #6, #12, ...

........................................................................
.............................. CYCLE    8 ..............................
........................................................................
   1    -59.1719018 -0.591719E+02  0.828E-02    2.30       0.0  T
   2    -59.1719322 -0.303860E-04  0.477E-02    2.30       1.0  T
   3    -59.1719372 -0.502737E-05  0.195E-02    2.30       1.0  T
   4    -59.1719388 -0.165332E-05  0.126E-02    2.30       1.3  T
   5    -59.1719405 -0.162230E-05  0.984E-03    2.30       1.7  T
   6    -59.1719422 -0.174585E-05  0.402E-03    2.30       4.1  T
   7    -59.1719425 -0.277740E-06  0.250E-03    2.30       6.6  T
   8    -59.1719426 -0.136627E-06  0.117E-03    2.30      14.1  T
   9    -59.1719426 -0.183120E-07  0.831E-04    2.30      19.8  T
  10    -59.1719427 -0.662581E-08  0.631E-04    2.30      26.1  T
     SCC iter.                  ...        0 min,  0.077 sec
     gradient                   ...        0 min,  0.004 sec
 * total energy  :   -58.2626953 Eh     change       -0.4687237E-03 Eh
   gradient norm :     0.0059620 Eh/α   predicted    -0.4219023E-03 (  -9.99%)
   displ. norm   :     0.0701822 α      lambda       -0.1317982E-03
   maximum displ.:     0.0380503 α      in ANC's #8, #3, #6, ...

........................................................................
.............................. CYCLE    9 ..............................
........................................................................
   1    -59.1724021 -0.591724E+02  0.255E-02    2.30       0.0  T
   2    -59.1724026 -0.507258E-06  0.155E-02    2.30       1.1  T
   3    -59.1724019  0.642131E-06  0.528E-03    2.30       3.1  T
   4    -59.1724029 -0.949620E-06  0.241E-03    2.30       6.8  T
   5    -59.1724029 -0.310492E-07  0.196E-03    2.30       8.4  T
   6    -59.1724030 -0.369463E-07  0.130E-03    2.30      12.6  T
   7    -59.1724030 -0.277096E-07  0.473E-04    2.30      34.7  T
   8    -59.1724030 -0.364511E-08  0.250E-04    2.30      65.6  T
     SCC iter.                  ...        0 min,  0.062 sec
     gradient                   ...        0 min,  0.005 sec
 * total energy  :   -58.2627882 Eh     change       -0.9290333E-04 Eh
   gradient norm :     0.0027020 Eh/α   predicted    -0.6622936E-04 ( -28.71%)
   displ. norm   :     0.0841522 α      lambda       -0.6790872E-04
   maximum displ.:     0.0432877 α      in ANC's #4, #8, #3, ...

........................................................................
.............................. CYCLE   10 ..............................
........................................................................
   1    -59.1721319 -0.591721E+02  0.230E-02    2.30       0.0  T
   2    -59.1721323 -0.370122E-06  0.138E-02    2.30       1.2  T
   3    -59.1721318  0.535741E-06  0.440E-03    2.30       3.7  T
   4    -59.1721325 -0.718268E-06  0.172E-03    2.30       9.5  T
   5    -59.1721325 -0.218954E-07  0.137E-03    2.30      12.0  T
   6    -59.1721325 -0.185737E-07  0.976E-04    2.30      16.9  T
   7    -59.1721325 -0.135425E-07  0.461E-04    2.30      35.6  T
     SCC iter.                  ...        0 min,  0.054 sec
     gradient                   ...        0 min,  0.004 sec
 * total energy  :   -58.2628336 Eh     change       -0.4546261E-04 Eh
   gradient norm :     0.0017885 Eh/α   predicted    -0.3419603E-04 ( -24.78%)
   displ. norm   :     0.1339105 α      lambda       -0.3890895E-04
   maximum displ.:     0.0987815 α      in ANC's #4, #8, #3, ...

........................................................................
.............................. CYCLE   11 ..............................
........................................................................
   1    -59.1715269 -0.591715E+02  0.315E-02    2.31       0.0  T
   2    -59.1715271 -0.287459E-06  0.185E-02    2.31       1.0  T
   3    -59.1715268  0.369599E-06  0.359E-03    2.31       4.6  T
   4    -59.1715273 -0.481043E-06  0.123E-03    2.31      13.4  T
   5    -59.1715273 -0.146816E-07  0.830E-04    2.31      19.8  T
   6    -59.1715273 -0.843367E-08  0.514E-04    2.31      32.0  T
     SCC iter.                  ...        0 min,  0.047 sec
     gradient                   ...        0 min,  0.004 sec
 * total energy  :   -58.2628736 Eh     change       -0.4000190E-04 Eh
   gradient norm :     0.0028479 Eh/α   predicted    -0.1961960E-04 ( -50.95%)
   displ. norm   :     0.0903745 α      lambda       -0.3748264E-04
   maximum displ.:     0.0764219 α      in ANC's #4, #1, #8, ...

........................................................................
.............................. CYCLE   12 ..............................
........................................................................
   1    -59.1714169 -0.591714E+02  0.220E-02    2.31       0.0  T
   2    -59.1714170 -0.118742E-06  0.130E-02    2.31       1.3  T
   3    -59.1714170 -0.664599E-08  0.194E-03    2.31       8.5  T
   4    -59.1714171 -0.762834E-07  0.138E-03    2.31      11.9  T
   5    -59.1714171 -0.146355E-07  0.930E-04    2.31      17.7  T
   6    -59.1714171 -0.931081E-08  0.523E-04    2.31      31.4  T
     SCC iter.                  ...        0 min,  0.047 sec
     gradient                   ...        0 min,  0.004 sec
 * total energy  :   -58.2629061 Eh     change       -0.3251458E-04 Eh
   gradient norm :     0.0024156 Eh/α   predicted    -0.1890975E-04 ( -41.84%)
   displ. norm   :     0.1080941 α      lambda       -0.4327200E-04
   maximum displ.:     0.0903408 α      in ANC's #4, #1, #2, ...

........................................................................
.............................. CYCLE   13 ..............................
........................................................................
   1    -59.1715632 -0.591716E+02  0.267E-02    2.31       0.0  T
   2    -59.1715634 -0.225114E-06  0.158E-02    2.31       1.0  T
   3    -59.1715633  0.104432E-06  0.305E-03    2.31       5.4  T
   4    -59.1715636 -0.268002E-06  0.191E-03    2.31       8.6  T
   5    -59.1715636 -0.251481E-07  0.133E-03    2.31      12.4  T
   6    -59.1715636 -0.152599E-07  0.779E-04    2.31      21.1  T
   7    -59.1715636 -0.102367E-07  0.402E-04    2.31      40.9  T
     SCC iter.                  ...        0 min,  0.054 sec
     gradient                   ...        0 min,  0.004 sec
 * total energy  :   -58.2629413 Eh     change       -0.3512353E-04 Eh
   gradient norm :     0.0014836 Eh/α   predicted    -0.2189114E-04 ( -37.67%)
   displ. norm   :     0.1805435 α      lambda       -0.3458073E-04
   maximum displ.:     0.1497214 α      in ANC's #4, #1, #2, ...

........................................................................
.............................. CYCLE   14 ..............................
........................................................................
   1    -59.1717635 -0.591718E+02  0.420E-02    2.31       0.0  T
   2    -59.1717640 -0.503907E-06  0.248E-02    2.31       1.0  T
   3    -59.1717634  0.606223E-06  0.540E-03    2.31       3.0  T
   4    -59.1717644 -0.100364E-05  0.289E-03    2.31       5.7  T
   5    -59.1717644 -0.311304E-07  0.219E-03    2.31       7.5  T
   6    -59.1717644 -0.594128E-07  0.130E-03    2.31      12.7  T
   7    -59.1717645 -0.242941E-07  0.661E-04    2.31      24.9  T
   8    -59.1717645 -0.560939E-08  0.286E-04    2.31      57.5  T
     SCC iter.                  ...        0 min,  0.062 sec
     gradient                   ...        0 min,  0.004 sec
 * total energy  :   -58.2629777 Eh     change       -0.3645743E-04 Eh
   gradient norm :     0.0016147 Eh/α   predicted    -0.1754174E-04 ( -51.88%)
   displ. norm   :     0.1330843 α      lambda       -0.1814065E-04
   maximum displ.:     0.1061189 α      in ANC's #4, #1, #2, ...

........................................................................
.............................. CYCLE   15 ..............................
........................................................................
   1    -59.1720467 -0.591720E+02  0.283E-02    2.31       0.0  T
   2    -59.1720469 -0.225337E-06  0.167E-02    2.31       1.0  T
   3    -59.1720465  0.385473E-06  0.402E-03    2.31       4.1  T
   4    -59.1720471 -0.579962E-06  0.201E-03    2.31       8.2  T
   5    -59.1720471 -0.146949E-07  0.151E-03    2.31      10.9  T
   6    -59.1720471 -0.292401E-07  0.889E-04    2.31      18.5  T
   7    -59.1720471 -0.113628E-07  0.465E-04    2.31      35.4  T
     SCC iter.                  ...        0 min,  0.060 sec
     gradient                   ...        0 min,  0.004 sec
 * total energy  :   -58.2629995 Eh     change       -0.2178733E-04 Eh
   gradient norm :     0.0013747 Eh/α   predicted    -0.9142119E-05 ( -58.04%)
   displ. norm   :     0.2076807 α      lambda       -0.2227063E-04
   maximum displ.:     0.1562258 α      in ANC's #4, #1, #2, ...

........................................................................
.............................. CYCLE   16 ..............................
........................................................................
   1    -59.1720111 -0.591720E+02  0.425E-02    2.31       0.0  T
   2    -59.1720117 -0.544062E-06  0.251E-02    2.31       1.0  T
   3    -59.1720110  0.689636E-06  0.591E-03    2.31       2.8  T
   4    -59.1720122 -0.117871E-05  0.329E-03    2.31       5.0  T
   5    -59.1720122 -0.431481E-07  0.235E-03    2.31       7.0  T
   6    -59.1720123 -0.785831E-07  0.140E-03    2.31      11.7  T
   7    -59.1720123 -0.288864E-07  0.708E-04    2.31      23.2  T
   8    -59.1720123 -0.603294E-08  0.254E-04    2.31      64.7  T
     SCC iter.                  ...        0 min,  0.062 sec
     gradient                   ...        0 min,  0.004 sec
 * total energy  :   -58.2630209 Eh     change       -0.2139016E-04 Eh
   gradient norm :     0.0009795 Eh/α   predicted    -0.1134983E-04 ( -46.94%)
   displ. norm   :     0.1005010 α      lambda       -0.9128456E-05
   maximum displ.:     0.0587879 α      in ANC's #4, #1, #2, ...

........................................................................
.............................. CYCLE   17 ..............................
........................................................................
   1    -59.1725099 -0.591725E+02  0.183E-02    2.31       0.0  T
   2    -59.1725100 -0.146938E-06  0.109E-02    2.31       1.5  T
   3    -59.1725098  0.155190E-06  0.303E-03    2.31       5.4  T
   4    -59.1725101 -0.288285E-06  0.179E-03    2.31       9.2  T
   5    -59.1725102 -0.153949E-07  0.129E-03    2.31      12.8  T
   6    -59.1725102 -0.190900E-07  0.759E-04    2.31      21.7  T
   7    -59.1725102 -0.103650E-07  0.357E-04    2.31      46.1  T
     SCC iter.                  ...        0 min,  0.054 sec
     gradient                   ...        0 min,  0.004 sec
 * total energy  :   -58.2630303 Eh     change       -0.9444293E-05 Eh
   gradient norm :     0.0008078 Eh/α   predicted    -0.4586029E-05 ( -51.44%)
   displ. norm   :     0.0943162 α      lambda       -0.8206608E-05
   maximum displ.:     0.0580427 α      in ANC's #1, #4, #3, ...

........................................................................
.............................. CYCLE   18 ..............................
........................................................................
   1    -59.1724389 -0.591724E+02  0.153E-02    2.31       0.0  T
   2    -59.1724391 -0.114478E-06  0.909E-03    2.31       1.8  T
   3    -59.1724391 -0.377887E-07  0.197E-03    2.31       8.3  T
   4    -59.1724391 -0.440246E-07  0.153E-03    2.31      10.7  T
   5    -59.1724392 -0.247853E-07  0.997E-04    2.31      16.5  T
   6    -59.1724392 -0.794026E-08  0.615E-04    2.31      26.7  T
     SCC iter.                  ...        0 min,  0.047 sec
     gradient                   ...        0 min,  0.004 sec
 * total energy  :   -58.2630407 Eh     change       -0.1034688E-04 Eh
   gradient norm :     0.0008437 Eh/α   predicted    -0.4121452E-05 ( -60.17%)
   displ. norm   :     0.1242690 α      lambda       -0.1387237E-04
   maximum displ.:     0.0809044 α      in ANC's #1, #3, #2, ...

........................................................................
.............................. CYCLE   19 ..............................
........................................................................
   1    -59.1724805 -0.591725E+02  0.192E-02    2.31       0.0  T
   2    -59.1724807 -0.152032E-06  0.115E-02    2.31       1.4  T
   3    -59.1724808 -0.113306E-06  0.246E-03    2.31       6.7  T
   4    -59.1724808 -0.377531E-07  0.199E-03    2.31       8.3  T
   5    -59.1724809 -0.403804E-07  0.115E-03    2.31      14.3  T
   6    -59.1724809 -0.117060E-07  0.638E-04    2.31      25.8  T
   7    -59.1724809 -0.989835E-08  0.265E-04    2.31      62.1  T
     SCC iter.                  ...        0 min,  0.054 sec
     gradient                   ...        0 min,  0.005 sec
 * total energy  :   -58.2630585 Eh     change       -0.1778852E-04 Eh
   gradient norm :     0.0011080 Eh/α   predicted    -0.6988564E-05 ( -60.71%)
   displ. norm   :     0.1957152 α      lambda       -0.1995784E-04
   maximum displ.:     0.1264044 α      in ANC's #1, #3, #2, ...

........................................................................
.............................. CYCLE   20 ..............................
........................................................................
   1    -59.1721040 -0.591721E+02  0.306E-02    2.31       0.0  T
   2    -59.1721043 -0.310828E-06  0.181E-02    2.31       1.0  T
   3    -59.1721045 -0.144212E-06  0.363E-03    2.31       4.5  T
   4    -59.1721046 -0.146356E-06  0.286E-03    2.31       5.7  T
   5    -59.1721047 -0.649855E-07  0.180E-03    2.31       9.1  T
   6    -59.1721047 -0.445181E-07  0.975E-04    2.31      16.9  T
   7    -59.1721047 -0.162556E-07  0.436E-04    2.31      37.7  T
     SCC iter.                  ...        0 min,  0.054 sec
     gradient                   ...        0 min,  0.004 sec
 * total energy  :   -58.2630826 Eh     change       -0.2416213E-04 Eh
   gradient norm :     0.0010865 Eh/α   predicted    -0.1014977E-04 ( -57.99%)
   displ. norm   :     0.2170964 α      lambda       -0.1804771E-04
   maximum displ.:     0.1446059 α      in ANC's #1, #3, #2, ...
 * RMSD in coord.:     0.3666685 α      energy gain  -0.2794268E-01 Eh

generating ANC from model Hessian ...
Using Lindh-Hessian (1995)
 Shifting diagonal of input Hessian by    9.8817200760002218E-003
 Lowest  eigenvalues of input Hessian
    0.000000    0.000000    0.000000    0.000000    0.000000    0.000000
    0.010000    0.010159    0.010417    0.010845    0.012295    0.012937
    0.013974    0.015221    0.016771    0.017198    0.018317    0.022754
 Highest eigenvalues
    1.907759    1.979494    1.999200    2.067313    2.130719    2.170546


........................................................................
.............................. CYCLE   21 ..............................
........................................................................
   1    -59.1720711 -0.591721E+02  0.364E-02    2.31       0.0  T
   2    -59.1720716 -0.432302E-06  0.217E-02    2.31       1.0  T
   3    -59.1720718 -0.285131E-06  0.458E-03    2.31       3.6  T
   4    -59.1720720 -0.182223E-06  0.373E-03    2.31       4.4  T
   5    -59.1720722 -0.137690E-06  0.211E-03    2.31       7.8  T
   6    -59.1720722 -0.689673E-07  0.112E-03    2.31      14.6  T
   7    -59.1720722 -0.184386E-07  0.439E-04    2.31      37.4  T
   8    -59.1720723 -0.227801E-08  0.190E-04    2.31      86.4  T
     SCC iter.                  ...        0 min,  0.062 sec
     gradient                   ...        0 min,  0.004 sec
 * total energy  :   -58.2631021 Eh     change       -0.1946202E-04 Eh
   gradient norm :     0.0012682 Eh/α   predicted     0.0000000E+00 (-100.00%)
   displ. norm   :     0.0226558 α      lambda       -0.1595124E-05
   maximum displ.:     0.0120763 α      in ANC's #1, #18, #10, ...

........................................................................
.............................. CYCLE   22 ..............................
........................................................................
   1    -59.1722096 -0.591722E+02  0.674E-03    2.31       0.0  T
   2    -59.1722096 -0.260403E-07  0.403E-03    2.31       4.1  T
   3    -59.1722096  0.460074E-07  0.138E-03    2.31      11.9  T
   4    -59.1722096 -0.616961E-07  0.551E-04    2.31      29.8  T
   5    -59.1722096 -0.231867E-08  0.423E-04    2.31      38.8  T
     SCC iter.                  ...        0 min,  0.039 sec
     gradient                   ...        0 min,  0.004 sec
 * total energy  :   -58.2631095 Eh     change       -0.7415265E-05 Eh
   gradient norm :     0.0004570 Eh/α   predicted    -0.3560351E-05 ( -51.99%)
   displ. norm   :     0.0412135 α      lambda       -0.6169678E-05
   maximum displ.:     0.0214559 α      in ANC's #1, #8, #13, ...

........................................................................
.............................. CYCLE   23 ..............................
........................................................................
   1    -59.1722985 -0.591723E+02  0.123E-02    2.31       0.0  T
   2    -59.1722985 -0.636493E-07  0.736E-03    2.31       2.2  T
   3    -59.1722986 -0.127043E-07  0.169E-03    2.31       9.7  T
   4    -59.1722986 -0.429065E-07  0.125E-03    2.31      13.1  T
   5    -59.1722986 -0.818971E-08  0.982E-04    2.31      16.7  T
   6    -59.1722986 -0.143353E-07  0.467E-04    2.31      35.2  T
     SCC iter.                  ...        0 min,  0.048 sec
     gradient                   ...        0 min,  0.004 sec
 * total energy  :   -58.2631142 Eh     change       -0.4673992E-05 Eh
   gradient norm :     0.0005739 Eh/α   predicted    -0.3089190E-05 ( -33.91%)
   displ. norm   :     0.0304614 α      lambda       -0.3091678E-05
   maximum displ.:     0.0217793 α      in ANC's #1, #7, #13, ...

   *** GEOMETRY OPTIMIZATION CONVERGED AFTER 23 ITERATIONS ***

------------------------------------------------------------------------
 total energy gain   :        -0.0279742 Eh      -17.5541 kcal/mol
 total RMSD          :         0.3679078 a0        0.1947 Å
 total power (kW/mol):        -3.1933193 (step)  -44.1866 (real)
------------------------------------------------------------------------

 ANCopt (total)                0 d,  0 h,  0 min,  1.662 sec
 optimizer setup                ...        0 min,  0.000 sec (  0.008%)
 model hessian                  ...        0 min,  0.014 sec (  0.867%)
 ANC generation                 ...        0 min,  0.012 sec (  0.695%)
 coordinate transformation      ...        0 min,  0.002 sec (  0.092%)
 single point calculation       ...        0 min,  1.626 sec ( 97.808%)
 optimization log               ...        0 min,  0.003 sec (  0.157%)
 hessian update                 ...        0 min,  0.001 sec (  0.045%)
 rational function              ...        0 min,  0.003 sec (  0.169%)

================
 final structure:
================
37
 xtb: 6.5.1 (fef0646)
N            0.94776216302993       -1.54773195846898        1.33009905407972
C            2.16778691757669       -0.90678173704337        1.81037550346686
C            3.34718493088535       -1.28362624493532        0.90266364941101
O            4.55095181143100       -0.70582050510096        1.34241947451334
C            5.21864906940757       -1.23525996703102        2.40901791403213
C            6.35664455830609       -0.51491855352598        2.83165416466353
C            6.75851507492289        0.69258560806012        2.19136042451666
C            7.85229303417326        1.37413914029570        2.60536752868559
C            7.12081442796117       -1.00059652151005        3.91719680464487
C            6.74844056553306       -2.19881204401471        4.57586314939350
C            5.62006635314154       -2.88000494537261        4.12707060025242
C            4.86847735730051       -2.40852643078784        3.06665919361063
C            7.53989080630362       -2.66188572037568        5.66690702433971
C            8.63340865840868       -1.97999684342527        6.07778943557998
C            9.03556800322294       -0.77098051522109        5.43579417421380
C           10.16007185545844       -0.05252692956603        5.84311199024564
C           10.52302462352333        1.11662715400562        5.19884855251911
C            9.77827169883778        1.59678128993317        4.13819460290009
C            8.64494196996063        0.91134930208173        3.69534094891229
C            8.26564343082960       -0.28681141208457        4.34875193313985
Cl           0.46620930352505       -0.91531253355049       -1.51657026016504
H            0.14311269322751       -1.24400766230589        1.86738925704982
H            1.01814719420301       -2.55815601718918        1.39626678985371
H            0.68479427052424       -1.18656249652345       -0.20732781923891
H            2.40754637745072       -1.17535090159726        2.84916111568130
H            2.02444917040118        0.17473419763103        1.76704884222933
H            3.17777422958062       -0.87639248537903       -0.09682451186886
H            3.43295200492792       -2.37422232830029        0.81753815627591
H            6.16163987662050        1.04443514097670        1.36466655124077
H            8.14884921876654        2.28948033009214        2.11315951833747
H            5.32516927715786       -3.79668416311730        4.61763147109514
H            4.00752779069497       -2.98081852836894        2.75674999450843
H            7.24199161637413       -3.57755443831696        6.15833270269317
H            9.22931219682317       -2.33836213115634        6.90527854696914
H           10.74895271646933       -0.42008400794777        6.67142542934937
H           11.39755866994886        1.65921526588064        5.52827259517456
H           10.06893608308635        2.51082059325303        3.64035549769670

 Bond Distances (Angstroems)
 ---------------------------
N1-C2=1.4594         N1-H22=1.0141        N1-H23=1.0150        C2-N1=1.4594         C2-C3=1.5352         C2-H25=1.0994        
C2-H26=1.0918        C3-C2=1.5352         C3-O4=1.4058         C3-H27=1.0925        C3-H28=1.0973        O4-C3=1.4058         
O4-C5=1.3652         C5-O4=1.3652         C5-C6=1.4116         C5-C12=1.3898        C6-C5=1.4116         C6-C7=1.4246         
C6-C9=1.4136         C7-C6=1.4246         C7-C8=1.3536         C7-H29=1.0786        C8-C7=1.3536         C8-C19=1.4250        
C8-H30=1.0808        C9-C6=1.4136         C9-C10=1.4171        C9-C20=1.4165        C10-C9=1.4171        C10-C11=1.3924       
C10-C13=1.4252       C11-C10=1.3924       C11-C12=1.3826       C11-H31=1.0807       C12-C5=1.3898        C12-C11=1.3826       
C12-H32=1.0793       C13-C10=1.4252       C13-C14=1.3526       C13-H33=1.0811       C14-C13=1.3526       C14-C15=1.4267       
C14-H34=1.0809       C15-C14=1.4267       C15-C16=1.3952       C15-C20=1.4173       C16-C15=1.3952       C16-C17=1.3834       
C16-H35=1.0807       C17-C16=1.3834       C17-C18=1.3821       C17-H36=1.0806       C18-C17=1.3821       C18-C19=1.3966       
C18-H37=1.0806       C19-C8=1.4250        C19-C18=1.3966       C19-C20=1.4165       C20-C9=1.4165        C20-C15=1.4173       
C20-C19=1.4165       Cl21-H24=1.3548      H22-N1=1.0141        H23-N1=1.0150        H24-Cl21=1.3548      H25-C2=1.0994        
H26-C2=1.0918        H27-C3=1.0925        H28-C3=1.0973        H29-C7=1.0786        H30-C8=1.0808        H31-C11=1.0807       
H32-C12=1.0793       H33-C13=1.0811       H34-C14=1.0809       H35-C16=1.0807       H36-C17=1.0806       H37-C18=1.0806       
 C  H  Rav=1.0849 sigma=0.0071  Rmin=1.0786  Rmax=1.0994    13
 C  C  Rav=1.4079 sigma=0.0364  Rmin=1.3526  Rmax=1.5352    20
 N  H  Rav=1.0146 sigma=0.0005  Rmin=1.0141  Rmax=1.0150     2
 N  C  Rav=1.4594 sigma=0.0000  Rmin=1.4594  Rmax=1.4594     1
 O  C  Rav=1.3855 sigma=0.0203  Rmin=1.3652  Rmax=1.4058     2
 Cl H  Rav=1.3548 sigma=0.0000  Rmin=1.3548  Rmax=1.3548     1

 selected bond angles (degree)
 --------------------
H22-N1-C2=110.94               H23-N1-C2=110.96               H23-N1-H22=108.58              C3-C2-N1=109.87                
H25-C2-N1=112.70               H25-C2-C3=109.34               H26-C2-N1=108.19               H26-C2-C3=108.70               
H26-C2-H25=107.94              O4-C3-C2=111.84                H27-C3-C2=109.29               H27-C3-O4=105.41               
H28-C3-C2=110.48               H28-C3-O4=111.46               H28-C3-H27=108.16              C5-O4-C3=120.25                
C6-C5-O4=115.49                C12-C5-O4=125.02               C12-C5-C6=119.49               C7-C6-C5=121.69                
C9-C6-C5=119.37                C9-C6-C7=118.94                C8-C7-C6=121.15                H29-C7-C6=117.70               
H29-C7-C8=121.15               C19-C8-C7=121.33               H30-C8-C7=120.59               H30-C8-C19=118.09              
C10-C9-C6=120.36               C20-C9-C6=119.85               C20-C9-C10=119.79              C11-C10-C9=118.48              
C13-C10-C9=118.99              C13-C10-C11=122.54             

 selected dihedral angles (degree)
 ---------------------------------
C3-C2-N1-H22=185.11           C3-C2-N1-H23= 64.31           H25-C2-N1-H22= 62.91          H25-C2-N1-H23=302.12          
H26-C2-N1-H22=303.63          H26-C2-N1-H23=182.84          O4-C3-C2-N1=181.04            O4-C3-C2-H25=305.22           
O4-C3-C2-H26= 62.83           H27-C3-C2-N1= 64.71           H27-C3-C2-H25=188.89          H27-C3-C2-H26=306.50          
H28-C3-C2-N1=305.82           H28-C3-C2-H25= 69.99          H28-C3-C2-H26=187.61          C5-O4-C3-C2= 77.14            
C5-O4-C3-H27=195.80           C5-O4-C3-H28=312.91           C6-C5-O4-C3=184.87            C12-C5-O4-C3=  5.83           
C7-C6-C5-O4=  0.88            C7-C6-C5-C12=179.98           C9-C6-C5-O4=180.92            C9-C6-C5-C12=  0.00           
C8-C7-C6-C5=180.04            C8-C7-C6-C9=  0.00            H29-C7-C6-C5=  0.00           H29-C7-C6-C9=179.94           
C19-C8-C7-C6=  0.06           C19-C8-C7-H29=180.12          H30-C8-C7-C6=180.02           H30-C8-C7-H29=  0.08          
C10-C9-C6-C5=359.97           C10-C9-C6-C7=180.01           C20-C9-C6-C5=179.92           C20-C9-C6-C7=359.96           
C11-C10-C9-C6=  0.10          C11-C10-C9-C20=180.15         C13-C10-C9-C6=179.99          C13-C10-C9-C20=  0.04         

 CMA Distance (Angstroems)
 ---------------------------
R(CMA):  7.8770
           -------------------------------------------------
          |                Final Singlepoint                |
           -------------------------------------------------

          ...................................................
          :                      SETUP                      :
          :.................................................:
          :  # basis functions                 106          :
          :  # atomic orbitals                 105          :
          :  # shells                           59          :
          :  # electrons                       106          :
          :  max. iterations                   250          :
          :  Hamiltonian                  GFN2-xTB          :
          :  restarted?                      false          :
          :  GBSA solvation                  false          :
          :  PC potential                    false          :
          :  electronic temp.          300.0000000     K    :
          :  accuracy                    1.0000000          :
          :  -> integral cutoff          0.2500000E+02      :
          :  -> integral neglect         0.1000000E-07      :
          :  -> SCF convergence          0.1000000E-05 Eh   :
          :  -> wf. convergence          0.1000000E-03 e    :
          :  Broyden damping             0.4000000          :
          ...................................................

 iter      E             dE          RMSdq      gap      omega  full diag
   1    -59.1722986 -0.591723E+02  0.193E-04    2.31       0.0  T
   2    -59.1722986 -0.197801E-09  0.141E-04    2.31     116.8  T
   3    -59.1722986 -0.962928E-10  0.113E-04    2.31     145.2  T

   *** convergence criteria satisfied after 3 iterations ***

         #    Occupation            Energy/Eh            Energy/eV
      -------------------------------------------------------------
         1        2.0000           -1.0264188             -27.9303
       ...           ...                  ...                  ...
        47        2.0000           -0.4076327             -11.0923
        48        2.0000           -0.4049610             -11.0196
        49        2.0000           -0.4045584             -11.0086
        50        2.0000           -0.4035624             -10.9815
        51        2.0000           -0.4035488             -10.9811
        52        2.0000           -0.3915516             -10.6547
        53        2.0000           -0.3587446              -9.7619 (HOMO)
        54                         -0.2740078              -7.4561 (LUMO)
        55                         -0.2419585              -6.5840
        56                         -0.2201565              -5.9908
        57                         -0.2003036              -5.4505
        58                         -0.1806854              -4.9167
       ...                                ...                  ...
       105                          0.7329526              19.9447
      -------------------------------------------------------------
                  HL-Gap            0.0847368 Eh            2.3058 eV
             Fermi-level           -0.3163762 Eh           -8.6090 eV

 SCC (total)                   0 d,  0 h,  0 min,  0.031 sec
 SCC setup                      ...        0 min,  0.000 sec (  0.378%)
 Dispersion                     ...        0 min,  0.000 sec (  1.073%)
 classical contributions        ...        0 min,  0.000 sec (  0.121%)
 integral evaluation            ...        0 min,  0.001 sec (  4.601%)
 iterations                     ...        0 min,  0.024 sec ( 77.054%)
 molecular gradient             ...        0 min,  0.004 sec ( 13.491%)
 printout                       ...        0 min,  0.001 sec (  2.491%)

         :::::::::::::::::::::::::::::::::::::::::::::::::::::
         ::                     SUMMARY                     ::
         :::::::::::::::::::::::::::::::::::::::::::::::::::::
         :: total energy             -58.263114190630 Eh    ::
         :: gradient norm              0.000572772261 Eh/a0 ::
         :: HOMO-LUMO gap              2.305804811266 eV    ::
         ::.................................................::
         :: SCC energy               -59.172298628637 Eh    ::
         :: -> isotropic ES            0.040853736965 Eh    ::
         :: -> anisotropic ES         -0.001193934690 Eh    ::
         :: -> anisotropic XC          0.023056822701 Eh    ::
         :: -> dispersion             -0.042569362826 Eh    ::
         :: repulsion energy           0.909298518417 Eh    ::
         :: add. restraining           0.000000000000 Eh    ::
         :: total charge              -0.000000000000 e     ::
         :::::::::::::::::::::::::::::::::::::::::::::::::::::

           -------------------------------------------------
          |                Property Printout                |
           -------------------------------------------------

    * Orbital Energies and Occupations

         #    Occupation            Energy/Eh            Energy/eV
      -------------------------------------------------------------
         1        2.0000           -1.0264188             -27.9303
       ...           ...                  ...                  ...
        41        2.0000           -0.4528464             -12.3226
        42        2.0000           -0.4420614             -12.0291
        43        2.0000           -0.4358142             -11.8591
        44        2.0000           -0.4304748             -11.7138
        45        2.0000           -0.4130759             -11.2404
        46        2.0000           -0.4108724             -11.1804
        47        2.0000           -0.4076327             -11.0923
        48        2.0000           -0.4049610             -11.0196
        49        2.0000           -0.4045584             -11.0086
        50        2.0000           -0.4035624             -10.9815
        51        2.0000           -0.4035488             -10.9811
        52        2.0000           -0.3915516             -10.6547
        53        2.0000           -0.3587446              -9.7619 (HOMO)
        54                         -0.2740078              -7.4561 (LUMO)
        55                         -0.2419585              -6.5840
        56                         -0.2201565              -5.9908
        57                         -0.2003036              -5.4505
        58                         -0.1806854              -4.9167
        59                         -0.1248028              -3.3961
        60                         -0.0995927              -2.7101
        61                         -0.0687296              -1.8702
        62                         -0.0255234              -0.6945
        63                         -0.0147763              -0.4021
        64                          0.0427311               1.1628
       ...                                ...                  ...
       105                          0.7329526              19.9447
      -------------------------------------------------------------
                  HL-Gap            0.0847368 Eh            2.3058 eV
             Fermi-level           -0.3163762 Eh           -8.6090 eV

     #   Z          covCN         q      C6AA      α(0)
     1   7 N        2.664    -0.316    28.121     7.876
     2   6 C        3.729     0.000    20.677     6.491
     3   6 C        3.691     0.065    19.668     6.346
     4   8 O        1.705    -0.265    18.391     5.790
     5   6 C        2.859     0.134    25.061     8.205
     6   6 C        2.983    -0.009    28.233     8.716
     7   6 C        2.913    -0.031    28.785     8.798
     8   6 C        2.914    -0.038    28.934     8.821
     9   6 C        2.996     0.003    27.953     8.673
    10   6 C        2.981     0.002    27.981     8.677
    11   6 C        2.920    -0.040    29.000     8.831
    12   6 C        2.912    -0.070    29.734     8.941
    13   6 C        2.913    -0.036    28.889     8.814
    14   6 C        2.913    -0.038    28.948     8.823
    15   6 C        2.982     0.012    27.741     8.640
    16   6 C        2.920    -0.038    28.953     8.824
    17   6 C        2.914    -0.030    28.751     8.793
    18   6 C        2.920    -0.038    28.948     8.823
    19   6 C        2.982     0.013    27.726     8.637
    20   6 C        2.998     0.004    27.921     8.668
    21  17 Cl       0.840    -0.463   114.361    16.360
    22   1 H        0.860     0.173     1.258     1.757
    23   1 H        0.860     0.166     1.294     1.782
    24   1 H        0.873     0.332     0.625     1.238
    25   1 H        0.923     0.036     2.507     2.476
    26   1 H        0.924     0.063     2.163     2.300
    27   1 H        0.924     0.078     1.998     2.210
    28   1 H        0.924     0.039     2.460     2.453
    29   1 H        0.926     0.047     2.352     2.398
    30   1 H        0.926     0.033     2.544     2.494
    31   1 H        0.926     0.033     2.539     2.492
    32   1 H        0.926     0.028     2.613     2.528
    33   1 H        0.926     0.030     2.588     2.516
    34   1 H        0.926     0.031     2.577     2.510
    35   1 H        0.926     0.030     2.585     2.514
    36   1 H        0.926     0.030     2.592     2.518
    37   1 H        0.926     0.031     2.575     2.509

 Mol. C6AA /au·bohr⁶  :      18976.685359
 Mol. C8AA /au·bohr⁸  :     490690.707219
 Mol. α(0) /au        :        219.241485


Wiberg/Mayer (AO) data.
largest (>0.10) Wiberg bond orders for each atom

 ---------------------------------------------------------------------------
     #   Z sym  total        # sym  WBO       # sym  WBO       # sym  WBO
 ---------------------------------------------------------------------------
     1   7 N    3.206 --     2 C    1.012    23 H    0.958    22 H    0.957
                            24 H    0.177
     2   6 C    3.972 --     1 N    1.012     3 C    0.989    26 H    0.974
                            25 H    0.969
     3   6 C    3.947 --     2 C    0.989     4 O    0.981    27 H    0.965
                            28 H    0.963
     4   8 O    2.231 --     5 C    1.059     3 C    0.981
     5   6 C    3.900 --    12 C    1.377     6 C    1.273     4 O    1.059
     6   6 C    3.987 --     5 C    1.273     9 C    1.269     7 C    1.212
     7   6 C    3.991 --     8 C    1.646     6 C    1.212    29 H    0.966
     8   6 C    3.990 --     7 C    1.646    19 C    1.204    30 H    0.968
     9   6 C    3.990 --     6 C    1.269    20 C    1.250    10 C    1.243
    10   6 C    3.989 --    11 C    1.359     9 C    1.243    13 C    1.201
    11   6 C    3.956 --    12 C    1.442    10 C    1.359    31 H    0.969
    12   6 C    3.979 --    11 C    1.442     5 C    1.377    32 H    0.963
    13   6 C    3.991 --    14 C    1.655    10 C    1.201    33 H    0.968
    14   6 C    3.983 --    13 C    1.655    15 C    1.197    34 H    0.968
    15   6 C    3.990 --    16 C    1.360    20 C    1.253    14 C    1.197
    16   6 C    3.953 --    17 C    1.439    15 C    1.360    35 H    0.969
    17   6 C    3.986 --    18 C    1.447    16 C    1.439    36 H    0.971
    18   6 C    3.954 --    17 C    1.447    19 C    1.352    37 H    0.969
    19   6 C    3.990 --    18 C    1.352    20 C    1.255     8 C    1.204
    20   6 C    3.990 --    19 C    1.255    15 C    1.253     9 C    1.250
    21  17 Cl   0.788 --    24 H    0.709
    22   1 H    0.970 --     1 N    0.957
    23   1 H    0.972 --     1 N    0.958
    24   1 H    0.890 --    21 Cl   0.709     1 N    0.177
    25   1 H    0.999 --     2 C    0.969
    26   1 H    0.996 --     2 C    0.974
    27   1 H    0.993 --     3 C    0.965
    28   1 H    0.998 --     3 C    0.963
    29   1 H    0.997 --     7 C    0.966
    30   1 H    0.998 --     8 C    0.968
    31   1 H    0.998 --    11 C    0.969
    32   1 H    0.998 --    12 C    0.963
    33   1 H    0.998 --    13 C    0.968
    34   1 H    0.998 --    14 C    0.968
    35   1 H    0.998 --    16 C    0.969
    36   1 H    0.998 --    17 C    0.971
    37   1 H    0.998 --    18 C    0.969
 ---------------------------------------------------------------------------

Topologies differ in total number of bonds
Writing topology from bond orders to xtbtopo.mol

molecular dipole:
                 x           y           z       tot (Debye)
 q only:        0.026      -0.451       1.656
   full:       -0.228      -0.646       1.573       4.362
molecular quadrupole (traceless):
                xx          xy          yy          xz          yz          zz
 q only:       -2.590       0.222       5.353       2.346      -6.474      -2.763
  q+dip:       -8.773       2.236       8.389       5.429     -12.782       0.384
   full:       -8.397      -0.505       7.211       2.379      -9.542       1.185

           -------------------------------------------------
          |                Geometry Summary                 |
           -------------------------------------------------

      molecular mass/u    :      297.7793439
   center of mass at/Å    :        5.8216563      -0.7737082       2.8938058
  moments of inertia/u·Å² :        0.6817848E+03   0.4383150E+04   0.4965622E+04
rotational constants/cm⁻¹ :        0.2472574E-01   0.3846008E-02   0.3394869E-02

 * 38 selected distances

     #   Z          #   Z                                           value/Å
     1   7 N        2   6 C                                       1.4594326
     2   6 C        3   6 C                                       1.5352305 (max)
     3   6 C        4   8 O                                       1.4058093
     4   8 O        5   6 C                                       1.3651954
     5   6 C        6   6 C                                       1.4115762
     6   6 C        7   6 C                                       1.4246202
     7   6 C        8   6 C                                       1.3536128
     6   6 C        9   6 C                                       1.4135918
     9   6 C       10   6 C                                       1.4171184
    10   6 C       11   6 C                                       1.3923603
     5   6 C       12   6 C                                       1.3898442
    11   6 C       12   6 C                                       1.3826246
    10   6 C       13   6 C                                       1.4252045
    13   6 C       14   6 C                                       1.3526191
    14   6 C       15   6 C                                       1.4267484
    15   6 C       16   6 C                                       1.3952034
    16   6 C       17   6 C                                       1.3833769
    17   6 C       18   6 C                                       1.3820970
     8   6 C       19   6 C                                       1.4249594
    18   6 C       19   6 C                                       1.3965576
     9   6 C       20   6 C                                       1.4164614
    15   6 C       20   6 C                                       1.4173443
    19   6 C       20   6 C                                       1.4164755
     1   7 N       22   1 H                                       1.0140957 (min)
     1   7 N       23   1 H                                       1.0150316
     2   6 C       25   1 H                                       1.0994043
     2   6 C       26   1 H                                       1.0918333
     3   6 C       27   1 H                                       1.0924816
     3   6 C       28   1 H                                       1.0972704
     7   6 C       29   1 H                                       1.0786478
     8   6 C       30   1 H                                       1.0807701
    11   6 C       31   1 H                                       1.0807013
    12   6 C       32   1 H                                       1.0792573
    13   6 C       33   1 H                                       1.0810608
    14   6 C       34   1 H                                       1.0808632
    16   6 C       35   1 H                                       1.0807323
    17   6 C       36   1 H                                       1.0806165
    18   6 C       37   1 H                                       1.0806469

 * 5 distinct bonds (by element types)

   Z      Z             #   av. dist./Å        max./Å        min./Å
   1 H    6 C          13     1.0849451     1.0994043     1.0786478
   6 C    6 C          20     1.4078813     1.5352305     1.3526191
   1 H    7 N           2     1.0145637     1.0150316     1.0140957
   6 C    7 N           1     1.4594326     1.4594326     1.4594326
   6 C    8 O           2     1.3855023     1.4058093     1.3651954


optimized geometry written to: xtbopt.xyz


           -------------------------------------------------
          | TOTAL ENERGY              -58.263114190630 Eh   |
          | GRADIENT NORM               0.000572772261 Eh/α |
          | HOMO-LUMO GAP               2.305804811266 eV   |
           -------------------------------------------------

------------------------------------------------------------------------
 * finished run on 2023/01/23 at 20:55:16.376     
------------------------------------------------------------------------
 total:
 * wall-time:     0 d,  0 h,  0 min,  1.874 sec
 *  cpu-time:     0 d,  0 h,  3 min, 47.474 sec
 * ratio c/w:   121.385 speedup
 SCF:
 * wall-time:     0 d,  0 h,  0 min,  0.129 sec
 *  cpu-time:     0 d,  0 h,  0 min, 17.126 sec
 * ratio c/w:   132.628 speedup
 ANC optimizer:
 * wall-time:     0 d,  0 h,  0 min,  1.694 sec
 *  cpu-time:     0 d,  0 h,  3 min, 23.804 sec
 * ratio c/w:   120.308 speedup

