 Entering Gaussian System
 *********************************************
 Gaussian 98:
 frequency output generated by the xtb code
 *********************************************
                         Standard orientation:
 --------------------------------------------------------------------
  Center     Atomic     Atomic              Coordinates (Angstroms)
  Number     Number      Type              X           Y           Z
 --------------------------------------------------------------------
    1          7             0       -4.264814   -0.954047    0.342847
    2          6             0       -3.872390    0.308050   -0.351647
    3          6             0       -2.528765    0.860104    0.116917
    4          6             0       -1.340471   -0.026463   -0.256895
    5          6             0        0.005974    0.571860    0.155319
    6          6             0        1.196298   -0.310867   -0.223134
    7          6             0        2.543502    0.296897    0.170751
    8          6             0        3.735657   -0.582620   -0.211342
    9          6             0        5.073411    0.032184    0.173792
   10          1             0       -4.294350   -0.814225    1.358477
   11          1             0       -3.596279   -1.707731    0.149126
   12          1             0       -5.191277   -1.275593    0.040750
   13          1             0       -4.659256    1.055724   -0.194986
   14          1             0       -3.842615    0.133288   -1.432837
   15          1             0       -2.551201    1.000616    1.202527
   16          1             0       -2.370972    1.861452   -0.300485
   17          1             0       -1.344286   -0.207655   -1.337255
   18          1             0       -1.453565   -1.014052    0.201477
   19          1             0        0.012058    0.753622    1.235679
   20          1             0        0.123257    1.560219   -0.302533
   21          1             0        1.182093   -0.502129   -1.301813
   22          1             0        1.086424   -1.295605    0.244328
   23          1             0        2.558927    0.487529    1.249510
   24          1             0        2.651176    1.282276   -0.295902
   25          1             0        3.709582   -0.778142   -1.290092
   26          1             0        3.625033   -1.566599    0.259960
   27          1             0        5.912077   -0.607381   -0.105710
   28          1             0        5.133816    0.202065    1.249182
   29          1             0        5.218765    0.996332   -0.314460
 --------------------------------------------------------------------
     1 basis functions        1 primitive gaussians
     1 alpha electrons        1 beta electrons

 Harmonic frequencies (cm**-1), IR intensities (km*mol⁻¹),
 Raman scattering activities (A**4/amu), Raman depolarization ratios,
 reduced masses (AMU), force constants (mDyne/A) and normal coordinates:
                      1                      2                      3
                        a                      a                      a 
 Frequencies --  -127.6341                54.1112                72.9490
 Red. masses --     1.3082                 9.4092                 7.7211
 Frc consts  --     0.0000                 0.0000                 0.0000
 IR Inten    --     0.4963                 6.7688                12.0615
 Raman Activ --     0.0000                 0.0000                 0.0000
 Depolar     --     0.0000                 0.0000                 0.0000
 Atom AN      X      Y      Z        X      Y      Z        X      Y      Z
   1   7    -0.02   0.03   0.01    -0.19   0.15  -0.25    -0.24   0.27   0.31
   2   6     0.04  -0.05  -0.07     0.06   0.08  -0.21     0.01  -0.03  -0.08
   3   6    -0.02   0.01   0.06     0.03  -0.01  -0.02     0.06  -0.07  -0.16
   4   6    -0.00   0.04   0.04     0.01  -0.18   0.31     0.02  -0.14  -0.13
   5   6     0.00   0.01   0.06     0.01  -0.15   0.28     0.01  -0.23   0.05
   6   6    -0.01   0.02  -0.00     0.01  -0.16   0.32     0.06  -0.06  -0.18
   7   6     0.00  -0.01   0.00     0.02  -0.04   0.09    -0.00  -0.11   0.12
   8   6    -0.01  -0.00  -0.05     0.04   0.06  -0.08     0.11   0.18  -0.19
   9   6     0.00  -0.03  -0.05     0.05   0.21  -0.37     0.02   0.14   0.19
  10   1    -0.55   0.16  -0.03    -0.03   0.04  -0.07    -0.04   0.16   0.07
  11   1     0.31   0.17   0.45    -0.10  -0.00  -0.08    -0.12   0.01   0.14
  12   1     0.23  -0.29  -0.40    -0.07   0.10  -0.06    -0.09   0.11   0.12
  13   1    -0.01  -0.02  -0.09     0.03   0.05  -0.10     0.03   0.04  -0.09
  14   1     0.08  -0.06  -0.01     0.06   0.01  -0.06     0.01  -0.10  -0.01
  15   1    -0.02  -0.01   0.02    -0.05   0.04  -0.01     0.02  -0.00  -0.05
  16   1    -0.01   0.01   0.03     0.06  -0.02  -0.03     0.03  -0.03  -0.06
  17   1     0.00   0.02   0.01     0.03  -0.13   0.10     0.03  -0.01  -0.04
  18   1     0.00   0.00  -0.00    -0.03  -0.02   0.16    -0.03  -0.05  -0.06
  19   1     0.00  -0.02   0.02     0.00  -0.02   0.08    -0.00  -0.15   0.03
  20   1     0.00   0.01   0.03     0.00  -0.05   0.06    -0.01  -0.03   0.09
  21   1    -0.01   0.02  -0.00    -0.02  -0.09   0.10     0.04   0.09  -0.07
  22   1    -0.00  -0.00  -0.01     0.03  -0.03   0.14     0.02  -0.07  -0.15
  23   1     0.01  -0.01   0.00     0.05   0.00   0.02    -0.02  -0.16   0.06
  24   1     0.00   0.00   0.01    -0.04  -0.01   0.01    -0.02   0.03   0.16
  25   1    -0.01   0.01  -0.02    -0.04  -0.00  -0.02     0.06   0.19  -0.08
  26   1    -0.00  -0.01  -0.02     0.06   0.02  -0.00     0.05  -0.01  -0.19
  27   1    -0.00  -0.01  -0.03     0.02   0.08  -0.13     0.03   0.10  -0.01
  28   1     0.01  -0.02  -0.01     0.06   0.09  -0.11    -0.02  -0.10   0.08
  29   1    -0.00  -0.00  -0.00    -0.03   0.05  -0.14    -0.01   0.11   0.19
                      4                      5                      6
                        a                      a                      a 
 Frequencies --    90.5897                99.0691               122.9264
 Red. masses --     8.0291                 8.0856                 7.5298
 Frc consts  --     0.0000                 0.0000                 0.0000
 IR Inten    --     3.6080                 2.9627                 9.6096
 Raman Activ --     0.0000                 0.0000                 0.0000
 Depolar     --     0.0000                 0.0000                 0.0000
 Atom AN      X      Y      Z        X      Y      Z        X      Y      Z
   1   7    -0.23   0.13  -0.08    -0.19   0.02  -0.11     0.35  -0.02  -0.06
   2   6    -0.02   0.21   0.20     0.03  -0.00  -0.03    -0.02   0.19   0.14
   3   6     0.10  -0.12   0.24     0.00  -0.08   0.14     0.05   0.17  -0.05
   4   6    -0.02  -0.11  -0.16    -0.00  -0.21   0.42    -0.10  -0.07   0.07
   5   6     0.03  -0.22  -0.16     0.03   0.08  -0.11    -0.01  -0.06  -0.25
   6   6     0.05  -0.21  -0.14     0.04   0.11  -0.15    -0.08  -0.30   0.10
   7   6    -0.01  -0.02  -0.21     0.06   0.18  -0.31    -0.12  -0.20   0.06
   8   6     0.12  -0.04   0.23     0.04   0.08  -0.15     0.01   0.08  -0.17
   9   6     0.00   0.30   0.09     0.02  -0.17   0.30    -0.12   0.18   0.14
  10   1    -0.14  -0.01  -0.02    -0.07  -0.01  -0.03     0.05  -0.05  -0.01
  11   1    -0.04   0.04   0.00    -0.08  -0.02  -0.02     0.18   0.08  -0.03
  12   1    -0.04   0.05  -0.11    -0.06   0.05  -0.05     0.13  -0.09  -0.05
  13   1     0.03   0.09   0.11     0.02   0.02  -0.04    -0.02   0.02   0.13
  14   1    -0.03   0.13   0.05     0.04   0.00  -0.01    -0.07   0.12   0.03
  15   1     0.07  -0.13   0.08    -0.04   0.02   0.03     0.04   0.11  -0.02
  16   1     0.05   0.00   0.15     0.04  -0.04   0.01     0.04   0.02  -0.08
  17   1    -0.05   0.05  -0.06    -0.04  -0.21   0.14    -0.07  -0.12   0.04
  18   1    -0.00  -0.06  -0.11     0.03   0.01   0.27    -0.03   0.03   0.12
  19   1     0.01  -0.07  -0.05     0.08   0.12  -0.05     0.01   0.11  -0.09
  20   1     0.02  -0.06  -0.04    -0.06  -0.01  -0.13     0.02  -0.07  -0.19
  21   1     0.01  -0.09  -0.04    -0.02  -0.00  -0.04    -0.00  -0.18   0.05
  22   1     0.04  -0.05  -0.01     0.04   0.04  -0.01    -0.05  -0.04   0.11
  23   1    -0.04   0.09  -0.08     0.02   0.11  -0.10    -0.01  -0.10   0.02
  24   1    -0.01  -0.05  -0.15     0.02   0.03  -0.14    -0.09  -0.03   0.06
  25   1     0.06  -0.13   0.09     0.08   0.07  -0.05     0.03   0.13  -0.07
  26   1     0.06   0.04   0.18    -0.06   0.01  -0.09     0.04  -0.03  -0.14
  27   1     0.03   0.08   0.13     0.00  -0.06   0.09     0.00   0.14  -0.03
  28   1    -0.03   0.22   0.01    -0.06  -0.13   0.10    -0.06  -0.07   0.06
  29   1    -0.02   0.03  -0.09     0.07  -0.02   0.16    -0.09   0.12   0.16
                      7                      8                      9
                        a                      a                      a 
 Frequencies --   145.9696               148.9788               217.8881
 Red. masses --     7.9578                 6.8448                 8.2125
 Frc consts  --     0.0000                 0.0000                 0.0000
 IR Inten    --     8.0551                 0.3041                 0.7343
 Raman Activ --     0.0000                 0.0000                 0.0000
 Depolar     --     0.0000                 0.0000                 0.0000
 Atom AN      X      Y      Z        X      Y      Z        X      Y      Z
   1   7     0.33   0.02   0.01     0.05  -0.00  -0.04    -0.03  -0.03   0.03
   2   6     0.03   0.06  -0.06     0.01   0.03   0.00     0.18  -0.20  -0.20
   3   6     0.01   0.17  -0.14     0.00   0.04   0.01    -0.07   0.07   0.21
   4   6    -0.06  -0.03   0.13    -0.03  -0.12   0.27     0.08   0.33   0.12
   5   6    -0.05  -0.27   0.41     0.01   0.05  -0.15     0.14   0.20   0.03
   6   6    -0.07  -0.03  -0.19     0.01   0.17  -0.42    -0.12  -0.12  -0.05
   7   6    -0.07   0.05  -0.32    -0.04  -0.18   0.26    -0.03  -0.31  -0.15
   8   6    -0.04  -0.04   0.02    -0.01  -0.12   0.22     0.06  -0.19  -0.09
   9   6    -0.12   0.05   0.12    -0.02   0.12  -0.14    -0.18   0.22   0.10
  10   1     0.12   0.01   0.00     0.01  -0.01  -0.01     0.05   0.04   0.00
  11   1     0.12   0.04  -0.02     0.02   0.01  -0.01    -0.09  -0.08   0.01
  12   1     0.09  -0.04   0.04     0.02  -0.01  -0.02    -0.05   0.06   0.06
  13   1    -0.01  -0.01  -0.00    -0.00   0.00   0.00     0.01  -0.07  -0.21
  14   1    -0.01   0.01  -0.02     0.01   0.02  -0.00     0.19  -0.14  -0.04
  15   1    -0.01   0.13  -0.05    -0.02   0.08  -0.01    -0.09  -0.05   0.07
  16   1     0.02   0.02  -0.11     0.03  -0.02  -0.05    -0.06   0.06   0.13
  17   1     0.04  -0.01   0.04    -0.04  -0.17   0.10     0.01   0.14   0.03
  18   1    -0.09  -0.00   0.03     0.01   0.02   0.21     0.04   0.07  -0.01
  19   1     0.00  -0.25   0.15     0.08   0.03  -0.04     0.08   0.07   0.01
  20   1    -0.02  -0.00   0.27    -0.06   0.01  -0.06     0.09   0.04  -0.01
  21   1    -0.09   0.09  -0.07     0.07   0.23  -0.15    -0.07  -0.05  -0.01
  22   1     0.05  -0.05  -0.13    -0.05  -0.03  -0.30    -0.09  -0.02   0.01
  23   1    -0.04   0.10  -0.11    -0.10  -0.19   0.10    -0.00  -0.08  -0.04
  24   1    -0.02  -0.02  -0.16     0.06   0.00   0.21    -0.00  -0.09  -0.04
  25   1     0.04  -0.07   0.01    -0.05  -0.09   0.07     0.06  -0.06  -0.03
  26   1    -0.04   0.02   0.06     0.05  -0.02   0.11     0.06  -0.06  -0.02
  27   1    -0.02  -0.00   0.13     0.00   0.03  -0.00     0.03   0.15   0.07
  28   1    -0.10   0.09   0.03     0.02   0.15  -0.06    -0.12   0.07   0.03
  29   1    -0.01  -0.02  -0.03    -0.05  -0.01  -0.14    -0.13   0.08   0.03
                     10                     11                     12
                        a                      a                      a 
 Frequencies --   249.6100               256.6909               321.9452
 Red. masses --     2.0870                 9.3956                 8.3029
 Frc consts  --     0.0000                 0.0000                 0.0000
 IR Inten    --     0.0347                 3.4877                 5.2154
 Raman Activ --     0.0000                 0.0000                 0.0000
 Depolar     --     0.0000                 0.0000                 0.0000
 Atom AN      X      Y      Z        X      Y      Z        X      Y      Z
   1   7     0.02   0.02  -0.00    -0.22  -0.17  -0.03    -0.22  -0.12  -0.03
   2   6     0.02   0.00  -0.02    -0.35  -0.02   0.12     0.03   0.00   0.25
   3   6     0.01  -0.01   0.01    -0.27   0.19  -0.18     0.26  -0.06  -0.27
   4   6     0.00  -0.02   0.00    -0.12   0.20   0.07     0.30  -0.04  -0.05
   5   6    -0.00  -0.01   0.01     0.03   0.03   0.08     0.12   0.18   0.14
   6   6     0.00   0.03  -0.07     0.06  -0.03  -0.01     0.01   0.14   0.07
   7   6    -0.01   0.06  -0.09     0.22  -0.17  -0.09     0.04  -0.05  -0.03
   8   6    -0.04  -0.11   0.24     0.36  -0.09  -0.01    -0.14  -0.18  -0.10
   9   6    -0.01   0.03  -0.06     0.31   0.06   0.05    -0.34   0.09   0.03
  10   1     0.01   0.01  -0.00    -0.09  -0.09  -0.00    -0.15  -0.11  -0.00
  11   1     0.00   0.00  -0.00    -0.03  -0.01  -0.02    -0.07  -0.04   0.00
  12   1     0.00   0.01   0.01    -0.04  -0.07  -0.04    -0.04   0.02  -0.12
  13   1     0.01   0.00  -0.01    -0.10  -0.02   0.11     0.07   0.04   0.20
  14   1     0.01  -0.00  -0.00    -0.17   0.03   0.03    -0.12   0.07   0.06
  15   1     0.00  -0.01   0.00    -0.06   0.16  -0.07     0.15   0.11  -0.09
  16   1     0.01  -0.00   0.01    -0.13   0.02  -0.16     0.04  -0.06  -0.20
  17   1     0.00  -0.00   0.00    -0.01   0.02   0.02     0.15  -0.05  -0.01
  18   1     0.00  -0.01  -0.00    -0.07   0.07   0.05     0.10   0.00   0.02
  19   1     0.01  -0.02   0.01     0.02  -0.02   0.03     0.02   0.03   0.04
  20   1    -0.01   0.01   0.02     0.03   0.02   0.05     0.03   0.06   0.06
  21   1    -0.01   0.02  -0.02    -0.01   0.00  -0.00    -0.02   0.05   0.02
  22   1     0.01   0.01  -0.03     0.01  -0.01  -0.01    -0.02   0.04   0.01
  23   1    -0.03   0.11  -0.04     0.07  -0.04  -0.03     0.05  -0.02  -0.01
  24   1     0.03  -0.02  -0.11     0.07  -0.05  -0.03     0.04  -0.02  -0.01
  25   1    -0.03  -0.13   0.09     0.13  -0.03  -0.00    -0.03  -0.05  -0.03
  26   1    -0.00   0.01   0.16     0.13  -0.02   0.00    -0.03  -0.05  -0.03
  27   1     0.02   0.25  -0.50     0.11   0.05  -0.01    -0.03   0.10   0.04
  28   1     0.26  -0.43   0.04     0.09  -0.01   0.02    -0.16   0.03   0.01
  29   1    -0.28   0.23   0.34     0.06   0.03   0.04    -0.16   0.04   0.02
                     13                     14                     15
                        a                      a                      a 
 Frequencies --   380.2955               464.5714               485.8399
 Red. masses --     8.6491                 9.1909                 8.4090
 Frc consts  --     0.0000                 0.0000                 0.0000
 IR Inten    --     9.4048                 0.5877                 3.2732
 Raman Activ --     0.0000                 0.0000                 0.0000
 Depolar     --     0.0000                 0.0000                 0.0000
 Atom AN      X      Y      Z        X      Y      Z        X      Y      Z
   1   7    -0.19  -0.19  -0.03     0.00   0.01  -0.01    -0.03  -0.10  -0.02
   2   6     0.20  -0.14   0.14     0.15   0.00   0.06     0.35  -0.08   0.13
   3   6     0.11   0.31  -0.01     0.19  -0.11  -0.07     0.14   0.29   0.09
   4   6     0.05   0.23   0.05     0.09  -0.08  -0.04    -0.31  -0.11  -0.13
   5   6     0.21  -0.16  -0.06    -0.20   0.26   0.12    -0.36  -0.11  -0.08
   6   6     0.04  -0.29  -0.14    -0.46   0.01  -0.03    -0.02   0.22   0.11
   7   6    -0.23   0.12   0.05    -0.28  -0.22  -0.13     0.17   0.00   0.01
   8   6    -0.16   0.26   0.12     0.15   0.14   0.08     0.10  -0.15  -0.07
   9   6     0.04  -0.09  -0.04     0.35  -0.00   0.02     0.00   0.03   0.02
  10   1    -0.12  -0.11  -0.00    -0.03  -0.01  -0.00    -0.07  -0.08   0.00
  11   1    -0.13  -0.12   0.00    -0.02  -0.02   0.01    -0.10  -0.11   0.00
  12   1    -0.06   0.07  -0.10    -0.00   0.04  -0.04    -0.03   0.12  -0.09
  13   1     0.03  -0.05  -0.02     0.07   0.02   0.05     0.04  -0.05  -0.10
  14   1     0.11  -0.06   0.05     0.01   0.01   0.02     0.24  -0.08   0.05
  15   1     0.06   0.21  -0.02     0.09  -0.01  -0.02     0.11   0.17   0.01
  16   1    -0.04   0.05  -0.13     0.06  -0.04  -0.04     0.03   0.04  -0.08
  17   1    -0.01   0.05   0.02     0.07  -0.03  -0.01    -0.14  -0.02  -0.04
  18   1    -0.04   0.08   0.03     0.06  -0.02  -0.01    -0.15  -0.02  -0.03
  19   1     0.10  -0.06  -0.02    -0.07   0.07   0.04    -0.17  -0.03  -0.02
  20   1     0.12  -0.05  -0.00    -0.07   0.07   0.03    -0.16  -0.02  -0.01
  21   1     0.04  -0.08  -0.04    -0.20   0.01  -0.01     0.01   0.05   0.03
  22   1     0.04  -0.08  -0.04    -0.20   0.01  -0.01     0.01   0.06   0.03
  23   1    -0.12   0.04   0.01    -0.12  -0.05  -0.04     0.10  -0.00   0.00
  24   1    -0.12   0.04   0.01    -0.12  -0.05  -0.03     0.09  -0.00   0.00
  25   1    -0.07   0.07   0.03     0.08   0.03   0.02     0.03  -0.04  -0.02
  26   1    -0.07   0.07   0.03     0.08   0.03   0.02     0.03  -0.04  -0.02
  27   1    -0.07  -0.11  -0.06     0.03  -0.08  -0.04     0.05   0.06   0.03
  28   1     0.08  -0.04  -0.01     0.16  -0.01   0.00    -0.04   0.02   0.01
  29   1     0.08  -0.04  -0.01     0.16  -0.01   0.00    -0.04   0.02   0.01
                     16                     17                     18
                        a                      a                      a 
 Frequencies --   758.1662               765.2116               789.6821
 Red. masses --     1.7938                 1.9364                 2.4147
 Frc consts  --     0.0000                 0.0000                 0.0000
 IR Inten    --    22.0804                 4.1971                18.6078
 Raman Activ --     0.0000                 0.0000                 0.0000
 Depolar     --     0.0000                 0.0000                 0.0000
 Atom AN      X      Y      Z        X      Y      Z        X      Y      Z
   1   7    -0.02   0.05  -0.03    -0.02   0.05  -0.03    -0.06   0.08  -0.01
   2   6    -0.04   0.01   0.03    -0.04   0.01   0.03    -0.10   0.04   0.09
   3   6    -0.03  -0.07   0.09    -0.03  -0.07   0.08    -0.03  -0.08   0.12
   4   6     0.00  -0.09   0.13     0.01  -0.06   0.08     0.04  -0.07  -0.01
   5   6     0.01  -0.05   0.12     0.01   0.01   0.01     0.04   0.09  -0.11
   6   6    -0.00  -0.04   0.07     0.01   0.05  -0.11     0.01   0.05  -0.11
   7   6    -0.00  -0.02   0.04     0.01   0.07  -0.15    -0.01  -0.04   0.06
   8   6    -0.00  -0.00   0.01     0.00   0.06  -0.10    -0.01  -0.06   0.15
   9   6    -0.00   0.00  -0.00    -0.00   0.00  -0.01    -0.00  -0.01   0.02
  10   1     0.03  -0.03  -0.00     0.03  -0.03   0.00     0.05  -0.15   0.02
  11   1     0.05   0.08  -0.06     0.05   0.08  -0.06     0.12   0.19  -0.18
  12   1     0.01  -0.05   0.02     0.01  -0.05   0.01     0.02  -0.11   0.01
  13   1    -0.01   0.02  -0.08    -0.02   0.02  -0.08    -0.05   0.04  -0.24
  14   1     0.07  -0.04   0.02     0.07  -0.04   0.02     0.18  -0.14   0.05
  15   1    -0.02   0.25  -0.02    -0.01   0.20  -0.01     0.04   0.20   0.00
  16   1     0.05  -0.13  -0.23     0.03  -0.11  -0.18     0.01  -0.12  -0.18
  17   1     0.07   0.37  -0.03     0.00   0.19  -0.01    -0.06   0.02  -0.01
  18   1    -0.02  -0.19  -0.34     0.04  -0.11  -0.18     0.13  -0.04  -0.03
  19   1     0.06   0.37  -0.03     0.08  -0.02   0.01     0.03  -0.25   0.02
  20   1    -0.03  -0.17  -0.32    -0.07   0.02   0.02    -0.03   0.14   0.22
  21   1    -0.00   0.26  -0.03    -0.09  -0.27   0.02     0.05  -0.21   0.01
  22   1     0.02  -0.13  -0.23     0.08   0.13   0.24    -0.06   0.11   0.17
  23   1     0.04   0.14  -0.02    -0.04  -0.40   0.04    -0.09   0.13  -0.01
  24   1    -0.04  -0.07  -0.13     0.01   0.20   0.35     0.09  -0.08  -0.11
  25   1    -0.01   0.06  -0.01     0.01  -0.31   0.03     0.03   0.30  -0.02
  26   1     0.01  -0.03  -0.05    -0.03   0.16   0.27    -0.01  -0.16  -0.26
  27   1    -0.00  -0.00  -0.00    -0.00  -0.02   0.03    -0.00   0.02  -0.06
  28   1     0.01   0.01  -0.00    -0.08  -0.08   0.02     0.13   0.11  -0.02
  29   1    -0.01  -0.00  -0.01     0.08   0.03   0.08    -0.12  -0.04  -0.11
                     19                     20                     21
                        a                      a                      a 
 Frequencies --   807.7090               849.3222               887.0772
 Red. masses --     2.5029                 3.3453                 6.7913
 Frc consts  --     0.0000                 0.0000                 0.0000
 IR Inten    --    27.3451                 4.0682                39.3737
 Raman Activ --     0.0000                 0.0000                 0.0000
 Depolar     --     0.0000                 0.0000                 0.0000
 Atom AN      X      Y      Z        X      Y      Z        X      Y      Z
   1   7    -0.11   0.01   0.10    -0.04  -0.10   0.13    -0.27  -0.36  -0.02
   2   6    -0.13   0.11   0.09    -0.03   0.09  -0.05    -0.14   0.17  -0.20
   3   6     0.04   0.07  -0.03     0.09   0.16  -0.16     0.28   0.26   0.15
   4   6     0.07  -0.03  -0.15     0.02  -0.04   0.03     0.10  -0.10  -0.04
   5   6     0.03   0.01   0.04    -0.02  -0.09   0.17     0.01  -0.02  -0.02
   6   6    -0.01  -0.05   0.11    -0.00   0.06  -0.09    -0.03   0.06   0.03
   7   6    -0.01  -0.02   0.00     0.00   0.07  -0.15    -0.03  -0.03  -0.01
   8   6     0.00   0.06  -0.10    -0.01  -0.07   0.13    -0.00   0.00  -0.00
   9   6     0.00   0.02  -0.03    -0.00  -0.04   0.07     0.01   0.01   0.00
  10   1     0.01  -0.35   0.08    -0.05  -0.21   0.06     0.16   0.28  -0.05
  11   1     0.15   0.24  -0.27     0.01   0.03  -0.08     0.07  -0.01   0.14
  12   1     0.04  -0.13  -0.03     0.01  -0.00  -0.06    -0.08  -0.40   0.34
  13   1    -0.07   0.06  -0.34    -0.01   0.03  -0.07    -0.09  -0.01  -0.05
  14   1     0.20  -0.25   0.07    -0.04  -0.10   0.00     0.06   0.15  -0.06
  15   1     0.10  -0.12   0.01    -0.02  -0.23  -0.01     0.13   0.07   0.04
  16   1    -0.01   0.07   0.11     0.06   0.15   0.22     0.15   0.06   0.04
  17   1     0.05  -0.21  -0.01     0.17   0.04   0.00    -0.00  -0.02  -0.01
  18   1     0.02   0.08   0.15    -0.17  -0.02  -0.05     0.00  -0.02  -0.01
  19   1    -0.08   0.04   0.00     0.08   0.23  -0.00    -0.02  -0.01  -0.00
  20   1     0.09  -0.02  -0.02    -0.08  -0.13  -0.20    -0.02   0.00   0.00
  21   1     0.01   0.18  -0.01    -0.16  -0.11   0.00    -0.02   0.01   0.01
  22   1    -0.02  -0.10  -0.15     0.15   0.06   0.11    -0.03   0.02   0.01
  23   1     0.08   0.00  -0.00    -0.12  -0.18   0.00    -0.00  -0.00  -0.00
  24   1    -0.09  -0.00  -0.02     0.11   0.10   0.16    -0.00  -0.01  -0.01
  25   1    -0.04  -0.18   0.01     0.14   0.18  -0.01     0.00  -0.00   0.00
  26   1     0.04   0.10   0.16    -0.13  -0.10  -0.16     0.01  -0.00   0.00
  27   1    -0.01  -0.03   0.04     0.01   0.05  -0.09    -0.01  -0.01  -0.00
  28   1    -0.10  -0.09   0.01     0.20   0.14  -0.02     0.01  -0.00   0.00
  29   1     0.11   0.03   0.09    -0.19  -0.06  -0.14     0.02   0.00   0.00
                     22                     23                     24
                        a                      a                      a 
 Frequencies --   910.7819               937.3668               963.2199
 Red. masses --     3.9690                 6.2937                 4.4448
 Frc consts  --     0.0000                 0.0000                 0.0000
 IR Inten    --     1.2186                 1.5973                 5.3803
 Raman Activ --     0.0000                 0.0000                 0.0000
 Depolar     --     0.0000                 0.0000                 0.0000
 Atom AN      X      Y      Z        X      Y      Z        X      Y      Z
   1   7     0.00   0.14  -0.19    -0.07   0.02  -0.00    -0.09  -0.14   0.20
   2   6    -0.02  -0.14   0.17     0.05  -0.04  -0.02     0.16   0.13  -0.25
   3   6    -0.08  -0.11   0.12     0.07  -0.06  -0.02     0.09  -0.08   0.00
   4   6     0.01   0.08  -0.19     0.03   0.13   0.06    -0.08   0.11   0.12
   5   6     0.01  -0.01   0.06    -0.05  -0.07  -0.04    -0.06   0.03  -0.16
   6   6     0.01  -0.08   0.13    -0.16  -0.08  -0.04    -0.01  -0.07   0.14
   7   6     0.02   0.08  -0.18    -0.18   0.35   0.16     0.06   0.01  -0.08
   8   6    -0.00  -0.01   0.04     0.06  -0.27  -0.13     0.01   0.05  -0.03
   9   6    -0.02  -0.05   0.10     0.33  -0.12  -0.04    -0.06  -0.03   0.10
  10   1     0.09   0.22  -0.07     0.03  -0.02   0.00    -0.04  -0.22   0.07
  11   1     0.03   0.04   0.04     0.06   0.08  -0.05     0.04   0.05  -0.08
  12   1    -0.01  -0.05   0.09     0.00  -0.09   0.04     0.01  -0.07  -0.02
  13   1    -0.03  -0.05  -0.01     0.09   0.05   0.03     0.19   0.15   0.09
  14   1     0.15   0.06   0.03    -0.05  -0.01  -0.01    -0.21  -0.01  -0.06
  15   1     0.16   0.10   0.02    -0.00  -0.00  -0.01    -0.23   0.07  -0.02
  16   1    -0.18  -0.07  -0.13    -0.01  -0.01  -0.01     0.19  -0.06  -0.04
  17   1    -0.07  -0.19  -0.01     0.00   0.03   0.02    -0.22   0.11   0.02
  18   1     0.08   0.11   0.16     0.02   0.04   0.03     0.13  -0.01  -0.02
  19   1    -0.18   0.09   0.00     0.01  -0.03  -0.01    -0.11  -0.13  -0.01
  20   1     0.19  -0.05  -0.04     0.03  -0.02  -0.01     0.08   0.06   0.10
  21   1    -0.12   0.16   0.00    -0.01  -0.01  -0.01     0.09   0.13   0.01
  22   1     0.13  -0.10  -0.12    -0.00  -0.03  -0.01    -0.07  -0.08  -0.11
  23   1     0.04  -0.21  -0.01    -0.09   0.09   0.04     0.21  -0.09  -0.01
  24   1    -0.05   0.12   0.16    -0.10   0.10   0.05    -0.15   0.05   0.05
  25   1     0.20   0.03   0.00    -0.10  -0.06  -0.03     0.20  -0.06   0.00
  26   1    -0.20  -0.00  -0.04    -0.12  -0.06  -0.04    -0.17   0.05   0.04
  27   1    -0.00   0.04  -0.10     0.42   0.32   0.18    -0.06  -0.01  -0.10
  28   1     0.20   0.13  -0.01    -0.20   0.06  -0.00     0.18   0.09  -0.00
  29   1    -0.19  -0.06  -0.13    -0.22   0.04   0.02    -0.12  -0.06  -0.10
                     25                     26                     27
                        a                      a                      a 
 Frequencies --   964.3963              1008.5058              1035.9764
 Red. masses --     5.6170                 3.5093                 8.9571
 Frc consts  --     0.0000                 0.0000                 0.0000
 IR Inten    --    19.1660                 2.1852                 9.2846
 Raman Activ --     0.0000                 0.0000                 0.0000
 Depolar     --     0.0000                 0.0000                 0.0000
 Atom AN      X      Y      Z        X      Y      Z        X      Y      Z
   1   7     0.22  -0.15   0.09    -0.00   0.15  -0.13    -0.03  -0.17   0.04
   2   6    -0.22   0.28  -0.05    -0.10  -0.24   0.14     0.17   0.30   0.04
   3   6    -0.15   0.11   0.08     0.06   0.14  -0.07    -0.09  -0.22  -0.13
   4   6     0.12  -0.26  -0.09     0.06  -0.09   0.10    -0.24   0.05  -0.01
   5   6     0.14   0.11  -0.01     0.02  -0.01  -0.09    -0.15   0.29   0.17
   6   6    -0.01  -0.03   0.06    -0.01   0.05   0.04     0.07  -0.34  -0.20
   7   6    -0.09   0.06  -0.01    -0.04  -0.04   0.04     0.24   0.07   0.08
   8   6    -0.01  -0.04  -0.05    -0.00   0.04  -0.11     0.11   0.14   0.04
   9   6     0.10  -0.06   0.03     0.01  -0.04   0.10    -0.12  -0.12  -0.04
  10   1    -0.14  -0.03   0.02     0.04   0.09  -0.04     0.02   0.04  -0.00
  11   1    -0.20  -0.30   0.15     0.03   0.06  -0.02    -0.01  -0.06   0.06
  12   1    -0.00   0.29  -0.15    -0.00  -0.01   0.02    -0.02  -0.07   0.07
  13   1    -0.29  -0.13  -0.15    -0.04  -0.07   0.01     0.02   0.07  -0.07
  14   1     0.12   0.01   0.00    -0.00  -0.05   0.04     0.22   0.10   0.01
  15   1    -0.05   0.07   0.01     0.09  -0.11   0.01     0.15  -0.08  -0.03
  16   1     0.15  -0.01  -0.01    -0.08   0.10   0.10    -0.08  -0.05  -0.04
  17   1    -0.00  -0.03  -0.03     0.19   0.07   0.01     0.13  -0.02   0.00
  18   1     0.15  -0.09  -0.06    -0.18  -0.05  -0.08    -0.11   0.02   0.01
  19   1    -0.01  -0.04   0.01     0.25  -0.10  -0.01     0.11   0.08   0.04
  20   1     0.07   0.05   0.06    -0.27   0.06   0.04    -0.11   0.08   0.02
  21   1     0.03   0.06   0.00     0.29  -0.01   0.01     0.09  -0.12  -0.05
  22   1    -0.06  -0.03  -0.05    -0.30   0.04  -0.00    -0.08  -0.07  -0.03
  23   1     0.03  -0.02   0.00     0.27   0.01   0.00     0.08   0.04   0.02
  24   1    -0.14   0.04   0.03    -0.28  -0.00  -0.04    -0.06   0.02  -0.00
  25   1     0.05  -0.04  -0.01     0.18  -0.12  -0.01     0.01   0.02   0.02
  26   1    -0.12   0.01   0.01    -0.18   0.07   0.07    -0.06   0.06   0.04
  27   1     0.12   0.10   0.02     0.00   0.03  -0.06     0.03   0.04   0.01
  28   1     0.01   0.06  -0.00     0.15   0.09  -0.00    -0.08   0.01  -0.02
  29   1    -0.12  -0.01  -0.04    -0.12  -0.04  -0.08    -0.13  -0.02  -0.03
                     28                     29                     30
                        a                      a                      a 
 Frequencies --  1062.3251              1073.0831              1098.4474
 Red. masses --     8.9564                 9.2065                 7.6169
 Frc consts  --     0.0000                 0.0000                 0.0000
 IR Inten    --     7.4918                 1.2393                 1.8119
 Raman Activ --     0.0000                 0.0000                 0.0000
 Depolar     --     0.0000                 0.0000                 0.0000
 Atom AN      X      Y      Z        X      Y      Z        X      Y      Z
   1   7     0.04   0.15  -0.08     0.06  -0.07   0.03    -0.02   0.00   0.02
   2   6    -0.25  -0.31   0.00    -0.07   0.17   0.01     0.06   0.01  -0.02
   3   6     0.26   0.20   0.07    -0.05  -0.11  -0.01    -0.11   0.10   0.06
   4   6     0.05  -0.06   0.03     0.38   0.26   0.13     0.32   0.02   0.03
   5   6    -0.18   0.16   0.02    -0.27  -0.35  -0.18    -0.38   0.04  -0.00
   6   6    -0.10  -0.29  -0.12    -0.35   0.00  -0.03     0.43  -0.02   0.02
   7   6     0.29   0.12   0.05     0.15   0.18   0.11    -0.27  -0.13  -0.08
   8   6     0.21   0.16   0.11     0.13  -0.05  -0.03     0.15   0.04   0.03
   9   6    -0.19  -0.15  -0.10    -0.13   0.03   0.02    -0.07  -0.11  -0.06
  10   1    -0.01   0.01  -0.02    -0.03   0.01   0.00     0.00  -0.02   0.01
  11   1    -0.00   0.03  -0.03    -0.05  -0.08   0.05     0.01   0.02  -0.01
  12   1     0.01   0.07  -0.05    -0.00   0.05  -0.02     0.00  -0.02   0.00
  13   1    -0.09  -0.11   0.02    -0.07   0.01  -0.08     0.02  -0.00   0.04
  14   1    -0.18  -0.13   0.00     0.11   0.03   0.01    -0.01   0.04  -0.01
  15   1    -0.02   0.01   0.03     0.03   0.02  -0.01    -0.11   0.06   0.01
  16   1     0.25   0.04   0.07    -0.11  -0.03  -0.04    -0.13   0.04   0.01
  17   1    -0.08   0.05  -0.00     0.21   0.03   0.04     0.15   0.00   0.01
  18   1     0.13  -0.04  -0.02     0.13   0.07   0.06     0.14   0.01   0.02
  19   1    -0.15   0.01   0.01    -0.01  -0.09  -0.05    -0.25   0.04  -0.00
  20   1     0.02   0.05   0.04    -0.06  -0.10  -0.07    -0.25   0.03   0.00
  21   1    -0.12  -0.04  -0.04    -0.03  -0.02  -0.01     0.21  -0.02   0.00
  22   1    -0.02  -0.09  -0.06    -0.06  -0.00  -0.01     0.21  -0.02   0.00
  23   1    -0.01   0.02   0.02     0.14   0.05   0.03    -0.19  -0.02  -0.02
  24   1     0.06   0.04   0.03     0.12   0.04   0.03    -0.19  -0.02  -0.02
  25   1    -0.00   0.07   0.03     0.10  -0.02  -0.01     0.08   0.00   0.01
  26   1     0.03   0.04   0.02     0.09  -0.02   0.00     0.08   0.00   0.00
  27   1     0.01   0.02   0.02    -0.13  -0.09  -0.06     0.03   0.03   0.01
  28   1    -0.15  -0.03  -0.02     0.06  -0.02   0.00    -0.08  -0.01  -0.01
  29   1    -0.12  -0.02  -0.01     0.05  -0.02  -0.02    -0.08  -0.02  -0.01
                     31                     32                     33
                        a                      a                      a 
 Frequencies --  1101.5497              1114.4862              1133.6220
 Red. masses --     8.7506                 7.7142                 8.5307
 Frc consts  --     0.0000                 0.0000                 0.0000
 IR Inten    --     1.2587                 1.0975                 8.1839
 Raman Activ --     0.0000                 0.0000                 0.0000
 Depolar     --     0.0000                 0.0000                 0.0000
 Atom AN      X      Y      Z        X      Y      Z        X      Y      Z
   1   7     0.05   0.01  -0.04    -0.07   0.02   0.05    -0.08   0.03   0.00
   2   6    -0.17  -0.02   0.03     0.19  -0.01  -0.04     0.17  -0.06   0.01
   3   6     0.20  -0.07  -0.04    -0.26   0.20   0.10    -0.18   0.19   0.02
   4   6    -0.02   0.17   0.11     0.28  -0.21  -0.10     0.03  -0.27  -0.11
   5   6    -0.32   0.12   0.02    -0.04  -0.01  -0.00     0.02   0.22   0.09
   6   6     0.19  -0.20  -0.08    -0.10  -0.10  -0.06    -0.06  -0.23  -0.11
   7   6     0.06  -0.03  -0.02     0.35  -0.13  -0.04    -0.10   0.35   0.17
   8   6    -0.43  -0.18  -0.11    -0.31   0.15   0.06     0.09  -0.35  -0.17
   9   6     0.26   0.25   0.14     0.17   0.02   0.02    -0.07   0.19   0.09
  10   1    -0.01   0.04  -0.02     0.02  -0.05   0.02     0.03  -0.01   0.01
  11   1    -0.03  -0.05   0.03     0.04   0.07  -0.04     0.04   0.07  -0.03
  12   1    -0.00   0.05  -0.01     0.00  -0.06   0.01    -0.00  -0.06   0.02
  13   1    -0.08  -0.03  -0.07     0.08   0.00   0.11     0.05  -0.03   0.09
  14   1     0.01  -0.06   0.02    -0.03   0.08  -0.03    -0.02   0.05  -0.01
  15   1     0.11  -0.04  -0.01    -0.20   0.09   0.02    -0.15   0.02   0.01
  16   1     0.17  -0.03   0.01    -0.22   0.07   0.01    -0.05   0.07   0.05
  17   1     0.03   0.07   0.03     0.10  -0.07  -0.03     0.04  -0.05  -0.03
  18   1     0.08   0.04   0.02     0.07  -0.05  -0.02     0.07  -0.08  -0.05
  19   1    -0.10   0.03   0.01    -0.08   0.00  -0.00     0.01   0.03   0.03
  20   1    -0.06   0.04   0.02    -0.10  -0.00  -0.01     0.04   0.05   0.03
  21   1     0.13  -0.06  -0.02    -0.12  -0.03  -0.02     0.03  -0.05  -0.03
  22   1     0.15  -0.07  -0.03    -0.14  -0.02  -0.02     0.05  -0.06  -0.03
  23   1     0.08  -0.03  -0.00     0.13  -0.04  -0.01    -0.00   0.08   0.04
  24   1     0.09  -0.02  -0.01     0.12  -0.04  -0.02     0.01   0.09   0.05
  25   1    -0.16  -0.04  -0.03    -0.23   0.05   0.02     0.14  -0.09  -0.04
  26   1    -0.15  -0.05  -0.03    -0.23   0.06   0.02     0.14  -0.10  -0.04
  27   1    -0.02  -0.03  -0.01     0.12   0.09   0.05    -0.20  -0.15  -0.09
  28   1     0.19   0.04   0.03    -0.02   0.04   0.01     0.18  -0.02   0.02
  29   1     0.19   0.05   0.03    -0.02   0.03   0.03     0.19  -0.00  -0.01
                     34                     35                     36
                        a                      a                      a 
 Frequencies --  1160.5611              1195.3993              1225.9167
 Red. masses --     6.8534                 6.0021                 3.5721
 Frc consts  --     0.0000                 0.0000                 0.0000
 IR Inten    --     9.1582                 0.8330                14.2067
 Raman Activ --     0.0000                 0.0000                 0.0000
 Depolar     --     0.0000                 0.0000                 0.0000
 Atom AN      X      Y      Z        X      Y      Z        X      Y      Z
   1   7     0.06   0.05   0.17    -0.01  -0.02  -0.08    -0.09   0.10   0.16
   2   6    -0.14  -0.08  -0.39     0.04   0.02   0.13     0.07  -0.12  -0.14
   3   6     0.15  -0.05   0.39    -0.04   0.01  -0.05    -0.04   0.03  -0.09
   4   6     0.00   0.07  -0.23     0.02   0.04  -0.08    -0.10  -0.04   0.16
   5   6     0.00  -0.01   0.19    -0.02  -0.10   0.17    -0.06   0.05  -0.15
   6   6     0.02   0.00  -0.14     0.01   0.14  -0.25    -0.05   0.01   0.08
   7   6    -0.01   0.01   0.10    -0.02  -0.16   0.29    -0.04  -0.06   0.02
   8   6     0.01  -0.02  -0.08     0.02   0.17  -0.31    -0.01   0.12  -0.12
   9   6    -0.01   0.01   0.05    -0.01  -0.11   0.21     0.00  -0.09   0.10
  10   1    -0.08  -0.18   0.06     0.03   0.06  -0.03    -0.01  -0.15   0.06
  11   1    -0.03   0.01  -0.08     0.01  -0.01   0.04     0.04   0.12  -0.12
  12   1     0.04   0.09  -0.11    -0.02  -0.02   0.04     0.02  -0.01  -0.06
  13   1    -0.01  -0.02   0.08     0.02   0.03  -0.03    -0.21  -0.31   0.16
  14   1    -0.18   0.11  -0.13    -0.01  -0.10   0.05     0.22   0.41  -0.10
  15   1     0.26   0.19   0.07    -0.19   0.00  -0.01     0.23  -0.10  -0.01
  16   1    -0.16  -0.08  -0.16     0.16  -0.01   0.03     0.02   0.02   0.01
  17   1     0.04  -0.16  -0.03    -0.11  -0.04  -0.01     0.16   0.08   0.02
  18   1    -0.17   0.11   0.11     0.14   0.03   0.04     0.10  -0.07  -0.07
  19   1     0.09   0.12   0.02    -0.10   0.13   0.02     0.05  -0.10  -0.02
  20   1    -0.12  -0.04  -0.08     0.11  -0.10  -0.09     0.19   0.03   0.06
  21   1     0.04  -0.10  -0.02    -0.09  -0.16  -0.02    -0.03   0.05   0.01
  22   1    -0.06   0.05   0.05     0.09   0.11   0.13     0.22  -0.04  -0.02
  23   1     0.04   0.06   0.01     0.01   0.20   0.03    -0.05   0.02  -0.00
  24   1    -0.06  -0.02  -0.04     0.01  -0.14  -0.15     0.17  -0.05  -0.03
  25   1     0.03  -0.05  -0.01    -0.03  -0.21  -0.03    -0.08  -0.07  -0.01
  26   1    -0.01   0.02   0.02     0.03   0.15   0.15     0.12   0.06   0.07
  27   1    -0.02  -0.01  -0.03     0.01   0.05  -0.09     0.03   0.04  -0.04
  28   1     0.06   0.02   0.00     0.19   0.14   0.01     0.08   0.08   0.00
  29   1    -0.01  -0.01  -0.02    -0.19  -0.08  -0.12    -0.12  -0.05  -0.06
                     37                     38                     39
                        a                      a                      a 
 Frequencies --  1232.1009              1252.1653              1263.7496
 Red. masses --     3.6631                 3.1463                 2.8718
 Frc consts  --     0.0000                 0.0000                 0.0000
 IR Inten    --     6.5227                 5.0629                 3.0343
 Raman Activ --     0.0000                 0.0000                 0.0000
 Depolar     --     0.0000                 0.0000                 0.0000
 Atom AN      X      Y      Z        X      Y      Z        X      Y      Z
   1   7     0.08  -0.05  -0.03    -0.05   0.06   0.07     0.02  -0.02   0.01
   2   6    -0.09   0.08  -0.03     0.01  -0.03   0.01    -0.02   0.03  -0.07
   3   6     0.11  -0.00  -0.00     0.06  -0.09  -0.15     0.05   0.09  -0.09
   4   6     0.08  -0.10   0.17     0.09   0.09   0.09    -0.02  -0.13   0.16
   5   6     0.10   0.11  -0.18     0.14  -0.10   0.03    -0.03   0.02   0.05
   6   6     0.06  -0.11   0.11     0.16   0.02  -0.09    -0.05   0.08  -0.17
   7   6     0.05   0.04   0.04     0.13   0.03   0.08    -0.06  -0.09   0.14
   8   6     0.03   0.02  -0.19     0.07  -0.13  -0.00    -0.03  -0.00   0.09
   9   6    -0.02  -0.04   0.17    -0.02   0.11  -0.03     0.02   0.04  -0.14
  10   1    -0.02   0.03  -0.02     0.00  -0.07   0.03    -0.01  -0.01   0.00
  11   1    -0.04  -0.08   0.04     0.02   0.06  -0.05    -0.01  -0.02   0.00
  12   1     0.00   0.02   0.00     0.01  -0.02  -0.02     0.00   0.02  -0.01
  13   1     0.11   0.18  -0.09    -0.19  -0.22   0.05     0.05   0.07  -0.03
  14   1    -0.10  -0.15   0.01     0.22   0.26  -0.04    -0.06  -0.02  -0.02
  15   1     0.17  -0.03   0.01    -0.07  -0.07  -0.03     0.30  -0.11  -0.00
  16   1    -0.41   0.07  -0.00     0.03  -0.00   0.01    -0.39   0.11   0.03
  17   1    -0.11   0.11   0.02    -0.27   0.06   0.01    -0.25   0.13   0.01
  18   1    -0.21  -0.06  -0.08    -0.08   0.02  -0.01     0.26  -0.11  -0.07
  19   1    -0.16  -0.10  -0.02    -0.33   0.07  -0.00    -0.08   0.03   0.01
  20   1    -0.16   0.11   0.09    -0.17  -0.01  -0.02     0.19  -0.03  -0.01
  21   1    -0.29   0.10   0.01    -0.26  -0.03  -0.01    -0.05  -0.09  -0.02
  22   1     0.04  -0.07  -0.06    -0.30   0.07   0.03     0.23   0.05   0.07
  23   1    -0.24   0.05   0.01    -0.15   0.06   0.01     0.28   0.06   0.02
  24   1     0.07  -0.00  -0.00    -0.30   0.03  -0.01    -0.10  -0.06  -0.06
  25   1    -0.20  -0.09  -0.03     0.01   0.01  -0.01     0.30   0.02   0.01
  26   1     0.13   0.05   0.07    -0.21  -0.02  -0.03    -0.21  -0.00  -0.02
  27   1    -0.03   0.01  -0.08    -0.07  -0.06  -0.00     0.02  -0.01   0.06
  28   1     0.15   0.09   0.01     0.00  -0.05   0.00    -0.11  -0.07  -0.01
  29   1    -0.09  -0.06  -0.08     0.10   0.02   0.02     0.08   0.05   0.07
                     40                     41                     42
                        a                      a                      a 
 Frequencies --  1272.9222              1286.7167              1289.8581
 Red. masses --     1.4563                 2.3816                 1.9921
 Frc consts  --     0.0000                 0.0000                 0.0000
 IR Inten    --     3.6554                 0.3469                 0.2654
 Raman Activ --     0.0000                 0.0000                 0.0000
 Depolar     --     0.0000                 0.0000                 0.0000
 Atom AN      X      Y      Z        X      Y      Z        X      Y      Z
   1   7    -0.02   0.01   0.00    -0.01   0.01   0.01     0.02  -0.01   0.01
   2   6     0.03   0.01   0.01     0.01   0.03  -0.01    -0.03  -0.01  -0.01
   3   6    -0.00   0.01  -0.06     0.07   0.02  -0.10     0.01  -0.00   0.02
   4   6     0.01   0.06  -0.10     0.04  -0.02   0.01    -0.01  -0.06   0.11
   5   6    -0.01  -0.03   0.05    -0.00  -0.08   0.22     0.01   0.01  -0.00
   6   6    -0.00  -0.01   0.02    -0.03  -0.04   0.03     0.01   0.08  -0.17
   7   6     0.00   0.03  -0.06    -0.04   0.09  -0.17    -0.00   0.06  -0.11
   8   6    -0.00  -0.04   0.07    -0.04   0.05  -0.03    -0.01  -0.05   0.10
   9   6    -0.00  -0.03   0.07     0.00  -0.06   0.06    -0.00  -0.04   0.07
  10   1     0.01  -0.01   0.00    -0.00  -0.02   0.01    -0.01   0.01   0.00
  11   1     0.01   0.02   0.00    -0.00   0.00  -0.00    -0.01  -0.01  -0.01
  12   1    -0.00  -0.00   0.00    -0.00  -0.01   0.00     0.00   0.00  -0.01
  13   1    -0.05  -0.06   0.01    -0.06  -0.06  -0.01     0.04   0.05  -0.01
  14   1     0.01   0.02  -0.00     0.01   0.03  -0.01     0.01   0.01  -0.00
  15   1     0.01  -0.03  -0.01     0.06  -0.07  -0.02     0.02   0.00   0.01
  16   1    -0.00   0.02   0.02    -0.21   0.06   0.02    -0.04   0.00  -0.00
  17   1    -0.30  -0.02  -0.02    -0.40   0.05  -0.01     0.17   0.04   0.02
  18   1     0.29   0.02   0.05     0.24  -0.03   0.00    -0.18  -0.03  -0.05
  19   1     0.37  -0.01   0.01    -0.03   0.12   0.03    -0.37   0.04  -0.00
  20   1    -0.37   0.02  -0.03    -0.01  -0.08  -0.07     0.37  -0.04   0.01
  21   1    -0.23   0.04   0.00     0.48  -0.03   0.01     0.11  -0.11  -0.02
  22   1     0.23  -0.03  -0.01    -0.38   0.02  -0.02    -0.10   0.08   0.06
  23   1     0.30  -0.06  -0.01    -0.14  -0.08  -0.02     0.34  -0.10  -0.02
  24   1    -0.30   0.06   0.02     0.30   0.04   0.07    -0.32   0.08   0.04
  25   1    -0.30   0.08   0.01    -0.09  -0.01  -0.00    -0.34   0.10   0.01
  26   1     0.30  -0.07  -0.03     0.20   0.00   0.01     0.36  -0.08  -0.04
  27   1    -0.00   0.00  -0.01     0.02   0.03  -0.02     0.00   0.01  -0.01
  28   1     0.05   0.03   0.01     0.04   0.05   0.00     0.06   0.04   0.01
  29   1    -0.05  -0.02  -0.03    -0.06  -0.02  -0.03    -0.06  -0.03  -0.03
                     43                     44                     45
                        a                      a                      a 
 Frequencies --  1292.9460              1320.2248              1335.9610
 Red. masses --     3.2650                 3.5664                 3.8753
 Frc consts  --     0.0000                 0.0000                 0.0000
 IR Inten    --     0.8101                17.5410                 2.2149
 Raman Activ --     0.0000                 0.0000                 0.0000
 Depolar     --     0.0000                 0.0000                 0.0000
 Atom AN      X      Y      Z        X      Y      Z        X      Y      Z
   1   7     0.01  -0.05  -0.00     0.06  -0.14   0.12     0.04  -0.03   0.05
   2   6     0.01  -0.05  -0.05    -0.27  -0.25   0.00    -0.18  -0.07   0.03
   3   6    -0.18   0.13   0.02    -0.12   0.10  -0.05     0.26  -0.02  -0.03
   4   6    -0.17  -0.00   0.02     0.04   0.01  -0.01     0.07  -0.07  -0.05
   5   6    -0.10  -0.11   0.00     0.08  -0.02   0.02    -0.15   0.07   0.03
   6   6     0.10   0.09   0.05     0.02  -0.05  -0.01    -0.16   0.06   0.03
   7   6     0.18  -0.02  -0.04    -0.07   0.03   0.01     0.09  -0.08  -0.03
   8   6     0.15  -0.08  -0.04    -0.08   0.03   0.00     0.22  -0.04  -0.01
   9   6    -0.03   0.08   0.05     0.01  -0.03  -0.02    -0.02   0.07   0.04
  10   1     0.00   0.03  -0.01    -0.02   0.13  -0.00    -0.03   0.03   0.00
  11   1     0.01   0.00   0.00     0.05   0.04  -0.10    -0.00  -0.00  -0.04
  12   1    -0.01   0.04  -0.02    -0.01   0.18  -0.12     0.00   0.05  -0.03
  13   1     0.16   0.15   0.00     0.40   0.43  -0.04     0.07   0.11  -0.05
  14   1    -0.09  -0.06  -0.01     0.33   0.33  -0.05     0.22   0.20  -0.02
  15   1     0.33  -0.04   0.02     0.06  -0.02  -0.00    -0.36   0.04  -0.02
  16   1     0.09   0.02   0.02     0.20   0.01   0.04    -0.22   0.05   0.01
  17   1     0.20   0.00   0.01    -0.06  -0.01  -0.00    -0.12   0.00  -0.02
  18   1     0.43  -0.05   0.00     0.04  -0.00  -0.00    -0.12   0.01   0.01
  19   1     0.13  -0.00  -0.00    -0.09   0.03   0.00     0.24  -0.03   0.01
  20   1     0.15  -0.06  -0.03    -0.16   0.01  -0.00     0.21  -0.02  -0.01
  21   1    -0.04   0.01   0.01    -0.04   0.00  -0.01     0.22  -0.02   0.01
  22   1    -0.23   0.04  -0.00    -0.05  -0.00  -0.00     0.23  -0.02   0.00
  23   1    -0.33   0.02  -0.01     0.09  -0.01   0.00    -0.14   0.02  -0.01
  24   1    -0.26   0.04   0.02     0.11  -0.01  -0.00    -0.14   0.01   0.01
  25   1    -0.24   0.01  -0.01     0.11  -0.01   0.00    -0.28   0.02  -0.00
  26   1    -0.18   0.01  -0.00     0.11  -0.00   0.00    -0.28   0.02  -0.00
  27   1    -0.08  -0.06  -0.04     0.04   0.03   0.02    -0.09  -0.07  -0.04
  28   1     0.04  -0.02   0.01    -0.00   0.01  -0.01     0.00  -0.03   0.01
  29   1     0.02  -0.01  -0.03    -0.01   0.00   0.01     0.00  -0.01  -0.04
                     46                     47                     48
                        a                      a                      a 
 Frequencies --  1363.5230              1371.8512              1377.7286
 Red. masses --     4.5325                 3.0236                 4.9735
 Frc consts  --     0.0000                 0.0000                 0.0000
 IR Inten    --     4.3141               202.4207                 7.0464
 Raman Activ --     0.0000                 0.0000                 0.0000
 Depolar     --     0.0000                 0.0000                 0.0000
 Atom AN      X      Y      Z        X      Y      Z        X      Y      Z
   1   7     0.03   0.01   0.00     0.13   0.31  -0.13    -0.02  -0.04   0.03
   2   6    -0.11  -0.00   0.01    -0.09  -0.08  -0.01     0.04   0.00   0.01
   3   6     0.34  -0.02   0.01    -0.08   0.05  -0.02    -0.14  -0.00  -0.01
   4   6    -0.27  -0.01  -0.04     0.06  -0.01  -0.00     0.32  -0.05   0.00
   5   6    -0.08  -0.04  -0.02    -0.05   0.01   0.01    -0.39   0.07   0.00
   6   6     0.18   0.01   0.02     0.02  -0.00   0.00     0.21   0.01   0.02
   7   6     0.08   0.04   0.02     0.00   0.00   0.00     0.06   0.02   0.01
   8   6    -0.25   0.01  -0.01    -0.01   0.00  -0.00    -0.15   0.00  -0.01
   9   6     0.02  -0.06  -0.03     0.00  -0.00  -0.00     0.01  -0.03  -0.02
  10   1    -0.04  -0.02   0.00    -0.17  -0.43   0.05     0.04   0.07  -0.01
  11   1    -0.03  -0.03   0.01    -0.32  -0.32   0.20     0.04   0.05  -0.05
  12   1    -0.00  -0.00   0.02     0.08  -0.45   0.28     0.00   0.04  -0.06
  13   1    -0.01   0.02  -0.02     0.14   0.14   0.04    -0.01  -0.01  -0.02
  14   1     0.10   0.07  -0.00     0.15   0.08  -0.01    -0.04  -0.00  -0.00
  15   1    -0.36   0.05  -0.01     0.05  -0.03  -0.00     0.11  -0.00  -0.00
  16   1    -0.30   0.06  -0.00     0.09  -0.01  -0.01     0.09  -0.02   0.01
  17   1     0.27  -0.00  -0.01    -0.06  -0.01  -0.00    -0.29   0.01  -0.01
  18   1     0.27  -0.01   0.04    -0.02  -0.00  -0.02    -0.31   0.01  -0.02
  19   1     0.12  -0.01  -0.01     0.05  -0.00   0.00     0.36  -0.07   0.01
  20   1     0.10  -0.02   0.00     0.03  -0.01  -0.00     0.38  -0.05  -0.02
  21   1    -0.22   0.01   0.00    -0.02  -0.00   0.00    -0.19   0.00   0.01
  22   1    -0.22   0.02  -0.01    -0.02   0.00  -0.00    -0.18   0.02  -0.02
  23   1    -0.08   0.01   0.01    -0.00   0.00   0.00    -0.08   0.00   0.01
  24   1    -0.08   0.01  -0.01    -0.00   0.00  -0.00    -0.08   0.01  -0.01
  25   1     0.26  -0.02  -0.00     0.01  -0.00  -0.00     0.16  -0.01  -0.00
  26   1     0.26  -0.02   0.01     0.01  -0.00  -0.00     0.16  -0.02   0.01
  27   1     0.07   0.06   0.03     0.00   0.00   0.00     0.05   0.04   0.02
  28   1     0.02   0.04  -0.01     0.00   0.00  -0.00     0.02   0.02  -0.01
  29   1     0.01   0.01   0.04     0.00   0.00   0.00     0.01   0.01   0.03
                     49                     50                     51
                        a                      a                      a 
 Frequencies --  1384.0781              1422.5730              1427.9227
 Red. masses --     5.3354                 1.6481                 1.6301
 Frc consts  --     0.0000                 0.0000                 0.0000
 IR Inten    --     0.3425                79.3054                82.4450
 Raman Activ --     0.0000                 0.0000                 0.0000
 Depolar     --     0.0000                 0.0000                 0.0000
 Atom AN      X      Y      Z        X      Y      Z        X      Y      Z
   1   7    -0.00   0.00   0.00    -0.11   0.09   0.17    -0.16   0.02  -0.12
   2   6     0.01  -0.00  -0.00    -0.01   0.02   0.02    -0.07  -0.02  -0.03
   3   6    -0.06   0.00  -0.00     0.01  -0.01  -0.01     0.02  -0.01  -0.00
   4   6     0.03   0.00   0.01    -0.02   0.00  -0.01     0.00   0.02   0.01
   5   6     0.12   0.00   0.01     0.01  -0.01   0.00    -0.01   0.01  -0.00
   6   6    -0.32   0.05   0.00    -0.00  -0.00  -0.00     0.00   0.00   0.00
   7   6     0.41  -0.05  -0.00    -0.00   0.00   0.00     0.00   0.00  -0.00
   8   6    -0.31  -0.00  -0.02     0.00   0.00  -0.00    -0.00  -0.00   0.00
   9   6     0.04  -0.04  -0.02    -0.00   0.00   0.00    -0.00  -0.00  -0.00
  10   1     0.01   0.00  -0.00     0.45   0.19   0.01     0.53  -0.38   0.06
  11   1    -0.00  -0.00   0.00    -0.31  -0.21  -0.13     0.22   0.05   0.62
  12   1     0.00  -0.00  -0.01     0.31  -0.36  -0.57    -0.05   0.21  -0.15
  13   1     0.01   0.00   0.00     0.01   0.02  -0.01     0.04   0.05   0.01
  14   1    -0.01  -0.01  -0.00    -0.01  -0.03   0.01     0.05   0.03  -0.01
  15   1     0.07  -0.01   0.00    -0.01   0.03  -0.00     0.00   0.04  -0.00
  16   1     0.06  -0.01  -0.00    -0.01   0.01   0.03    -0.02   0.02   0.03
  17   1    -0.05  -0.00   0.00     0.02  -0.00  -0.00    -0.01  -0.05   0.01
  18   1    -0.05   0.00  -0.01     0.03   0.00   0.01    -0.02  -0.02  -0.04
  19   1    -0.09   0.01   0.00    -0.01   0.00  -0.00     0.00  -0.00   0.00
  20   1    -0.09   0.02  -0.00    -0.01  -0.00  -0.00     0.02   0.00   0.01
  21   1     0.28  -0.02   0.01    -0.00  -0.00  -0.00    -0.00  -0.00   0.00
  22   1     0.28  -0.02   0.01    -0.00   0.00   0.00    -0.00  -0.00  -0.00
  23   1    -0.37   0.06  -0.00     0.00   0.00   0.00    -0.00  -0.00   0.00
  24   1    -0.37   0.05   0.01     0.00  -0.00  -0.00    -0.00   0.00   0.00
  25   1     0.26  -0.01  -0.01    -0.00  -0.00  -0.00     0.00   0.00   0.00
  26   1     0.25  -0.02   0.02    -0.00   0.00   0.00     0.00  -0.00  -0.00
  27   1     0.05   0.03   0.02    -0.00  -0.00   0.00     0.00   0.00  -0.00
  28   1     0.01   0.04  -0.01     0.00   0.00   0.00    -0.00   0.00  -0.00
  29   1     0.00   0.02   0.04    -0.00  -0.00  -0.00     0.00   0.00   0.00
                     52                     53                     54
                        a                      a                      a 
 Frequencies --  1435.6991              1476.9428              1489.1433
 Red. masses --     3.2276                 1.8568                 1.9117
 Frc consts  --     0.0000                 0.0000                 0.0000
 IR Inten    --     1.4292                18.6385                 7.9492
 Raman Activ --     0.0000                 0.0000                 0.0000
 Depolar     --     0.0000                 0.0000                 0.0000
 Atom AN      X      Y      Z        X      Y      Z        X      Y      Z
   1   7     0.00   0.00   0.00     0.01   0.00   0.01     0.02   0.01  -0.00
   2   6     0.00  -0.00   0.00     0.15  -0.11   0.20     0.02  -0.04   0.01
   3   6    -0.00  -0.00  -0.00     0.00   0.02   0.02    -0.03  -0.24  -0.14
   4   6    -0.00   0.00   0.00    -0.01   0.01   0.00    -0.03   0.01   0.00
   5   6     0.01  -0.00   0.00     0.01  -0.01  -0.01     0.02   0.03   0.02
   6   6    -0.02   0.01   0.00    -0.00   0.00   0.00     0.00  -0.01  -0.01
   7   6    -0.01  -0.02  -0.01    -0.00   0.00  -0.00     0.00  -0.00  -0.00
   8   6     0.09  -0.01   0.00     0.00  -0.00   0.00    -0.00  -0.00  -0.00
   9   6    -0.40  -0.16  -0.10     0.00   0.00  -0.00     0.00   0.00  -0.00
  10   1    -0.00   0.00  -0.00     0.00  -0.05   0.01    -0.06  -0.01  -0.00
  11   1    -0.00  -0.00  -0.00    -0.02  -0.04   0.04    -0.01  -0.01  -0.02
  12   1     0.00  -0.00   0.00     0.01  -0.03   0.01    -0.01  -0.01   0.04
  13   1     0.00   0.00  -0.00    -0.07   0.05  -0.67    -0.02  -0.01  -0.08
  14   1    -0.00   0.00  -0.00    -0.46   0.48  -0.08    -0.06   0.07  -0.02
  15   1     0.00   0.00  -0.00    -0.03  -0.09   0.01     0.12   0.65  -0.09
  16   1     0.00   0.00   0.00     0.01  -0.04  -0.08     0.01   0.24   0.61
  17   1    -0.00  -0.00   0.00     0.03  -0.02   0.00     0.01  -0.03   0.00
  18   1    -0.00  -0.00  -0.00     0.00  -0.00  -0.01     0.01  -0.01  -0.02
  19   1    -0.01   0.00  -0.00    -0.00   0.02  -0.00    -0.02  -0.07   0.01
  20   1    -0.01   0.00   0.00    -0.01   0.01   0.02    -0.01  -0.03  -0.07
  21   1     0.03  -0.00   0.00    -0.00  -0.00   0.00     0.00   0.02  -0.00
  22   1     0.03  -0.00   0.00     0.00  -0.00  -0.00     0.00   0.01   0.02
  23   1    -0.00  -0.01  -0.00     0.00   0.00  -0.00    -0.00   0.00  -0.00
  24   1    -0.00  -0.01  -0.01     0.00   0.00   0.00    -0.00   0.00   0.00
  25   1    -0.08   0.05  -0.00    -0.00   0.00  -0.00     0.00  -0.00  -0.00
  26   1    -0.08   0.03   0.03    -0.00  -0.00  -0.00     0.00   0.00   0.00
  27   1     0.31   0.35   0.20    -0.00  -0.00  -0.00    -0.00  -0.00   0.00
  28   1     0.48   0.15  -0.06    -0.00   0.00   0.00     0.00   0.00  -0.00
  29   1     0.47   0.02   0.20    -0.00   0.00   0.00    -0.00   0.00   0.00
                     55                     56                     57
                        a                      a                      a 
 Frequencies --  1508.3101              1510.7853              1512.1972
 Red. masses --     1.5250                 1.6571                 1.7789
 Frc consts  --     0.0000                 0.0000                 0.0000
 IR Inten    --     4.3413                 1.8508                 0.1471
 Raman Activ --     0.0000                 0.0000                 0.0000
 Depolar     --     0.0000                 0.0000                 0.0000
 Atom AN      X      Y      Z        X      Y      Z        X      Y      Z
   1   7    -0.00   0.00  -0.00     0.00  -0.00   0.00     0.01  -0.00   0.01
   2   6     0.00   0.00  -0.00    -0.00   0.00  -0.00    -0.01   0.00  -0.00
   3   6    -0.00   0.00   0.00     0.01   0.01   0.01     0.03   0.01   0.01
   4   6     0.00   0.00   0.00     0.01   0.10   0.05     0.01   0.19   0.10
   5   6    -0.00  -0.00  -0.00    -0.02  -0.03  -0.01    -0.03  -0.08  -0.04
   6   6     0.00   0.00   0.00    -0.01  -0.07  -0.04    -0.01  -0.04  -0.02
   7   6    -0.00  -0.01   0.00     0.01   0.07   0.04     0.01   0.02   0.01
   8   6    -0.00   0.02  -0.04     0.05   0.03   0.02    -0.03  -0.02  -0.01
   9   6     0.01   0.10  -0.18     0.06  -0.13  -0.08    -0.04   0.08   0.05
  10   1     0.00  -0.00   0.00    -0.01   0.01  -0.00    -0.03   0.03  -0.00
  11   1     0.00   0.00   0.00    -0.00   0.00  -0.02    -0.01   0.00  -0.04
  12   1    -0.00   0.00   0.00     0.00  -0.00   0.00     0.00  -0.01   0.00
  13   1    -0.00  -0.00   0.00    -0.00  -0.00   0.01    -0.00  -0.01   0.01
  14   1    -0.00  -0.00   0.00     0.00  -0.01   0.00     0.00  -0.02   0.00
  15   1    -0.00  -0.00   0.00    -0.01  -0.01   0.00    -0.02   0.01   0.00
  16   1    -0.00  -0.00  -0.00    -0.01   0.00  -0.01    -0.02   0.01   0.00
  17   1     0.00  -0.00   0.00    -0.02  -0.27   0.04    -0.05  -0.52   0.08
  18   1    -0.00  -0.00  -0.00     0.01  -0.11  -0.24     0.01  -0.22  -0.46
  19   1     0.00   0.00  -0.00     0.02   0.07  -0.01     0.05   0.22  -0.04
  20   1     0.00   0.00   0.00     0.01   0.03   0.07     0.02   0.09   0.20
  21   1     0.00  -0.00   0.00     0.02   0.19  -0.03     0.01   0.10  -0.02
  22   1    -0.00  -0.00  -0.01     0.00   0.08   0.18     0.01   0.04   0.09
  23   1    -0.02   0.01  -0.00    -0.03  -0.17   0.03    -0.01  -0.08   0.01
  24   1     0.02   0.00   0.01    -0.01  -0.07  -0.16    -0.01  -0.04  -0.07
  25   1    -0.02  -0.01  -0.01    -0.05  -0.15   0.02     0.03   0.10  -0.01
  26   1     0.02   0.02   0.02    -0.04  -0.07  -0.14     0.02   0.05   0.09
  27   1    -0.02  -0.31   0.64    -0.16  -0.19  -0.07     0.09   0.11   0.04
  28   1     0.42  -0.24   0.01    -0.02   0.50  -0.08     0.01  -0.31   0.05
  29   1    -0.42   0.13   0.10    -0.09   0.24   0.46     0.05  -0.15  -0.28
                     58                     59                     60
                        a                      a                      a 
 Frequencies --  1514.2694              1519.2785              1520.4412
 Red. masses --     1.9505                 1.8937                 1.8927
 Frc consts  --     0.0000                 0.0000                 0.0000
 IR Inten    --     0.7791                 0.8195                 0.9799
 Raman Activ --     0.0000                 0.0000                 0.0000
 Depolar     --     0.0000                 0.0000                 0.0000
 Atom AN      X      Y      Z        X      Y      Z        X      Y      Z
   1   7     0.00  -0.00   0.00     0.00  -0.00   0.00    -0.00  -0.00   0.00
   2   6    -0.00   0.00   0.00    -0.00   0.00  -0.00     0.00   0.00   0.00
   3   6     0.02   0.03   0.02     0.01   0.00   0.00     0.01   0.01   0.01
   4   6    -0.02   0.09   0.05    -0.01   0.10   0.05    -0.01   0.02   0.01
   5   6     0.02   0.18   0.10     0.02   0.03   0.02     0.03   0.13   0.07
   6   6     0.02  -0.09  -0.04     0.03   0.18   0.09    -0.00   0.05   0.02
   7   6    -0.01  -0.11  -0.06    -0.04  -0.09  -0.05     0.01   0.17   0.09
   8   6    -0.01   0.05   0.03     0.01  -0.08  -0.04     0.00  -0.11  -0.05
   9   6    -0.01   0.01   0.01     0.03  -0.05  -0.02     0.01   0.01   0.00
  10   1    -0.00   0.01  -0.00    -0.01   0.01  -0.00     0.00  -0.00   0.00
  11   1    -0.00  -0.00  -0.01    -0.00   0.00  -0.02    -0.00  -0.00   0.00
  12   1     0.00  -0.00  -0.00     0.00  -0.00   0.00     0.00  -0.00  -0.00
  13   1    -0.00  -0.00  -0.00    -0.00  -0.00   0.01    -0.00   0.00  -0.00
  14   1    -0.00  -0.00   0.00     0.00  -0.01   0.00    -0.00   0.00  -0.00
  15   1    -0.02  -0.07   0.01    -0.01   0.00   0.00    -0.01  -0.04   0.00
  16   1    -0.01  -0.03  -0.07    -0.01   0.00  -0.00    -0.00  -0.01  -0.04
  17   1     0.00  -0.20   0.04    -0.02  -0.25   0.04     0.01  -0.03   0.01
  18   1     0.02  -0.08  -0.18     0.01  -0.11  -0.23     0.01  -0.01  -0.03
  19   1    -0.07  -0.49   0.08    -0.02  -0.05   0.01    -0.06  -0.35   0.06
  20   1    -0.03  -0.21  -0.46    -0.02  -0.02  -0.05    -0.03  -0.15  -0.33
  21   1     0.01   0.23  -0.04    -0.05  -0.49   0.09     0.00  -0.08   0.02
  22   1    -0.01   0.10   0.21    -0.01  -0.22  -0.45     0.01  -0.03  -0.08
  23   1     0.03   0.27  -0.05     0.05   0.25  -0.04    -0.05  -0.47   0.08
  24   1     0.01   0.12   0.25     0.03   0.11   0.23    -0.02  -0.20  -0.43
  25   1    -0.01  -0.13   0.02     0.01   0.17  -0.03     0.02   0.29  -0.05
  26   1     0.00  -0.06  -0.12    -0.00   0.07   0.16     0.00   0.13   0.27
  27   1     0.02   0.03   0.01    -0.06  -0.07  -0.04    -0.01  -0.01  -0.00
  28   1     0.01  -0.05   0.01    -0.02   0.18  -0.03    -0.01  -0.02   0.00
  29   1     0.02  -0.03  -0.05    -0.03   0.09   0.16    -0.01  -0.01  -0.02
                     61                     62                     63
                        a                      a                      a 
 Frequencies --  1524.9007              2917.3281              2923.4139
 Red. masses --     2.0206                 1.8968                 1.8869
 Frc consts  --     0.0000                 0.0000                 0.0000
 IR Inten    --     0.2783                13.1350                 2.1136
 Raman Activ --     0.0000                 0.0000                 0.0000
 Depolar     --     0.0000                 0.0000                 0.0000
 Atom AN      X      Y      Z        X      Y      Z        X      Y      Z
   1   7     0.00  -0.00   0.00     0.00   0.00   0.00     0.00  -0.00   0.00
   2   6    -0.00   0.00  -0.00     0.00  -0.00  -0.00     0.00  -0.00  -0.00
   3   6     0.00   0.00   0.00     0.00   0.00  -0.00     0.00   0.01  -0.02
   4   6    -0.01   0.03   0.01    -0.00  -0.00   0.01    -0.01  -0.05   0.08
   5   6     0.02   0.03   0.02     0.00   0.01  -0.02     0.01   0.06  -0.12
   6   6    -0.01   0.12   0.06    -0.00  -0.02   0.04    -0.01  -0.09   0.17
   7   6     0.03   0.09   0.05     0.01   0.06  -0.11     0.00   0.03  -0.06
   8   6     0.02   0.21   0.11    -0.01  -0.11   0.22     0.00   0.04  -0.08
   9   6    -0.04   0.03   0.02     0.00   0.01  -0.01    -0.00  -0.00   0.01
  10   1    -0.00   0.00  -0.00     0.00   0.00  -0.00     0.00   0.00  -0.00
  11   1    -0.00   0.00  -0.01     0.00  -0.00   0.00    -0.00   0.00   0.00
  12   1     0.00  -0.00  -0.00    -0.00  -0.00   0.00    -0.00  -0.00   0.00
  13   1    -0.00  -0.00   0.00    -0.00   0.00   0.00    -0.00   0.00   0.00
  14   1    -0.00  -0.00   0.00    -0.00   0.00   0.01    -0.00  -0.00   0.00
  15   1    -0.00   0.00   0.00    -0.00   0.00   0.01    -0.00   0.01   0.05
  16   1    -0.00   0.00   0.00    -0.00  -0.01   0.00    -0.01  -0.06   0.02
  17   1    -0.00  -0.07   0.01    -0.00  -0.00  -0.02    -0.00  -0.04  -0.20
  18   1     0.00  -0.03  -0.07     0.00   0.02  -0.01     0.03   0.25  -0.11
  19   1    -0.02  -0.07   0.01     0.00   0.01   0.05     0.00   0.07   0.34
  20   1    -0.01  -0.03  -0.06    -0.00  -0.04   0.02    -0.04  -0.30   0.13
  21   1    -0.02  -0.30   0.05    -0.00  -0.02  -0.10    -0.00  -0.09  -0.45
  22   1     0.00  -0.13  -0.28     0.01   0.10  -0.04     0.04   0.44  -0.20
  23   1    -0.04  -0.21   0.04     0.01   0.06   0.31     0.01   0.03   0.15
  24   1    -0.02  -0.09  -0.19    -0.03  -0.28   0.12    -0.02  -0.14   0.06
  25   1    -0.04  -0.52   0.10    -0.01  -0.12  -0.57     0.01   0.04   0.19
  26   1    -0.01  -0.23  -0.48     0.06   0.54  -0.25    -0.02  -0.19   0.09
  27   1     0.05   0.06   0.03     0.00   0.00  -0.00     0.00  -0.00   0.00
  28   1     0.03  -0.12   0.02     0.00   0.01   0.05    -0.00  -0.00  -0.02
  29   1     0.04  -0.06  -0.11    -0.01  -0.04   0.02     0.00   0.02  -0.01
                     64                     65                     66
                        a                      a                      a 
 Frequencies --  2926.6537              2935.8924              2945.2403
 Red. masses --     1.9218                 1.9909                 2.0112
 Frc consts  --     0.0000                 0.0000                 0.0000
 IR Inten    --    13.6551                 7.0754               123.7958
 Raman Activ --     0.0000                 0.0000                 0.0000
 Depolar     --     0.0000                 0.0000                 0.0000
 Atom AN      X      Y      Z        X      Y      Z        X      Y      Z
   1   7    -0.00   0.00   0.00    -0.00   0.00   0.00    -0.00   0.00  -0.00
   2   6     0.00  -0.00  -0.00     0.00  -0.00  -0.00     0.00  -0.00  -0.01
   3   6    -0.01  -0.03   0.04    -0.01  -0.02   0.04    -0.01  -0.06   0.09
   4   6     0.02   0.13  -0.18     0.01   0.06  -0.08     0.00   0.04  -0.04
   5   6    -0.00  -0.03   0.07     0.01   0.07  -0.14     0.01   0.07  -0.16
   6   6    -0.01  -0.07   0.11    -0.00  -0.03   0.05     0.01   0.08  -0.13
   7   6     0.00   0.04  -0.07    -0.01  -0.09   0.18     0.01   0.06  -0.12
   8   6     0.00   0.02  -0.05    -0.00  -0.04   0.08     0.00   0.02  -0.05
   9   6    -0.00  -0.00   0.00     0.00   0.01  -0.01    -0.00  -0.00   0.01
  10   1    -0.00   0.00  -0.00    -0.00   0.00  -0.00     0.00   0.00  -0.00
  11   1     0.00  -0.01  -0.00     0.00  -0.01  -0.00     0.00  -0.00  -0.00
  12   1     0.00   0.00   0.00     0.00  -0.00   0.00     0.00   0.00   0.00
  13   1    -0.00   0.00   0.00    -0.01   0.01   0.00    -0.01   0.01  -0.00
  14   1     0.00   0.00   0.01     0.00   0.00   0.02    -0.00   0.01   0.05
  15   1     0.00  -0.02  -0.12     0.00  -0.02  -0.11     0.00  -0.04  -0.24
  16   1     0.02   0.13  -0.05     0.02   0.11  -0.04     0.04   0.24  -0.10
  17   1    -0.00   0.09   0.42    -0.00   0.03   0.16    -0.00   0.02   0.08
  18   1    -0.06  -0.55   0.25    -0.03  -0.26   0.12    -0.02  -0.15   0.07
  19   1    -0.00  -0.03  -0.18     0.01   0.07   0.37     0.00   0.07   0.43
  20   1     0.02   0.16  -0.07    -0.04  -0.30   0.13    -0.04  -0.32   0.14
  21   1    -0.00  -0.05  -0.27    -0.00  -0.02  -0.10     0.00   0.06   0.30
  22   1     0.03   0.29  -0.13     0.01   0.12  -0.06    -0.03  -0.33   0.15
  23   1     0.00   0.04   0.19    -0.01  -0.09  -0.46     0.01   0.06   0.30
  24   1    -0.02  -0.17   0.08     0.04   0.40  -0.18    -0.03  -0.27   0.12
  25   1     0.00   0.02   0.11    -0.01  -0.04  -0.19     0.00   0.02   0.13
  26   1    -0.01  -0.10   0.05     0.02   0.18  -0.09    -0.01  -0.09   0.04
  27   1    -0.00  -0.00   0.00    -0.00   0.00  -0.00     0.00  -0.00   0.00
  28   1    -0.00  -0.00  -0.01     0.00   0.01   0.03    -0.00  -0.01  -0.03
  29   1     0.00   0.01  -0.01    -0.00  -0.03   0.01     0.00   0.02  -0.01
                     67                     68                     69
                        a                      a                      a 
 Frequencies --  2950.8965              2952.9358              2957.5797
 Red. masses --     1.4842                 1.9685                 1.4727
 Frc consts  --     0.0000                 0.0000                 0.0000
 IR Inten    --    11.0893                61.8749                 0.3161
 Raman Activ --     0.0000                 0.0000                 0.0000
 Depolar     --     0.0000                 0.0000                 0.0000
 Atom AN      X      Y      Z        X      Y      Z        X      Y      Z
   1   7    -0.00  -0.00   0.00    -0.00  -0.00   0.00     0.00  -0.00  -0.00
   2   6     0.00  -0.00   0.00    -0.00   0.01   0.03    -0.00   0.01   0.01
   3   6     0.00   0.01  -0.01     0.03   0.14  -0.22     0.00   0.02  -0.01
   4   6     0.00   0.00  -0.00     0.01   0.08  -0.07    -0.00  -0.04  -0.06
   5   6    -0.00  -0.02  -0.01     0.00   0.02  -0.07    -0.00  -0.00  -0.01
   6   6     0.00   0.04   0.03     0.00   0.01  -0.04     0.01   0.13   0.08
   7   6     0.01   0.04   0.02     0.00   0.02  -0.02    -0.01  -0.10  -0.05
   8   6    -0.02  -0.17  -0.09     0.00   0.01  -0.01     0.00   0.00   0.00
   9   6    -0.01   0.02   0.01     0.00  -0.00   0.00    -0.00   0.01   0.00
  10   1    -0.00  -0.00   0.00    -0.00  -0.00   0.00     0.00   0.00   0.00
  11   1     0.00  -0.00  -0.00     0.00  -0.01  -0.00    -0.00   0.00   0.00
  12   1     0.00  -0.00   0.00    -0.00  -0.00   0.00     0.00   0.00  -0.00
  13   1    -0.00   0.00   0.00     0.00   0.00   0.00     0.02  -0.01  -0.00
  14   1     0.00  -0.00  -0.01     0.01  -0.03  -0.15     0.00  -0.00  -0.02
  15   1    -0.00   0.00   0.02    -0.01   0.08   0.55     0.00   0.00  -0.02
  16   1    -0.00  -0.03   0.01    -0.09  -0.57   0.23    -0.01  -0.08   0.04
  17   1    -0.00   0.00  -0.00     0.00   0.03   0.10    -0.00   0.03   0.28
  18   1    -0.00  -0.01   0.00    -0.03  -0.29   0.14     0.01   0.13  -0.08
  19   1     0.00   0.01   0.06     0.00   0.03   0.20    -0.00   0.01   0.06
  20   1     0.01   0.07  -0.04    -0.01  -0.11   0.05     0.00   0.02  -0.01
  21   1     0.00  -0.02  -0.17     0.00   0.02   0.13    -0.00  -0.06  -0.54
  22   1    -0.01  -0.12   0.07    -0.01  -0.07   0.03    -0.05  -0.44   0.25
  23   1    -0.00  -0.02  -0.18     0.00   0.01   0.05     0.00   0.04   0.37
  24   1    -0.02  -0.16   0.09    -0.01  -0.06   0.03     0.04   0.34  -0.19
  25   1     0.01   0.07   0.65    -0.00   0.00   0.00     0.00  -0.00  -0.03
  26   1     0.06   0.55  -0.31    -0.00  -0.04   0.02    -0.00  -0.02   0.01
  27   1     0.04  -0.03  -0.01    -0.00   0.00   0.00     0.01  -0.01  -0.00
  28   1    -0.00  -0.00  -0.05     0.00  -0.00  -0.01    -0.00  -0.00  -0.01
  29   1    -0.01  -0.04   0.02     0.00   0.01  -0.00    -0.00  -0.01   0.01
                     70                     71                     72
                        a                      a                      a 
 Frequencies --  2960.0592              2961.6098              2963.6748
 Red. masses --     1.7165                 1.6796                 1.5242
 Frc consts  --     0.0000                 0.0000                 0.0000
 IR Inten    --     3.9883                 4.5473                 2.1926
 Raman Activ --     0.0000                 0.0000                 0.0000
 Depolar     --     0.0000                 0.0000                 0.0000
 Atom AN      X      Y      Z        X      Y      Z        X      Y      Z
   1   7     0.00  -0.00  -0.00     0.00   0.00  -0.00     0.00  -0.00  -0.00
   2   6    -0.11   0.12   0.12    -0.11   0.11   0.11    -0.01   0.01   0.01
   3   6    -0.01  -0.03  -0.01    -0.01  -0.05   0.00     0.01   0.05   0.02
   4   6    -0.00  -0.06  -0.07     0.00   0.05   0.07    -0.01  -0.09  -0.09
   5   6     0.01   0.10   0.03    -0.01  -0.10  -0.03    -0.01  -0.06  -0.04
   6   6    -0.00  -0.03  -0.02     0.00   0.03   0.03     0.00   0.03   0.01
   7   6    -0.00  -0.01  -0.01     0.00   0.02   0.01     0.01   0.12   0.06
   8   6    -0.00  -0.02  -0.01     0.00   0.02   0.01     0.00   0.05   0.02
   9   6    -0.00   0.00   0.00     0.00  -0.00  -0.00     0.01  -0.02  -0.01
  10   1    -0.00   0.00   0.01     0.00   0.00   0.01     0.00   0.00  -0.00
  11   1    -0.01   0.01   0.00    -0.01   0.01   0.00    -0.00   0.01   0.00
  12   1     0.00  -0.00  -0.00    -0.00  -0.00  -0.00     0.00   0.00   0.00
  13   1     0.40  -0.39  -0.08     0.38  -0.37  -0.08     0.03  -0.03  -0.01
  14   1     0.00  -0.05  -0.35    -0.00  -0.04  -0.32     0.00  -0.00  -0.01
  15   1    -0.00   0.01   0.09    -0.00   0.00   0.11     0.00  -0.01  -0.17
  16   1     0.02   0.09  -0.05     0.03   0.21  -0.10    -0.03  -0.16   0.08
  17   1    -0.00   0.04   0.35     0.00  -0.04  -0.35    -0.01   0.05   0.47
  18   1     0.02   0.19  -0.11    -0.02  -0.18   0.10     0.03   0.28  -0.16
  19   1    -0.00  -0.03  -0.30     0.00   0.03   0.31     0.00   0.02   0.23
  20   1    -0.04  -0.35   0.19     0.04   0.34  -0.18     0.02   0.20  -0.11
  21   1    -0.00   0.02   0.14     0.00  -0.02  -0.16    -0.00  -0.01  -0.09
  22   1     0.01   0.10  -0.06    -0.01  -0.10   0.06    -0.01  -0.08   0.04
  23   1     0.00   0.01   0.04    -0.00  -0.01  -0.06    -0.00  -0.05  -0.43
  24   1     0.00   0.02  -0.01    -0.00  -0.04   0.03    -0.04  -0.38   0.21
  25   1     0.00   0.01   0.08    -0.00  -0.01  -0.09    -0.00  -0.02  -0.16
  26   1     0.01   0.07  -0.04    -0.01  -0.07   0.04    -0.02  -0.14   0.08
  27   1     0.01  -0.01  -0.00    -0.01   0.01   0.00    -0.04   0.03   0.01
  28   1    -0.00  -0.00  -0.01     0.00   0.00   0.01     0.00   0.00   0.04
  29   1    -0.00  -0.01   0.00     0.00   0.01  -0.00     0.01   0.04  -0.02
                     73                     74                     75
                        a                      a                      a 
 Frequencies --  2972.4013              2980.5413              2988.8724
 Red. masses --     1.5486                 1.5578                 1.5714
 Frc consts  --     0.0000                 0.0000                 0.0000
 IR Inten    --    78.0307                88.7280                 9.3798
 Raman Activ --     0.0000                 0.0000                 0.0000
 Depolar     --     0.0000                 0.0000                 0.0000
 Atom AN      X      Y      Z        X      Y      Z        X      Y      Z
   1   7    -0.00   0.00   0.00    -0.00   0.00   0.00     0.00   0.00   0.00
   2   6     0.03  -0.03  -0.02    -0.05   0.05   0.00    -0.08   0.05  -0.20
   3   6    -0.01  -0.09  -0.06     0.02   0.14   0.10    -0.00  -0.01  -0.06
   4   6     0.00   0.03   0.02     0.00   0.07   0.06     0.00  -0.00  -0.01
   5   6     0.01   0.10   0.04     0.01   0.07   0.04    -0.00  -0.00  -0.01
   6   6     0.01   0.09   0.05     0.00   0.04   0.02    -0.00  -0.00  -0.00
   7   6     0.01   0.09   0.04     0.00   0.03   0.02    -0.00  -0.00  -0.00
   8   6     0.00   0.04   0.02     0.00   0.01   0.01    -0.00  -0.00  -0.00
   9   6     0.01  -0.02  -0.01     0.01  -0.01  -0.01    -0.00   0.00   0.00
  10   1    -0.00  -0.00   0.00     0.00   0.00  -0.01     0.00  -0.00  -0.02
  11   1     0.00  -0.01  -0.00    -0.00  -0.00   0.00    -0.01   0.01   0.00
  12   1    -0.00  -0.00  -0.00     0.00   0.00   0.00    -0.00   0.00  -0.00
  13   1    -0.11   0.10   0.02     0.18  -0.18  -0.04     0.33  -0.33  -0.10
  14   1     0.00   0.00   0.03    -0.01   0.01   0.04    -0.05   0.15   0.80
  15   1    -0.01   0.03   0.36     0.01  -0.05  -0.56    -0.00   0.02   0.21
  16   1     0.05   0.28  -0.14    -0.07  -0.43   0.21     0.00   0.01  -0.01
  17   1     0.00  -0.01  -0.13     0.00  -0.03  -0.30    -0.00   0.01   0.05
  18   1    -0.01  -0.10   0.06    -0.02  -0.19   0.11     0.00  -0.00  -0.00
  19   1     0.00  -0.03  -0.31    -0.00  -0.02  -0.25     0.00   0.00   0.03
  20   1    -0.04  -0.30   0.16    -0.03  -0.21   0.11     0.00   0.01  -0.01
  21   1    -0.00  -0.04  -0.33     0.00  -0.02  -0.15    -0.00   0.00   0.01
  22   1    -0.03  -0.28   0.16    -0.01  -0.12   0.07     0.00   0.00  -0.00
  23   1    -0.00  -0.03  -0.30    -0.00  -0.01  -0.10     0.00   0.00   0.01
  24   1    -0.03  -0.27   0.15    -0.01  -0.09   0.05     0.00   0.00  -0.00
  25   1    -0.00  -0.01  -0.13    -0.00  -0.00  -0.04     0.00   0.00   0.00
  26   1    -0.01  -0.11   0.06    -0.00  -0.03   0.02     0.00   0.00  -0.00
  27   1    -0.04   0.03   0.01    -0.02   0.02   0.01     0.01  -0.00  -0.00
  28   1     0.00   0.00   0.04     0.00   0.00   0.02    -0.00  -0.00  -0.00
  29   1     0.01   0.04  -0.02     0.00   0.02  -0.01    -0.00  -0.00   0.00
                     76                     77                     78
                        a                      a                      a 
 Frequencies --  3003.2741              3006.0830              3020.3078
 Red. masses --     1.9061                 1.9418                 1.2941
 Frc consts  --     0.0000                 0.0000                 0.0000
 IR Inten    --    48.2353                49.5714                32.8766
 Raman Activ --     0.0000                 0.0000                 0.0000
 Depolar     --     0.0000                 0.0000                 0.0000
 Atom AN      X      Y      Z        X      Y      Z        X      Y      Z
   1   7     0.00  -0.00  -0.00    -0.00  -0.00  -0.00    -0.00   0.00   0.00
   2   6    -0.00   0.00   0.00    -0.00   0.00   0.00    -0.00   0.00   0.00
   3   6     0.00   0.00   0.00     0.00   0.00   0.00     0.00   0.00   0.00
   4   6     0.00   0.00   0.00    -0.00  -0.00   0.00    -0.00   0.00   0.00
   5   6     0.00   0.00   0.00    -0.00  -0.00   0.00     0.00   0.00   0.00
   6   6     0.00   0.01   0.00    -0.00  -0.00   0.00     0.00   0.00   0.00
   7   6     0.00   0.01   0.01    -0.00  -0.00   0.01     0.00   0.01   0.00
   8   6    -0.00   0.03   0.01    -0.00  -0.01   0.03     0.00   0.01   0.01
   9   6    -0.16   0.21   0.09    -0.02  -0.13   0.26     0.10   0.11   0.06
  10   1     0.00   0.00   0.00     0.00   0.00   0.00    -0.00  -0.00  -0.00
  11   1    -0.00   0.00   0.00    -0.00   0.00  -0.00     0.00  -0.00  -0.00
  12   1    -0.00  -0.00  -0.00     0.00   0.00   0.00     0.00   0.00   0.00
  13   1     0.00  -0.00   0.00     0.00  -0.00  -0.00     0.00  -0.00  -0.00
  14   1     0.00  -0.00  -0.01     0.00  -0.00  -0.00    -0.00   0.00   0.00
  15   1     0.00  -0.00  -0.01     0.00  -0.00  -0.00     0.00  -0.00  -0.00
  16   1    -0.00  -0.00   0.00    -0.00  -0.00   0.00    -0.00  -0.00   0.00
  17   1     0.00  -0.00  -0.01    -0.00  -0.00  -0.00    -0.00  -0.00  -0.00
  18   1    -0.00  -0.01   0.00     0.00   0.00  -0.00    -0.00  -0.00   0.00
  19   1     0.00  -0.00  -0.01     0.00  -0.00  -0.00     0.00  -0.00  -0.01
  20   1    -0.00  -0.01   0.01     0.00   0.00  -0.00    -0.00  -0.01   0.00
  21   1    -0.00  -0.00  -0.02    -0.00  -0.00  -0.01    -0.00  -0.00  -0.01
  22   1    -0.00  -0.02   0.01     0.00   0.01  -0.00    -0.00  -0.01   0.00
  23   1     0.00  -0.01  -0.05     0.00  -0.00  -0.02     0.00  -0.00  -0.03
  24   1    -0.00  -0.05   0.03     0.00   0.02  -0.01    -0.00  -0.02   0.01
  25   1    -0.00  -0.01  -0.07     0.00  -0.01  -0.06     0.00  -0.00  -0.04
  26   1    -0.01  -0.06   0.04     0.00   0.05  -0.03    -0.00  -0.03   0.02
  27   1     0.67  -0.52  -0.23     0.02  -0.04   0.03    -0.29   0.25   0.11
  28   1    -0.03  -0.00  -0.24    -0.03  -0.12  -0.66    -0.01  -0.08  -0.64
  29   1    -0.06  -0.23   0.15     0.08   0.60  -0.28    -0.06  -0.55   0.30
                     79                     80                     81
                        a                      a                      a 
 Frequencies --  3261.3811              3269.1379              3283.7421
 Red. masses --     2.0320                 2.0384                 1.2877
 Frc consts  --     0.0000                 0.0000                 0.0000
 IR Inten    --   103.3748                79.6811                24.3821
 Raman Activ --     0.0000                 0.0000                 0.0000
 Depolar     --     0.0000                 0.0000                 0.0000
 Atom AN      X      Y      Z        X      Y      Z        X      Y      Z
   1   7     0.24  -0.13  -0.06    -0.12  -0.11  -0.23     0.05   0.09  -0.10
   2   6     0.01  -0.01  -0.00    -0.00  -0.00  -0.01     0.00   0.01  -0.01
   3   6    -0.00   0.00   0.00     0.00   0.00   0.00    -0.00   0.00   0.00
   4   6    -0.00   0.00  -0.00     0.00   0.00  -0.00    -0.00  -0.00   0.00
   5   6     0.00   0.00   0.00     0.00   0.00  -0.00    -0.00   0.00   0.00
   6   6    -0.00   0.00   0.00    -0.00   0.00   0.00    -0.00  -0.00   0.00
   7   6     0.00   0.00  -0.00     0.00   0.00  -0.00    -0.00   0.00  -0.00
   8   6    -0.00  -0.00   0.00    -0.00  -0.00   0.00    -0.00  -0.00   0.00
   9   6     0.00  -0.00  -0.00     0.00   0.00  -0.00    -0.00   0.00  -0.00
  10   1     0.02   0.02   0.21    -0.03   0.10   0.65    -0.01   0.12   0.67
  11   1    -0.54   0.61   0.17    -0.13   0.12   0.01     0.31  -0.32  -0.10
  12   1    -0.37  -0.14  -0.14     0.62   0.19   0.19    -0.50  -0.16  -0.18
  13   1    -0.01   0.01   0.00     0.00   0.00   0.00     0.01  -0.01  -0.00
  14   1    -0.00   0.00   0.00    -0.00   0.00   0.01    -0.00   0.00   0.01
  15   1     0.00  -0.00  -0.00     0.00   0.00  -0.00     0.00   0.00  -0.01
  16   1     0.00  -0.00   0.00    -0.00  -0.00   0.00    -0.00  -0.00   0.00
  17   1     0.00   0.00  -0.00    -0.00  -0.00  -0.00     0.00  -0.00   0.00
  18   1    -0.00  -0.01   0.01    -0.00  -0.00   0.00     0.00   0.01  -0.00
  19   1    -0.00  -0.00  -0.00    -0.00   0.00   0.00    -0.00  -0.00  -0.00
  20   1    -0.00  -0.00   0.00    -0.00  -0.00   0.00     0.00  -0.00   0.00
  21   1     0.00   0.00  -0.00     0.00  -0.00  -0.00    -0.00   0.00   0.00
  22   1     0.00  -0.00   0.00     0.00   0.00  -0.00     0.00   0.00  -0.00
  23   1    -0.00  -0.00  -0.00    -0.00  -0.00   0.00     0.00  -0.00   0.00
  24   1    -0.00  -0.00   0.00    -0.00  -0.00   0.00     0.00  -0.00   0.00
  25   1     0.00   0.00  -0.00     0.00  -0.00  -0.00    -0.00  -0.00  -0.00
  26   1     0.00   0.00  -0.00     0.00   0.00  -0.00     0.00   0.00  -0.00
  27   1    -0.00   0.00   0.00    -0.00   0.00   0.00     0.00  -0.00   0.00
  28   1    -0.00   0.00  -0.00    -0.00  -0.00   0.00     0.00  -0.00   0.00
  29   1    -0.00   0.00   0.00    -0.00  -0.00   0.00     0.00  -0.00   0.00
