 Entering Gaussian System
 *********************************************
 Gaussian 98:
 frequency output generated by the xtb code
 *********************************************
                         Standard orientation:
 --------------------------------------------------------------------
  Center     Atomic     Atomic              Coordinates (Angstroms)
  Number     Number      Type              X           Y           Z
 --------------------------------------------------------------------
    1          7             0        3.607946   -1.256068    0.527800
    2          6             0        3.264876   -0.446768   -0.675961
    3          6             0        2.743094    0.945315   -0.332501
    4          6             0        1.427767    0.952613    0.451843
    5          6             0        0.240261    0.369928   -0.317322
    6          6             0       -1.081666    0.470446    0.447433
    7          6             0       -2.270202   -0.116179   -0.317032
    8          6             0       -3.593349   -0.011240    0.445143
    9          6             0       -4.770635   -0.601266   -0.316572
   10          1             0        4.009520   -2.170931    0.270700
   11          1             0        2.780817   -1.438733    1.114403
   12          1             0        4.302450   -0.769701    1.113756
   13          1             0        2.529281   -0.988236   -1.281237
   14          1             0        4.157274   -0.365594   -1.310284
   15          1             0        2.613124    1.529264   -1.252062
   16          1             0        3.514219    1.476612    0.238915
   17          1             0        1.184123    1.979965    0.750422
   18          1             0        1.554467    0.409484    1.394684
   19          1             0        0.435315   -0.678703   -0.566780
   20          1             0        0.143370    0.881227   -1.281962
   21          1             0       -1.285220    1.519608    0.690872
   22          1             0       -0.984095   -0.033232    1.415964
   23          1             0       -2.068958   -1.166340   -0.557691
   24          1             0       -2.366023    0.385540   -1.286873
   25          1             0       -3.791413    1.041431    0.682961
   26          1             0       -3.490828   -0.507759    1.418173
   27          1             0       -4.613611   -1.660017   -0.530221
   28          1             0       -4.916255   -0.096866   -1.273363
   29          1             0       -5.704582   -0.515880    0.243451
 --------------------------------------------------------------------
     1 basis functions        1 primitive gaussians
     1 alpha electrons        1 beta electrons

 Harmonic frequencies (cm**-1), IR intensities (km*mol⁻¹),
 Raman scattering activities (A**4/amu), Raman depolarization ratios,
 reduced masses (AMU), force constants (mDyne/A) and normal coordinates:
                      1                      2                      3
                        a                      a                      a 
 Frequencies --    59.8196                71.8547                88.9097
 Red. masses --    10.0770                 8.2418                 7.2942
 Frc consts  --     0.0000                 0.0000                 0.0000
 IR Inten    --    19.9151                 6.5405                 5.6282
 Raman Activ --     0.0000                 0.0000                 0.0000
 Depolar     --     0.0000                 0.0000                 0.0000
 Atom AN      X      Y      Z        X      Y      Z        X      Y      Z
   1   7     0.57   0.25   0.02     0.30  -0.04   0.13    -0.23   0.10   0.22
   2   6     0.11   0.03   0.00     0.01  -0.16   0.11     0.08   0.01   0.07
   3   6    -0.10  -0.04  -0.03     0.02  -0.15   0.07     0.03   0.05  -0.13
   4   6    -0.07  -0.21   0.02    -0.04  -0.09  -0.02    -0.01   0.09  -0.19
   5   6    -0.07  -0.24   0.04    -0.11   0.37  -0.26     0.02  -0.00  -0.16
   6   6    -0.07  -0.20   0.04    -0.06   0.13  -0.14     0.10  -0.31   0.02
   7   6    -0.12  -0.06   0.00    -0.11   0.27  -0.17     0.00  -0.03  -0.04
   8   6    -0.12   0.12  -0.03    -0.01  -0.12   0.08     0.11  -0.27   0.18
   9   6    -0.19   0.30  -0.06    -0.03  -0.18   0.16    -0.07   0.32  -0.00
  10   1     0.19   0.08   0.01     0.07  -0.02   0.03    -0.03   0.03   0.10
  11   1     0.20   0.03   0.06     0.12  -0.00   0.09    -0.11   0.02  -0.01
  12   1     0.16   0.13  -0.05     0.11   0.01  -0.02    -0.11   0.04   0.10
  13   1     0.03  -0.05   0.06    -0.02  -0.07   0.08     0.06  -0.00  -0.02
  14   1    -0.01   0.04  -0.05    -0.03  -0.05  -0.02     0.06  -0.01   0.07
  15   1    -0.06  -0.03  -0.01     0.03  -0.04   0.02     0.02  -0.02  -0.06
  16   1    -0.04   0.03  -0.03     0.00  -0.05   0.03    -0.01   0.04  -0.04
  17   1    -0.04  -0.07   0.03     0.04  -0.04   0.08    -0.01   0.03  -0.08
  18   1     0.00  -0.08  -0.01    -0.06  -0.12  -0.05    -0.01   0.05  -0.04
  19   1    -0.02  -0.07   0.02    -0.06   0.14  -0.21     0.05   0.02  -0.10
  20   1    -0.02  -0.08   0.01    -0.03   0.24  -0.01    -0.05   0.04  -0.02
  21   1     0.00  -0.06   0.03    -0.02   0.02   0.05     0.03  -0.12   0.12
  22   1    -0.03  -0.08   0.00     0.01  -0.04  -0.08     0.06  -0.19  -0.05
  23   1    -0.07  -0.02   0.00    -0.01   0.11  -0.16    -0.01   0.01  -0.13
  24   1    -0.01  -0.01   0.00    -0.09   0.17   0.00    -0.03   0.09   0.04
  25   1     0.01   0.04  -0.01    -0.05  -0.06   0.09     0.08  -0.11   0.22
  26   1    -0.06   0.03  -0.01     0.07  -0.09  -0.01     0.04  -0.23  -0.03
  27   1    -0.09   0.08  -0.03     0.03  -0.04  -0.00    -0.07   0.12  -0.18
  28   1    -0.04   0.10  -0.01    -0.07  -0.02   0.07    -0.03   0.25   0.09
  29   1    -0.05   0.11  -0.02     0.01  -0.11   0.09     0.00   0.04   0.05
                      4                      5                      6
                        a                      a                      a 
 Frequencies --   105.5383               133.4657               141.1232
 Red. masses --     8.1056                 6.5511                 6.9879
 Frc consts  --     0.0000                 0.0000                 0.0000
 IR Inten    --     0.4935                 0.0178                 0.9980
 Raman Activ --     0.0000                 0.0000                 0.0000
 Depolar     --     0.0000                 0.0000                 0.0000
 Atom AN      X      Y      Z        X      Y      Z        X      Y      Z
   1   7    -0.10  -0.07  -0.01     0.00   0.01  -0.01    -0.11   0.08   0.06
   2   6     0.26   0.22   0.08     0.06   0.04  -0.01     0.05  -0.00  -0.04
   3   6     0.07   0.11   0.24    -0.01   0.01  -0.00    -0.03  -0.00  -0.15
   4   6    -0.08  -0.15  -0.01     0.00  -0.05   0.02     0.04  -0.04  -0.02
   5   6     0.05  -0.11  -0.24     0.07  -0.40   0.17     0.01  -0.09   0.08
   6   6     0.01  -0.10  -0.30    -0.06   0.25  -0.14     0.08  -0.34   0.24
   7   6    -0.07  -0.11  -0.17    -0.09   0.37  -0.19    -0.05   0.36  -0.10
   8   6     0.03   0.17  -0.02     0.02  -0.15   0.08    -0.06   0.28  -0.12
   9   6    -0.14   0.02   0.37    -0.01  -0.07   0.06     0.09  -0.23   0.04
  10   1     0.04   0.02  -0.03     0.06   0.03  -0.00     0.04   0.04   0.05
  11   1    -0.08  -0.10  -0.11    -0.01  -0.05  -0.04    -0.06  -0.03  -0.05
  12   1    -0.11  -0.04   0.11    -0.05   0.03   0.04    -0.10   0.06   0.06
  13   1     0.13   0.09  -0.08     0.04   0.01  -0.02     0.04  -0.01  -0.03
  14   1     0.13   0.12   0.11     0.03   0.03   0.02     0.04   0.00   0.02
  15   1     0.06   0.08   0.09    -0.02  -0.00  -0.00    -0.04  -0.03  -0.05
  16   1    -0.03   0.02   0.14    -0.01   0.02  -0.00    -0.01   0.03  -0.08
  17   1    -0.06  -0.06   0.03    -0.04  -0.00  -0.06     0.01  -0.01  -0.01
  18   1    -0.06  -0.08  -0.02     0.03   0.06   0.04     0.04  -0.00  -0.00
  19   1     0.02  -0.03  -0.08    -0.00  -0.17   0.25     0.03  -0.01  -0.03
  20   1     0.04  -0.01  -0.06     0.09  -0.28  -0.05    -0.05   0.01   0.05
  21   1     0.01  -0.03  -0.10     0.06   0.11  -0.14     0.08  -0.13   0.26
  22   1     0.01  -0.01  -0.08    -0.12   0.14   0.01     0.01  -0.27  -0.02
  23   1    -0.06  -0.05  -0.00     0.01   0.14  -0.17    -0.08   0.12  -0.17
  24   1    -0.03  -0.07  -0.07    -0.09   0.20   0.00     0.04   0.24   0.04
  25   1     0.04   0.07  -0.08    -0.04  -0.08   0.15    -0.09   0.08  -0.11
  26   1     0.05   0.13   0.03     0.08  -0.15  -0.04     0.02   0.16   0.00
  27   1    -0.07  -0.02   0.19     0.05   0.01  -0.11     0.08  -0.08   0.14
  28   1    -0.08  -0.08   0.07    -0.08   0.08   0.08     0.02  -0.19  -0.05
  29   1    -0.01   0.08   0.15     0.02  -0.14   0.08     0.01  -0.05  -0.02
                      7                      8                      9
                        a                      a                      a 
 Frequencies --   161.4994               208.1611               229.3518
 Red. masses --     2.6620                 7.1679                 8.4583
 Frc consts  --     0.0000                 0.0000                 0.0000
 IR Inten    --     1.7895                 3.3064                10.9315
 Raman Activ --     0.0000                 0.0000                 0.0000
 Depolar     --     0.0000                 0.0000                 0.0000
 Atom AN      X      Y      Z        X      Y      Z        X      Y      Z
   1   7    -0.04   0.06  -0.01     0.13  -0.08  -0.07    -0.21   0.32   0.08
   2   6    -0.13   0.04   0.02    -0.42  -0.10   0.06    -0.24  -0.03  -0.12
   3   6     0.02   0.08   0.10    -0.03   0.02   0.14    -0.18  -0.04  -0.09
   4   6    -0.02   0.04   0.03    -0.06   0.35   0.07     0.07  -0.38   0.27
   5   6     0.08  -0.13  -0.00     0.10   0.01   0.07     0.06   0.01   0.03
   6   6     0.04  -0.16  -0.07     0.03  -0.17  -0.08     0.04   0.06  -0.10
   7   6     0.01   0.03  -0.16     0.09  -0.07  -0.24     0.15  -0.06  -0.14
   8   6     0.08   0.03  -0.05     0.17   0.00  -0.12     0.23   0.00  -0.06
   9   6    -0.02   0.01   0.12    -0.03   0.06   0.16     0.11   0.07   0.09
  10   1    -0.47  -0.18  -0.01     0.25   0.09  -0.07     0.02   0.09   0.10
  11   1     0.07   0.45   0.26     0.08  -0.26  -0.03    -0.07   0.08  -0.00
  12   1     0.36  -0.21  -0.26    -0.08   0.11   0.02    -0.12   0.18   0.01
  13   1    -0.09   0.03   0.05    -0.21  -0.02   0.12    -0.09  -0.03   0.02
  14   1    -0.07  -0.03  -0.04    -0.20  -0.07  -0.10    -0.09  -0.04  -0.06
  15   1     0.02   0.04   0.04     0.04   0.02   0.04    -0.16  -0.01  -0.01
  16   1     0.01  -0.01   0.05     0.03  -0.06   0.04    -0.01   0.01  -0.10
  17   1    -0.03   0.01  -0.01    -0.03   0.13  -0.09     0.02  -0.16   0.24
  18   1    -0.01   0.03   0.03    -0.04   0.19   0.07     0.06  -0.25  -0.01
  19   1     0.04  -0.04   0.03     0.09   0.00   0.07    -0.03   0.01  -0.06
  20   1     0.03  -0.06  -0.01     0.03  -0.05  -0.01     0.07   0.08   0.04
  21   1     0.03  -0.05   0.01    -0.01  -0.06   0.02    -0.00   0.02  -0.06
  22   1    -0.01  -0.08  -0.04    -0.01  -0.09  -0.04    -0.01   0.05  -0.01
  23   1    -0.02   0.01  -0.09     0.01  -0.02  -0.09     0.06  -0.02  -0.01
  24   1     0.00   0.05  -0.02     0.03   0.01  -0.05     0.04  -0.04  -0.05
  25   1     0.03   0.01  -0.01     0.08   0.01  -0.04     0.09   0.00  -0.01
  26   1     0.05   0.01  -0.01     0.08   0.01  -0.03     0.09   0.00  -0.02
  27   1    -0.02  -0.00   0.05    -0.06   0.00   0.07     0.02   0.02   0.01
  28   1    -0.04  -0.01   0.03    -0.05  -0.01   0.04    -0.00   0.03   0.04
  29   1     0.01   0.02   0.06     0.03   0.06   0.10     0.06   0.02   0.07
                     10                     11                     12
                        a                      a                      a 
 Frequencies --   261.3762               273.5315               337.9968
 Red. masses --     1.9049                 8.8882                 8.2653
 Frc consts  --     0.0000                 0.0000                 0.0000
 IR Inten    --     0.0265                 0.0304                 6.6380
 Raman Activ --     0.0000                 0.0000                 0.0000
 Depolar     --     0.0000                 0.0000                 0.0000
 Atom AN      X      Y      Z        X      Y      Z        X      Y      Z
   1   7     0.00  -0.01   0.00    -0.00  -0.04   0.01    -0.10   0.26   0.00
   2   6    -0.00  -0.01   0.01     0.22  -0.04  -0.06    -0.14  -0.08  -0.16
   3   6     0.00   0.00   0.00     0.11  -0.03  -0.19     0.40   0.00   0.16
   4   6    -0.01   0.02  -0.01     0.27   0.11   0.17     0.25  -0.06  -0.03
   5   6    -0.00   0.01  -0.01     0.08   0.21   0.32     0.20  -0.05  -0.08
   6   6     0.01  -0.07   0.03    -0.14   0.03   0.06     0.12  -0.03  -0.07
   7   6     0.02  -0.09   0.05    -0.00  -0.10  -0.19    -0.15   0.04   0.14
   8   6    -0.04   0.22  -0.10    -0.08  -0.14  -0.25    -0.29  -0.03   0.05
   9   6     0.02  -0.06   0.02    -0.42  -0.02   0.13    -0.24  -0.08  -0.07
  10   1    -0.00  -0.00  -0.00    -0.04  -0.03   0.02     0.05   0.08   0.10
  11   1     0.00  -0.01   0.00    -0.03   0.04  -0.02    -0.04   0.06  -0.02
  12   1     0.00  -0.01  -0.00     0.01  -0.04   0.01    -0.09   0.18  -0.02
  13   1    -0.00  -0.00   0.00     0.10  -0.02  -0.06    -0.15   0.03   0.04
  14   1    -0.00  -0.00   0.00     0.10  -0.00   0.03    -0.09  -0.13  -0.13
  15   1     0.01  -0.00   0.00    -0.05  -0.07  -0.08     0.22   0.14   0.12
  16   1     0.00  -0.00   0.00     0.06   0.05  -0.14     0.14  -0.15   0.16
  17   1    -0.00   0.01  -0.01     0.13   0.04   0.06     0.06  -0.02   0.00
  18   1    -0.00   0.01  -0.00     0.13   0.03   0.04     0.05  -0.03  -0.01
  19   1     0.01   0.01  -0.02     0.03   0.07   0.07     0.04  -0.02  -0.02
  20   1    -0.01   0.01   0.00     0.03   0.07   0.10     0.07  -0.01  -0.03
  21   1    -0.00  -0.02   0.02    -0.09  -0.00   0.01     0.06  -0.00  -0.02
  22   1     0.02  -0.02   0.00    -0.08   0.00   0.02     0.05  -0.00  -0.02
  23   1    -0.03  -0.05   0.10     0.03  -0.02  -0.05    -0.06   0.01   0.04
  24   1     0.05  -0.09  -0.03     0.02  -0.03  -0.06    -0.05   0.01   0.04
  25   1    -0.02   0.08  -0.12     0.00  -0.03  -0.07    -0.11  -0.01   0.01
  26   1    -0.02   0.15   0.02    -0.00  -0.03  -0.07    -0.11  -0.01   0.01
  27   1     0.29   0.11  -0.41    -0.20  -0.02   0.03    -0.06  -0.02  -0.02
  28   1    -0.36   0.28   0.22    -0.21  -0.01   0.05    -0.06  -0.02  -0.02
  29   1     0.10  -0.51   0.24    -0.05   0.05   0.14    -0.08  -0.03  -0.03
                     13                     14                     15
                        a                      a                      a 
 Frequencies --   413.1105               439.8986               504.6422
 Red. masses --     7.9062                 8.6013                 8.4089
 Frc consts  --     0.0000                 0.0000                 0.0000
 IR Inten    --     4.8011                 1.8487                 2.3623
 Raman Activ --     0.0000                 0.0000                 0.0000
 Depolar     --     0.0000                 0.0000                 0.0000
 Atom AN      X      Y      Z        X      Y      Z        X      Y      Z
   1   7     0.03  -0.19   0.04     0.01  -0.13   0.05     0.00   0.09  -0.07
   2   6    -0.12   0.09   0.21    -0.15   0.13   0.21     0.07  -0.10  -0.14
   3   6    -0.09   0.22  -0.19    -0.03   0.23  -0.07    -0.33  -0.30   0.13
   4   6     0.18   0.05   0.20    -0.02  -0.16  -0.18    -0.19   0.15   0.24
   5   6     0.31   0.02  -0.06     0.00  -0.11  -0.17     0.24   0.03  -0.15
   6   6     0.12  -0.11  -0.29     0.26   0.15   0.22     0.33   0.03  -0.08
   7   6    -0.22  -0.01   0.06     0.28   0.13   0.16     0.12   0.10   0.16
   8   6    -0.20   0.06   0.20    -0.02  -0.12  -0.25    -0.09  -0.04  -0.04
   9   6     0.00  -0.03  -0.07    -0.30  -0.05   0.01    -0.17  -0.05  -0.03
  10   1    -0.00  -0.02  -0.11     0.01   0.00  -0.10    -0.01  -0.01   0.07
  11   1     0.04  -0.13   0.04     0.04  -0.12   0.04    -0.02   0.10  -0.02
  12   1     0.04  -0.12   0.03     0.03  -0.09   0.03    -0.01   0.06  -0.04
  13   1    -0.06   0.03   0.09    -0.10   0.06   0.11     0.16  -0.10  -0.14
  14   1    -0.05  -0.01   0.03    -0.07  -0.02   0.01     0.07   0.13   0.05
  15   1    -0.18  -0.09  -0.13    -0.02   0.01  -0.05    -0.17  -0.09   0.04
  16   1     0.01   0.20  -0.23    -0.04   0.11  -0.03    -0.05  -0.07  -0.03
  17   1     0.01  -0.02   0.14    -0.07  -0.09   0.04    -0.03   0.09  -0.08
  18   1     0.12  -0.05   0.01     0.03  -0.12  -0.10    -0.15   0.14   0.14
  19   1     0.13   0.02  -0.03    -0.06  -0.04  -0.05     0.13   0.02  -0.04
  20   1     0.15   0.03  -0.01    -0.04  -0.03  -0.04     0.11   0.02  -0.04
  21   1     0.05  -0.03  -0.08     0.12   0.05   0.05     0.14   0.02  -0.01
  22   1     0.04  -0.02  -0.08     0.12   0.05   0.06     0.15   0.01  -0.03
  23   1    -0.12  -0.01   0.02     0.14   0.05   0.04     0.04   0.03   0.04
  24   1    -0.12  -0.02   0.01     0.14   0.05   0.04     0.04   0.02   0.04
  25   1    -0.07   0.01   0.05    -0.02  -0.04  -0.06    -0.05  -0.02  -0.01
  26   1    -0.07   0.01   0.05    -0.02  -0.03  -0.07    -0.05  -0.01  -0.01
  27   1     0.06  -0.00  -0.02    -0.17  -0.03   0.01    -0.08  -0.02  -0.01
  28   1     0.06  -0.00  -0.03    -0.17  -0.03   0.01    -0.08  -0.02  -0.01
  29   1    -0.05  -0.05  -0.09    -0.02   0.05   0.11    -0.03   0.00   0.02
                     16                     17                     18
                        a                      a                      a 
 Frequencies --   758.8401               768.8853               793.3617
 Red. masses --     1.9398                 2.2100                 2.6111
 Frc consts  --     0.0000                 0.0000                 0.0000
 IR Inten    --    18.9660                 9.6028                24.2710
 Raman Activ --     0.0000                 0.0000                 0.0000
 Depolar     --     0.0000                 0.0000                 0.0000
 Atom AN      X      Y      Z        X      Y      Z        X      Y      Z
   1   7    -0.01  -0.04   0.06    -0.01  -0.04   0.06     0.05   0.02  -0.08
   2   6    -0.05  -0.06  -0.04    -0.08  -0.06  -0.04     0.17   0.02   0.00
   3   6    -0.08   0.03  -0.07    -0.09   0.04  -0.09     0.11  -0.03   0.12
   4   6    -0.03   0.12  -0.04    -0.03   0.12  -0.05    -0.04  -0.02   0.08
   5   6     0.00   0.15  -0.03     0.02   0.08   0.01    -0.07   0.08  -0.12
   6   6    -0.00   0.10  -0.06     0.03  -0.07   0.01    -0.04   0.11  -0.04
   7   6    -0.01   0.07  -0.03     0.03  -0.15   0.07     0.01  -0.04   0.03
   8   6    -0.01   0.03  -0.01     0.02  -0.11   0.06     0.04  -0.14   0.05
   9   6    -0.01  -0.00   0.00    -0.00  -0.01   0.00     0.01  -0.02   0.01
  10   1     0.02   0.00   0.01     0.02   0.01  -0.00    -0.04  -0.05   0.08
  11   1     0.05  -0.04   0.09     0.07  -0.05   0.11    -0.14   0.12  -0.20
  12   1     0.02   0.03  -0.05     0.03   0.04  -0.07    -0.07  -0.06   0.13
  13   1     0.10  -0.06  -0.11     0.12  -0.07  -0.13    -0.17   0.07   0.20
  14   1     0.06   0.06   0.10     0.07   0.08   0.12    -0.10  -0.13  -0.21
  15   1     0.10   0.10   0.02     0.13   0.12   0.03    -0.16  -0.16  -0.03
  16   1    -0.01  -0.11   0.08    -0.01  -0.14   0.10     0.03   0.18  -0.14
  17   1     0.07  -0.04   0.28     0.04  -0.03   0.22     0.03   0.01  -0.01
  18   1     0.01  -0.24  -0.16     0.05  -0.18  -0.14    -0.13  -0.00   0.04
  19   1     0.03  -0.05   0.39     0.10   0.01   0.12    -0.09  -0.05   0.21
  20   1     0.08  -0.30  -0.19    -0.03  -0.09  -0.05     0.07  -0.18  -0.15
  21   1    -0.00  -0.06   0.33    -0.08   0.01  -0.19    -0.06  -0.03   0.22
  22   1     0.08  -0.28  -0.18     0.05   0.17   0.10     0.10  -0.16  -0.12
  23   1     0.04  -0.03   0.23     0.01   0.05  -0.37     0.10   0.03  -0.09
  24   1     0.01  -0.20  -0.12    -0.08   0.30   0.20    -0.11   0.06   0.06
  25   1    -0.02  -0.02   0.11     0.03   0.05  -0.31    -0.01   0.03  -0.29
  26   1     0.04  -0.09  -0.05    -0.10   0.26   0.17    -0.04   0.23   0.16
  27   1     0.02  -0.00   0.02    -0.08   0.01  -0.10    -0.12   0.00  -0.11
  28   1    -0.01  -0.03  -0.01     0.07   0.10   0.04     0.09   0.12   0.06
  29   1    -0.00  -0.01  -0.00    -0.01   0.03  -0.02    -0.00   0.06  -0.02
                     19                     20                     21
                        a                      a                      a 
 Frequencies --   826.1132               859.4901               875.3223
 Red. masses --     3.5738                 4.7301                 5.2152
 Frc consts  --     0.0000                 0.0000                 0.0000
 IR Inten    --    20.7710                 7.4675                22.3977
 Raman Activ --     0.0000                 0.0000                 0.0000
 Depolar     --     0.0000                 0.0000                 0.0000
 Atom AN      X      Y      Z        X      Y      Z        X      Y      Z
   1   7    -0.12   0.09  -0.02    -0.16   0.13  -0.18    -0.03  -0.28   0.03
   2   6    -0.16   0.09   0.13    -0.05   0.04   0.21     0.03  -0.15  -0.19
   3   6    -0.00  -0.12   0.00     0.19  -0.20   0.20     0.19   0.31   0.07
   4   6     0.17  -0.19  -0.07     0.12  -0.03  -0.04    -0.11   0.09   0.15
   5   6     0.04  -0.05   0.05    -0.06   0.10  -0.13    -0.08  -0.13  -0.09
   6   6    -0.04   0.15  -0.04    -0.04  -0.04   0.07    -0.05   0.00   0.02
   7   6    -0.03   0.05  -0.06     0.00  -0.13   0.05    -0.02   0.08   0.02
   8   6     0.02  -0.13   0.07    -0.01   0.08  -0.05     0.03  -0.05  -0.02
   9   6     0.01  -0.04   0.03     0.00   0.06  -0.02     0.03  -0.02   0.01
  10   1     0.03   0.10  -0.19     0.04   0.09  -0.10     0.15  -0.10   0.35
  11   1     0.16  -0.15   0.21     0.12  -0.07   0.15     0.11   0.03   0.20
  12   1     0.07   0.07  -0.16     0.02   0.16  -0.22    -0.04   0.32  -0.29
  13   1     0.10   0.04  -0.15     0.01   0.14  -0.09     0.01   0.12  -0.19
  14   1     0.08   0.11   0.22     0.05   0.03   0.15     0.10  -0.11   0.06
  15   1     0.01  -0.03   0.00    -0.15  -0.29  -0.06    -0.11  -0.02  -0.03
  16   1    -0.00  -0.04   0.01     0.07   0.16  -0.18     0.09   0.20  -0.13
  17   1     0.02   0.01  -0.26     0.13   0.01  -0.01    -0.15  -0.01   0.07
  18   1     0.07   0.18   0.10    -0.13  -0.05  -0.01    -0.04  -0.00   0.03
  19   1    -0.12  -0.01  -0.09    -0.02  -0.02   0.16    -0.01  -0.01  -0.10
  20   1     0.09   0.10   0.06    -0.03  -0.16  -0.13    -0.06   0.04   0.02
  21   1     0.04  -0.00   0.21    -0.13  -0.02  -0.05     0.05   0.01   0.00
  22   1    -0.04  -0.18  -0.12     0.09   0.07   0.05    -0.05  -0.01   0.00
  23   1     0.11   0.01   0.08    -0.06  -0.01  -0.16     0.02   0.01   0.08
  24   1    -0.11  -0.10  -0.06     0.04   0.13   0.09     0.00  -0.05  -0.03
  25   1    -0.06   0.01  -0.22     0.10   0.01   0.12    -0.04  -0.01  -0.05
  26   1     0.03   0.19   0.13    -0.07  -0.12  -0.08     0.04   0.04   0.02
  27   1    -0.14  -0.00  -0.13     0.14   0.01   0.12    -0.07  -0.01  -0.04
  28   1     0.13   0.14   0.07    -0.11  -0.12  -0.06     0.03   0.05   0.03
  29   1    -0.02   0.06  -0.04     0.02  -0.06   0.04     0.02   0.05   0.02
                     22                     23                     24
                        a                      a                      a 
 Frequencies --   915.8665               938.0716               968.5880
 Red. masses --     4.4074                 6.2746                 5.4235
 Frc consts  --     0.0000                 0.0000                 0.0000
 IR Inten    --     0.8385                 2.1770                26.3355
 Raman Activ --     0.0000                 0.0000                 0.0000
 Depolar     --     0.0000                 0.0000                 0.0000
 Atom AN      X      Y      Z        X      Y      Z        X      Y      Z
   1   7    -0.04   0.15  -0.20     0.01  -0.07  -0.04    -0.09   0.11   0.27
   2   6     0.01  -0.05   0.23     0.00   0.01   0.02     0.09   0.04  -0.31
   3   6     0.07  -0.16   0.10    -0.06   0.02   0.06     0.18  -0.01  -0.08
   4   6    -0.02   0.19  -0.08    -0.02  -0.05  -0.12    -0.10   0.02   0.25
   5   6    -0.01  -0.05   0.00     0.04   0.05   0.09    -0.13  -0.01  -0.15
   6   6     0.03  -0.15   0.07     0.14   0.06   0.09    -0.00  -0.06   0.05
   7   6    -0.04   0.19  -0.08     0.25  -0.11  -0.33     0.08   0.03  -0.05
   8   6     0.01  -0.04   0.01    -0.11   0.11   0.27    -0.01   0.05   0.04
   9   6     0.03  -0.11   0.05    -0.34  -0.03   0.08    -0.09  -0.06   0.05
  10   1    -0.03   0.04  -0.07     0.03  -0.05   0.14    -0.05   0.13  -0.35
  11   1    -0.04   0.05  -0.08    -0.01   0.06  -0.01     0.12  -0.26   0.18
  12   1    -0.02   0.01  -0.01    -0.03   0.09  -0.05     0.12  -0.20   0.09
  13   1     0.01  -0.01   0.05    -0.03   0.06  -0.01    -0.01  -0.04  -0.00
  14   1    -0.02   0.04   0.03    -0.01   0.01  -0.01     0.07  -0.19  -0.05
  15   1     0.03  -0.19  -0.07    -0.01  -0.04  -0.01    -0.13   0.11   0.07
  16   1     0.03   0.04  -0.06    -0.07   0.07   0.03     0.16  -0.06  -0.12
  17   1     0.08  -0.00   0.22    -0.01  -0.02  -0.03     0.01   0.03  -0.00
  18   1    -0.05  -0.19  -0.15    -0.01  -0.02  -0.03    -0.18   0.02   0.09
  19   1     0.19   0.03  -0.04    -0.02   0.01   0.03    -0.01  -0.02   0.04
  20   1    -0.22  -0.02   0.02    -0.03   0.00   0.02    -0.05  -0.07  -0.07
  21   1     0.14   0.03  -0.17    -0.00   0.01   0.01    -0.04  -0.00  -0.07
  22   1    -0.16   0.10   0.10     0.00   0.01   0.02     0.05   0.06   0.05
  23   1    -0.08  -0.02   0.21     0.10  -0.02  -0.09    -0.05  -0.01   0.02
  24   1     0.10  -0.14  -0.13     0.11  -0.02  -0.09     0.16   0.00  -0.03
  25   1    -0.21  -0.04  -0.04     0.09   0.05   0.07    -0.06  -0.01   0.04
  26   1     0.20   0.07   0.02     0.10   0.05   0.07     0.14   0.01  -0.00
  27   1    -0.20  -0.02  -0.16     0.20   0.04  -0.04    -0.02   0.00  -0.07
  28   1     0.16   0.17   0.09     0.21   0.02  -0.02     0.12   0.07   0.03
  29   1    -0.01   0.10  -0.04    -0.34  -0.24  -0.36    -0.10  -0.03  -0.12
                     25                     26                     27
                        a                      a                      a 
 Frequencies --   981.2305              1000.3313              1016.1386
 Red. masses --     6.1655                 5.8590                 4.8217
 Frc consts  --     0.0000                 0.0000                 0.0000
 IR Inten    --    19.7968                 5.7839                 2.4372
 Raman Activ --     0.0000                 0.0000                 0.0000
 Depolar     --     0.0000                 0.0000                 0.0000
 Atom AN      X      Y      Z        X      Y      Z        X      Y      Z
   1   7    -0.09   0.21  -0.19    -0.17   0.04  -0.12     0.05   0.09  -0.21
   2   6     0.14  -0.26   0.20     0.32  -0.09   0.11    -0.07  -0.26   0.25
   3   6     0.15   0.05  -0.11    -0.08   0.01  -0.13     0.04   0.19  -0.09
   4   6    -0.21   0.17   0.18    -0.25  -0.13  -0.04     0.04  -0.00   0.18
   5   6    -0.08  -0.18   0.01     0.03   0.19   0.26    -0.06  -0.04  -0.18
   6   6    -0.02   0.09  -0.09     0.13  -0.08  -0.16    -0.09   0.03   0.06
   7   6     0.09  -0.01   0.02     0.05   0.02   0.06     0.02  -0.05   0.03
   8   6     0.02  -0.04   0.07    -0.00   0.06   0.01    -0.01   0.08  -0.06
   9   6    -0.09   0.08  -0.04     0.02  -0.06  -0.03    -0.01  -0.06   0.07
  10   1    -0.04   0.09  -0.21     0.05   0.06  -0.06    -0.03  -0.01   0.01
  11   1     0.01  -0.04  -0.02     0.09  -0.08   0.13    -0.08   0.11  -0.15
  12   1     0.02  -0.03  -0.03     0.01   0.12  -0.18    -0.03   0.00   0.01
  13   1     0.05  -0.09   0.06    -0.15   0.17   0.13     0.14  -0.19  -0.01
  14   1     0.05  -0.14   0.05     0.05  -0.34  -0.07     0.01   0.09   0.13
  15   1     0.14  -0.03  -0.06     0.14   0.02  -0.04     0.10   0.06  -0.02
  16   1     0.07  -0.03  -0.02    -0.26   0.09   0.20     0.10  -0.07  -0.03
  17   1    -0.17  -0.02   0.17    -0.04  -0.01  -0.06    -0.20  -0.03  -0.02
  18   1     0.05  -0.04  -0.01     0.02   0.03   0.02     0.16   0.11   0.09
  19   1     0.02  -0.00  -0.14    -0.01   0.03   0.12    -0.22  -0.06  -0.01
  20   1    -0.05   0.08   0.07     0.15   0.03   0.04     0.22  -0.00  -0.07
  21   1     0.16   0.03   0.09    -0.09  -0.04  -0.06    -0.25  -0.04   0.03
  22   1    -0.11  -0.11  -0.08     0.12   0.02  -0.03     0.23   0.04   0.01
  23   1     0.25   0.05  -0.03    -0.14  -0.02   0.00    -0.17  -0.03  -0.04
  24   1    -0.17  -0.01   0.02     0.08   0.03   0.02     0.24   0.08   0.03
  25   1     0.21   0.04  -0.05    -0.12  -0.02   0.05    -0.12  -0.02   0.07
  26   1    -0.17   0.02   0.05     0.05  -0.01  -0.01     0.18  -0.02  -0.05
  27   1     0.16   0.02   0.10    -0.12  -0.02  -0.05    -0.06  -0.00  -0.08
  28   1    -0.09  -0.11  -0.07    -0.01   0.04   0.02     0.12   0.08   0.05
  29   1    -0.05  -0.10  -0.03     0.04   0.06   0.04    -0.05   0.02  -0.06
                     28                     29                     30
                        a                      a                      a 
 Frequencies --  1053.9015              1093.8263              1096.6773
 Red. masses --     9.9241                 8.4284                 6.8466
 Frc consts  --     0.0000                 0.0000                 0.0000
 IR Inten    --     1.8987                 2.3530                 3.3443
 Raman Activ --     0.0000                 0.0000                 0.0000
 Depolar     --     0.0000                 0.0000                 0.0000
 Atom AN      X      Y      Z        X      Y      Z        X      Y      Z
   1   7    -0.06   0.05  -0.03    -0.04  -0.02  -0.02    -0.01   0.07  -0.10
   2   6     0.13  -0.13   0.00     0.09   0.02   0.03     0.04  -0.33   0.08
   3   6    -0.10   0.07   0.02    -0.14  -0.03  -0.02    -0.11   0.31   0.11
   4   6    -0.06  -0.02  -0.06     0.09   0.01  -0.01     0.14  -0.14  -0.12
   5   6     0.37   0.01  -0.14     0.28  -0.04  -0.24     0.06   0.11   0.01
   6   6     0.01   0.19   0.43    -0.56  -0.12   0.02     0.04  -0.02   0.08
   7   6    -0.34  -0.15  -0.20     0.16   0.17   0.26    -0.03   0.00  -0.07
   8   6    -0.19  -0.14  -0.21     0.14   0.00  -0.02     0.21   0.12   0.22
   9   6     0.19   0.13   0.19    -0.13  -0.01   0.01    -0.11  -0.12  -0.23
  10   1    -0.00   0.04  -0.07     0.02   0.00   0.01    -0.02   0.02  -0.07
  11   1     0.03  -0.05   0.04     0.02  -0.01   0.04    -0.01  -0.00  -0.04
  12   1     0.01  -0.00  -0.03    -0.00   0.04  -0.05     0.00  -0.02   0.00
  13   1    -0.01  -0.03   0.05    -0.05   0.04   0.06     0.10  -0.21   0.02
  14   1     0.02  -0.14  -0.03    -0.01  -0.07  -0.05     0.03  -0.08   0.05
  15   1    -0.06   0.06   0.04    -0.01   0.05   0.03    -0.29   0.24   0.17
  16   1    -0.07   0.03   0.04    -0.11  -0.00   0.08     0.02   0.05  -0.01
  17   1    -0.08  -0.02  -0.01     0.08   0.02  -0.02     0.09   0.01  -0.14
  18   1    -0.08  -0.03  -0.02     0.00  -0.00  -0.00    -0.18   0.01   0.02
  19   1     0.12   0.01  -0.03     0.22   0.01  -0.06     0.05   0.02   0.06
  20   1     0.08   0.00  -0.03     0.16  -0.02  -0.08    -0.14  -0.07  -0.03
  21   1     0.04   0.06   0.11    -0.17  -0.03  -0.01     0.01   0.01  -0.02
  22   1    -0.00   0.06   0.12    -0.24  -0.03   0.01    -0.12   0.01   0.04
  23   1    -0.03  -0.03  -0.05     0.17   0.06   0.09    -0.06  -0.02   0.02
  24   1    -0.06  -0.04  -0.06     0.14   0.06   0.07    -0.14  -0.05  -0.03
  25   1     0.00  -0.03  -0.07     0.08   0.01  -0.01     0.07   0.04   0.04
  26   1    -0.01  -0.03  -0.06     0.06   0.02   0.00     0.03   0.05   0.07
  27   1     0.14   0.05   0.05     0.05   0.01  -0.01    -0.15  -0.05  -0.03
  28   1     0.13   0.04   0.04     0.04  -0.01  -0.01    -0.18  -0.06  -0.05
  29   1     0.01  -0.01  -0.01    -0.09  -0.06  -0.08     0.05   0.04   0.07
                     31                     32                     33
                        a                      a                      a 
 Frequencies --  1104.8824              1108.1111              1136.5315
 Red. masses --     6.8636                 7.7111                 8.3616
 Frc consts  --     0.0000                 0.0000                 0.0000
 IR Inten    --     4.9414                 1.7579                 3.1789
 Raman Activ --     0.0000                 0.0000                 0.0000
 Depolar     --     0.0000                 0.0000                 0.0000
 Atom AN      X      Y      Z        X      Y      Z        X      Y      Z
   1   7    -0.04  -0.04  -0.10     0.02   0.04  -0.02     0.06   0.05   0.01
   2   6     0.11  -0.04   0.17    -0.06  -0.13  -0.00    -0.13  -0.13  -0.05
   3   6    -0.20   0.07  -0.08     0.05   0.13   0.06     0.15   0.13   0.08
   4   6     0.30   0.00   0.17    -0.03  -0.10  -0.12    -0.15  -0.16  -0.19
   5   6    -0.37  -0.02  -0.11     0.04   0.08   0.10     0.04   0.16   0.29
   6   6     0.11  -0.10  -0.11    -0.08  -0.10  -0.15     0.03  -0.10  -0.21
   7   6    -0.05   0.06   0.06     0.40   0.06  -0.07    -0.18   0.12   0.31
   8   6    -0.10  -0.14  -0.19    -0.46  -0.08   0.04     0.15  -0.13  -0.32
   9   6     0.04   0.11   0.18     0.23   0.12   0.15    -0.10   0.06   0.17
  10   1     0.03  -0.01   0.05    -0.02   0.01  -0.03    -0.03   0.00  -0.04
  11   1     0.01   0.03   0.01    -0.02   0.01  -0.04    -0.03   0.01  -0.05
  12   1    -0.02   0.08  -0.09     0.00  -0.04   0.04     0.01  -0.06   0.07
  13   1    -0.03   0.01   0.09     0.07  -0.10  -0.04     0.08  -0.10  -0.09
  14   1     0.00  -0.09  -0.00     0.01   0.02   0.04     0.02   0.04   0.07
  15   1    -0.08   0.22   0.11    -0.11   0.05   0.04    -0.08  -0.03  -0.00
  16   1    -0.08  -0.07   0.10     0.06   0.05  -0.05     0.05   0.10  -0.07
  17   1     0.35   0.10  -0.05    -0.03  -0.02  -0.07    -0.08  -0.04  -0.08
  18   1     0.06   0.10   0.10    -0.13  -0.02  -0.01    -0.15  -0.03  -0.03
  19   1    -0.01  -0.01   0.03     0.04   0.02   0.04     0.07   0.05   0.09
  20   1    -0.20  -0.09  -0.06    -0.02  -0.01   0.01     0.04   0.03   0.06
  21   1     0.20   0.02  -0.08    -0.11  -0.04  -0.06     0.05  -0.02  -0.05
  22   1     0.07   0.03  -0.01    -0.15  -0.05  -0.04     0.03  -0.01  -0.04
  23   1     0.08   0.03   0.04     0.19   0.03  -0.02    -0.03   0.03   0.08
  24   1     0.01  -0.01  -0.00     0.17   0.01  -0.03    -0.04   0.03   0.08
  25   1     0.03  -0.02  -0.07    -0.28  -0.05   0.00     0.15  -0.01  -0.08
  26   1    -0.01  -0.02  -0.04    -0.29  -0.05   0.01     0.14  -0.01  -0.08
  27   1     0.16   0.05   0.04     0.05   0.03   0.06     0.17   0.05  -0.00
  28   1     0.13   0.02   0.02     0.04   0.04   0.05     0.18   0.02   0.01
  29   1    -0.07  -0.06  -0.08     0.09   0.06   0.09    -0.15  -0.11  -0.16
                     34                     35                     36
                        a                      a                      a 
 Frequencies --  1148.5099              1196.7745              1216.5111
 Red. masses --     7.5226                 5.8770                 3.9268
 Frc consts  --     0.0000                 0.0000                 0.0000
 IR Inten    --     7.4221                 1.7482                 7.1836
 Raman Activ --     0.0000                 0.0000                 0.0000
 Depolar     --     0.0000                 0.0000                 0.0000
 Atom AN      X      Y      Z        X      Y      Z        X      Y      Z
   1   7    -0.07   0.09   0.09     0.02   0.05   0.04     0.19   0.12   0.06
   2   6     0.13  -0.20  -0.22    -0.04  -0.08  -0.10    -0.22  -0.20  -0.10
   3   6    -0.22   0.04   0.41    -0.02   0.04   0.09     0.02   0.10   0.02
   4   6     0.25   0.24  -0.22     0.03  -0.05   0.04    -0.01  -0.09   0.12
   5   6    -0.08  -0.16   0.05    -0.07   0.15  -0.10    -0.07   0.04  -0.11
   6   6    -0.01   0.07  -0.12     0.04  -0.24   0.12    -0.06   0.00   0.05
   7   6     0.03  -0.05   0.07    -0.05   0.29  -0.15     0.00  -0.10  -0.01
   8   6    -0.02   0.03  -0.06     0.05  -0.31   0.16    -0.05   0.15  -0.02
   9   6     0.00  -0.02   0.04    -0.04   0.21  -0.11     0.03  -0.12   0.02
  10   1    -0.03   0.06  -0.13    -0.02   0.01  -0.04    -0.07  -0.00  -0.06
  11   1     0.03  -0.11   0.06    -0.01  -0.02  -0.02    -0.07   0.02  -0.15
  12   1     0.05  -0.07   0.01     0.02  -0.05   0.04     0.03  -0.13   0.16
  13   1    -0.01  -0.06  -0.00     0.00   0.01  -0.07    -0.05   0.25  -0.31
  14   1    -0.00  -0.04  -0.11     0.02  -0.00   0.01     0.12  -0.19   0.20
  15   1    -0.16  -0.12   0.04     0.11  -0.13  -0.08     0.17  -0.15  -0.13
  16   1    -0.13   0.18   0.04    -0.10   0.10   0.05    -0.26   0.23   0.16
  17   1    -0.06  -0.02   0.13    -0.11  -0.03  -0.02     0.17   0.04  -0.04
  18   1     0.36  -0.03  -0.14     0.22   0.08   0.04     0.08   0.08   0.08
  19   1    -0.16  -0.03  -0.11    -0.09  -0.01   0.11     0.14   0.02   0.04
  20   1    -0.02   0.06   0.06     0.13  -0.06  -0.09     0.02  -0.03  -0.05
  21   1    -0.07  -0.02   0.05    -0.07  -0.03  -0.16     0.19   0.04   0.00
  22   1     0.09  -0.05  -0.07     0.09   0.14   0.12    -0.05  -0.00   0.01
  23   1    -0.04  -0.01  -0.04    -0.01   0.01   0.19     0.13   0.01  -0.06
  24   1     0.04   0.05   0.04     0.06  -0.13  -0.15    -0.03   0.02   0.02
  25   1    -0.03  -0.01   0.03    -0.01  -0.02  -0.21     0.07   0.03   0.10
  26   1     0.03  -0.02  -0.03    -0.01   0.15   0.16    -0.04  -0.06  -0.05
  27   1    -0.00   0.00  -0.02     0.17   0.04   0.16    -0.10  -0.03  -0.08
  28   1     0.05   0.03   0.02    -0.16  -0.15  -0.11     0.05   0.07   0.05
  29   1    -0.02   0.00  -0.02     0.02  -0.09   0.05     0.01   0.06  -0.00
                     37                     38                     39
                        a                      a                      a 
 Frequencies --  1236.1781              1249.3467              1264.0566
 Red. masses --     3.4804                 3.1762                 3.0784
 Frc consts  --     0.0000                 0.0000                 0.0000
 IR Inten    --    11.1204                 7.3489                 3.0722
 Raman Activ --     0.0000                 0.0000                 0.0000
 Depolar     --     0.0000                 0.0000                 0.0000
 Atom AN      X      Y      Z        X      Y      Z        X      Y      Z
   1   7     0.16   0.04  -0.02     0.06   0.02  -0.00     0.04  -0.00  -0.02
   2   6    -0.09  -0.03   0.08     0.02   0.01   0.04     0.02   0.04   0.07
   3   6    -0.03  -0.08  -0.07    -0.09  -0.12  -0.03    -0.01  -0.10   0.03
   4   6    -0.00   0.15  -0.06     0.11   0.05   0.04    -0.06   0.08  -0.18
   5   6     0.08  -0.21   0.09     0.12   0.13  -0.09    -0.09   0.04   0.08
   6   6    -0.01   0.13  -0.07     0.17  -0.11   0.04    -0.10  -0.18   0.04
   7   6     0.01   0.01   0.01     0.09   0.11   0.05    -0.13   0.08  -0.09
   8   6     0.04  -0.16   0.06     0.06   0.06  -0.14    -0.09   0.07   0.05
   9   6    -0.03   0.15  -0.06    -0.02  -0.07   0.12     0.05  -0.13  -0.01
  10   1    -0.03  -0.02   0.00    -0.01  -0.01   0.00    -0.00  -0.01   0.01
  11   1    -0.05   0.07  -0.12    -0.02   0.02  -0.05    -0.01   0.03  -0.03
  12   1    -0.01  -0.04   0.10     0.00  -0.01   0.03    -0.01   0.01   0.01
  13   1    -0.11   0.35  -0.19    -0.10   0.25  -0.08    -0.06   0.14  -0.02
  14   1     0.14  -0.28   0.22     0.08  -0.14   0.10     0.06  -0.12   0.08
  15   1    -0.18   0.15   0.12    -0.07   0.06   0.06    -0.25   0.15   0.16
  16   1     0.02  -0.08  -0.01     0.07  -0.14  -0.03     0.18  -0.14  -0.13
  17   1     0.15   0.05   0.07    -0.35  -0.08   0.01    -0.04  -0.01   0.04
  18   1    -0.18  -0.10  -0.07     0.10   0.02   0.01     0.11  -0.03  -0.09
  19   1    -0.08  -0.03  -0.13    -0.27  -0.05   0.08    -0.07  -0.00   0.02
  20   1    -0.04   0.09   0.10    -0.20  -0.08  -0.06     0.39   0.08   0.01
  21   1    -0.17  -0.02   0.08    -0.24  -0.06  -0.09     0.20   0.02  -0.08
  22   1     0.10  -0.04  -0.06    -0.27  -0.00   0.05     0.23   0.10   0.06
  23   1    -0.20  -0.04   0.00    -0.05   0.00   0.05     0.29   0.06   0.06
  24   1     0.15   0.03   0.00    -0.35  -0.08  -0.01     0.13  -0.03  -0.06
  25   1    -0.16  -0.05  -0.10     0.05   0.01   0.03     0.33   0.08   0.04
  26   1     0.13   0.09   0.07    -0.21  -0.08  -0.06    -0.13  -0.04  -0.00
  27   1     0.11   0.03   0.10    -0.02   0.00  -0.07    -0.11  -0.04  -0.06
  28   1    -0.09  -0.10  -0.07     0.11   0.06   0.05     0.02   0.07   0.05
  29   1     0.00  -0.07   0.02    -0.06   0.01  -0.07     0.04   0.07   0.03
                     40                     41                     42
                        a                      a                      a 
 Frequencies --  1276.0501              1284.5512              1292.0498
 Red. masses --     1.6346                 2.3427                 2.0244
 Frc consts  --     0.0000                 0.0000                 0.0000
 IR Inten    --     6.1845                 1.5277                 0.7949
 Raman Activ --     0.0000                 0.0000                 0.0000
 Depolar     --     0.0000                 0.0000                 0.0000
 Atom AN      X      Y      Z        X      Y      Z        X      Y      Z
   1   7    -0.02  -0.00   0.01     0.01   0.00   0.00    -0.00  -0.00   0.00
   2   6    -0.00  -0.03  -0.04     0.03   0.01   0.02     0.01  -0.01  -0.01
   3   6    -0.00   0.07  -0.01    -0.04  -0.06   0.03    -0.01   0.02   0.01
   4   6    -0.01   0.10   0.01     0.03  -0.05  -0.03    -0.03   0.09  -0.05
   5   6     0.01  -0.06  -0.02    -0.03   0.21  -0.06    -0.04   0.01  -0.03
   6   6     0.07   0.01   0.03    -0.04   0.06  -0.05     0.05  -0.16   0.10
   7   6     0.05   0.09  -0.02    -0.01  -0.18   0.08     0.07  -0.12   0.06
   8   6     0.06  -0.08  -0.00    -0.02  -0.06   0.05     0.02   0.08  -0.06
   9   6    -0.00  -0.06   0.07    -0.01   0.06  -0.05    -0.02   0.08  -0.02
  10   1     0.00   0.01  -0.01    -0.00  -0.00   0.00     0.00   0.00  -0.01
  11   1     0.01  -0.01   0.01    -0.01   0.00  -0.01     0.00   0.00   0.00
  12   1     0.00   0.00  -0.01     0.00   0.00  -0.00    -0.00   0.00  -0.00
  13   1     0.03  -0.08   0.02    -0.05   0.10  -0.01     0.00  -0.02   0.01
  14   1    -0.01   0.06  -0.02     0.02  -0.03   0.02     0.01   0.02   0.01
  15   1     0.10  -0.04  -0.06    -0.07   0.03   0.05     0.00   0.01   0.00
  16   1    -0.08   0.08   0.04     0.10  -0.10  -0.06     0.00   0.02  -0.02
  17   1     0.26   0.08   0.04    -0.28  -0.07  -0.02     0.18   0.05   0.05
  18   1    -0.24  -0.08  -0.03     0.21   0.06   0.01    -0.12  -0.06  -0.05
  19   1    -0.35  -0.07  -0.03    -0.00   0.02   0.12    -0.35  -0.06   0.01
  20   1     0.27   0.07   0.01     0.01  -0.06  -0.08     0.42   0.07  -0.02
  21   1     0.09   0.02  -0.01     0.50   0.11   0.03     0.15   0.01  -0.09
  22   1    -0.29  -0.05   0.01    -0.41  -0.10  -0.04    -0.21   0.02   0.08
  23   1    -0.41  -0.07   0.05    -0.21  -0.06  -0.10     0.22   0.03  -0.07
  24   1     0.19   0.01  -0.03     0.33   0.13   0.08    -0.36  -0.03   0.06
  25   1     0.27   0.04  -0.05    -0.07  -0.02  -0.03    -0.39  -0.07   0.05
  26   1    -0.39  -0.05   0.03     0.15   0.05   0.03     0.30   0.02  -0.04
  27   1    -0.04  -0.01  -0.05     0.04   0.01   0.05     0.06   0.02   0.04
  28   1     0.07   0.04   0.04    -0.05  -0.04  -0.03    -0.04  -0.04  -0.03
  29   1    -0.03  -0.01  -0.03     0.02  -0.02   0.03    -0.01  -0.02  -0.01
                     43                     44                     45
                        a                      a                      a 
 Frequencies --  1310.0719              1321.4581              1353.4513
 Red. masses --     3.4732                 3.5848                 4.3627
 Frc consts  --     0.0000                 0.0000                 0.0000
 IR Inten    --     0.6529                10.7420                 2.9026
 Raman Activ --     0.0000                 0.0000                 0.0000
 Depolar     --     0.0000                 0.0000                 0.0000
 Atom AN      X      Y      Z        X      Y      Z        X      Y      Z
   1   7     0.02  -0.00  -0.07     0.03  -0.01  -0.16     0.01  -0.04  -0.04
   2   6    -0.06   0.14   0.00    -0.12   0.34  -0.09    -0.15   0.13   0.01
   3   6     0.03  -0.01   0.10    -0.13   0.03   0.13     0.35  -0.27  -0.18
   4   6    -0.20  -0.08  -0.08     0.07   0.01   0.01     0.07   0.13   0.04
   5   6    -0.17  -0.03  -0.04     0.07   0.02   0.01    -0.02   0.02  -0.01
   6   6    -0.02   0.07   0.09     0.04  -0.02  -0.04    -0.04  -0.01   0.01
   7   6     0.18   0.01  -0.05    -0.07  -0.01   0.03    -0.00  -0.01  -0.01
   8   6     0.19   0.00  -0.05    -0.10  -0.00   0.01     0.06   0.01   0.00
   9   6    -0.04   0.03   0.08     0.02  -0.02  -0.03    -0.01   0.01   0.02
  10   1     0.00  -0.03   0.07     0.01  -0.06   0.16     0.00  -0.01   0.01
  11   1     0.01   0.01   0.01     0.06   0.01   0.05    -0.00   0.04   0.00
  12   1    -0.02  -0.01   0.02    -0.05  -0.05   0.07    -0.04   0.02   0.01
  13   1     0.07  -0.13   0.05     0.16  -0.37   0.14     0.11  -0.25   0.06
  14   1     0.07  -0.23   0.08     0.20  -0.54   0.21     0.02  -0.04   0.07
  15   1    -0.10   0.01   0.05     0.15  -0.16  -0.10    -0.32   0.18   0.17
  16   1     0.13  -0.05  -0.09     0.05  -0.04  -0.03    -0.43   0.32   0.28
  17   1     0.17   0.03   0.00    -0.01   0.00  -0.01    -0.23  -0.04   0.07
  18   1     0.36   0.08  -0.01    -0.05  -0.02  -0.01     0.01  -0.01  -0.01
  19   1     0.36   0.07  -0.01    -0.15  -0.03  -0.00    -0.05  -0.00  -0.01
  20   1     0.22   0.03  -0.02    -0.10  -0.02   0.00     0.01  -0.02  -0.02
  21   1    -0.00   0.02   0.03    -0.04  -0.01  -0.01     0.08   0.02  -0.00
  22   1     0.01  -0.01   0.01    -0.06  -0.01  -0.01     0.03   0.01   0.01
  23   1    -0.31  -0.06   0.00     0.11   0.02  -0.01     0.00  -0.00  -0.00
  24   1    -0.24  -0.04  -0.00     0.09   0.02   0.01     0.01   0.00   0.00
  25   1    -0.22  -0.05  -0.02     0.11   0.02   0.01    -0.07  -0.01  -0.00
  26   1    -0.26  -0.05  -0.01     0.13   0.02  -0.00    -0.06  -0.02  -0.00
  27   1     0.02   0.02  -0.03    -0.01  -0.01   0.01    -0.01   0.00  -0.01
  28   1     0.03  -0.02  -0.00    -0.01   0.02   0.01    -0.00  -0.01  -0.00
  29   1    -0.07  -0.05  -0.07     0.03   0.02   0.03    -0.01  -0.01  -0.02
                     46                     47                     48
                        a                      a                      a 
 Frequencies --  1355.1402              1379.6182              1383.9238
 Red. masses --     4.2602                 4.8909                 5.3302
 Frc consts  --     0.0000                 0.0000                 0.0000
 IR Inten    --     1.5493                 0.5119                 0.9396
 Raman Activ --     0.0000                 0.0000                 0.0000
 Depolar     --     0.0000                 0.0000                 0.0000
 Atom AN      X      Y      Z        X      Y      Z        X      Y      Z
   1   7     0.00   0.01  -0.02    -0.01   0.01   0.01     0.00  -0.00   0.00
   2   6     0.03   0.01  -0.03    -0.00  -0.01  -0.00    -0.00   0.01  -0.00
   3   6    -0.17   0.05   0.02     0.07   0.02   0.01     0.01   0.00  -0.01
   4   6     0.32   0.04   0.00    -0.32  -0.06   0.02    -0.01   0.00   0.00
   5   6    -0.03   0.02   0.08     0.39   0.07  -0.02     0.13   0.03   0.02
   6   6    -0.25  -0.05  -0.01    -0.18  -0.07  -0.04    -0.32  -0.06   0.01
   7   6     0.01  -0.03  -0.07    -0.09  -0.03  -0.02     0.41   0.07  -0.01
   8   6     0.27   0.06   0.00     0.18   0.04   0.02    -0.30  -0.07  -0.03
   9   6    -0.04   0.03   0.07    -0.02   0.01   0.04     0.04  -0.01  -0.03
  10   1    -0.00  -0.01   0.02    -0.00  -0.00   0.01    -0.00  -0.00   0.00
  11   1     0.02  -0.01   0.03    -0.01  -0.02  -0.02    -0.01  -0.01  -0.01
  12   1    -0.01  -0.02   0.03     0.02   0.00  -0.03     0.01   0.01  -0.01
  13   1    -0.02   0.03  -0.00    -0.00  -0.03   0.03     0.00  -0.02   0.01
  14   1     0.02  -0.07   0.01     0.01   0.05   0.02     0.01   0.00   0.01
  15   1     0.16  -0.09  -0.09    -0.05   0.01   0.02    -0.00  -0.01  -0.00
  16   1     0.03  -0.07  -0.01     0.04  -0.01  -0.02    -0.01  -0.00   0.01
  17   1    -0.29  -0.07  -0.04     0.29   0.07   0.02    -0.01   0.00  -0.00
  18   1    -0.36  -0.09   0.00     0.28   0.06   0.00    -0.01  -0.01  -0.00
  19   1     0.02   0.01  -0.01    -0.39  -0.08   0.03    -0.11  -0.01   0.00
  20   1     0.01  -0.01   0.01    -0.36  -0.04   0.01    -0.10  -0.02   0.01
  21   1     0.30   0.06   0.02     0.18   0.02   0.01     0.28   0.06   0.01
  22   1     0.32   0.07   0.01     0.16   0.06   0.01     0.27   0.06   0.01
  23   1    -0.00  -0.01   0.01     0.12   0.02   0.00    -0.36  -0.07   0.02
  24   1    -0.01   0.01  -0.01     0.11   0.03  -0.00    -0.37  -0.05   0.01
  25   1    -0.31  -0.06  -0.01    -0.19  -0.03  -0.01     0.26   0.04   0.02
  26   1    -0.31  -0.07  -0.01    -0.19  -0.04  -0.00     0.25   0.07   0.00
  27   1    -0.01   0.01  -0.04    -0.02   0.01  -0.03     0.01  -0.01   0.04
  28   1    -0.00  -0.04  -0.01    -0.01  -0.03  -0.01    -0.00   0.04   0.02
  29   1    -0.07  -0.05  -0.08    -0.04  -0.03  -0.05     0.04   0.03   0.04
                     49                     50                     51
                        a                      a                      a 
 Frequencies --  1389.4099              1434.1339              1438.7407
 Red. masses --     3.0002                 1.6622                 3.1990
 Frc consts  --     0.0000                 0.0000                 0.0000
 IR Inten    --   202.3355                76.0801                 2.7370
 Raman Activ --     0.0000                 0.0000                 0.0000
 Depolar     --     0.0000                 0.0000                 0.0000
 Atom AN      X      Y      Z        X      Y      Z        X      Y      Z
   1   7    -0.07   0.25  -0.28    -0.17  -0.10  -0.09     0.02  -0.01  -0.02
   2   6     0.02  -0.09   0.01    -0.01  -0.04  -0.02     0.00  -0.01  -0.00
   3   6     0.04  -0.01  -0.05     0.01   0.01  -0.00    -0.00  -0.00   0.00
   4   6    -0.01   0.01   0.02    -0.01  -0.01  -0.01    -0.00  -0.00   0.00
   5   6    -0.00  -0.01  -0.01     0.01   0.00  -0.01     0.01   0.00  -0.00
   6   6     0.00   0.00   0.00    -0.01  -0.00   0.00    -0.02  -0.00   0.01
   7   6     0.01   0.00   0.00     0.00   0.00  -0.00    -0.01  -0.01  -0.02
   8   6    -0.01  -0.00  -0.00    -0.00   0.00  -0.00     0.09   0.02   0.00
   9   6     0.00  -0.00  -0.00    -0.00  -0.00  -0.00    -0.35  -0.16  -0.20
  10   1    -0.04  -0.16   0.54     0.62   0.28  -0.04    -0.05  -0.01  -0.04
  11   1     0.27  -0.36   0.25     0.03   0.51   0.23     0.04   0.03   0.06
  12   1     0.02  -0.37   0.27     0.06  -0.36   0.19    -0.08   0.04   0.06
  13   1    -0.08   0.10   0.01    -0.03   0.04  -0.02    -0.01   0.00   0.00
  14   1    -0.02   0.16   0.00     0.01   0.02   0.02     0.00   0.01  -0.00
  15   1    -0.06   0.03   0.02    -0.01  -0.02  -0.01     0.01   0.00   0.00
  16   1    -0.03  -0.00   0.03    -0.00  -0.01   0.02    -0.00   0.01  -0.00
  17   1     0.00   0.01  -0.02     0.01  -0.01   0.03     0.00   0.00   0.00
  18   1     0.01  -0.02  -0.01     0.01   0.03   0.02     0.01   0.00   0.00
  19   1    -0.00  -0.00   0.01    -0.01  -0.00   0.01    -0.01  -0.00   0.00
  20   1     0.01   0.01   0.00    -0.01   0.01   0.01    -0.01   0.00   0.00
  21   1    -0.00  -0.00   0.00     0.01   0.00  -0.00     0.02   0.00   0.00
  22   1    -0.01  -0.00   0.00     0.01  -0.00  -0.00     0.02   0.01   0.00
  23   1    -0.01  -0.00  -0.00    -0.00  -0.00   0.00    -0.00  -0.00  -0.01
  24   1    -0.00  -0.00  -0.00    -0.00   0.00   0.00    -0.00  -0.01  -0.01
  25   1     0.01   0.00   0.00     0.00   0.00   0.00    -0.08  -0.02   0.04
  26   1     0.01   0.00   0.00     0.00   0.00  -0.00    -0.08   0.02   0.02
  27   1     0.00  -0.00   0.00     0.00  -0.00   0.00     0.46   0.02   0.20
  28   1    -0.00   0.00   0.00     0.01   0.00   0.00     0.42   0.28   0.07
  29   1     0.00   0.00   0.00     0.00   0.00   0.01     0.23   0.23   0.39
                     52                     53                     54
                        a                      a                      a 
 Frequencies --  1439.0830              1480.6150              1488.4383
 Red. masses --     1.6720                 1.8359                 1.9240
 Frc consts  --     0.0000                 0.0000                 0.0000
 IR Inten    --    77.8002                19.8145                14.6822
 Raman Activ --     0.0000                 0.0000                 0.0000
 Depolar     --     0.0000                 0.0000                 0.0000
 Atom AN      X      Y      Z        X      Y      Z        X      Y      Z
   1   7    -0.13   0.10   0.13    -0.00   0.01   0.00    -0.02   0.02  -0.01
   2   6    -0.03   0.06   0.03    -0.02   0.09   0.25    -0.02   0.00   0.06
   3   6     0.02  -0.00  -0.01     0.02   0.04  -0.02    -0.12  -0.24   0.07
   4   6     0.02   0.01   0.00    -0.00   0.01   0.01    -0.00  -0.00   0.01
   5   6    -0.02  -0.00   0.01     0.01   0.01  -0.00     0.02   0.01   0.00
   6   6     0.01   0.00   0.00    -0.00  -0.01  -0.00    -0.01  -0.01  -0.01
   7   6    -0.00  -0.00  -0.00    -0.00   0.00   0.00     0.00   0.00   0.00
   8   6     0.01   0.00   0.00     0.00   0.00   0.00     0.00  -0.00  -0.00
   9   6    -0.05  -0.02  -0.03    -0.00  -0.00  -0.00     0.00  -0.00  -0.00
  10   1     0.27   0.07   0.25    -0.01  -0.01   0.03     0.04   0.01   0.04
  11   1    -0.25  -0.22  -0.40     0.04  -0.01   0.06     0.00  -0.01  -0.00
  12   1     0.52  -0.24  -0.42    -0.02  -0.03   0.06     0.04  -0.05   0.00
  13   1     0.04  -0.03  -0.01     0.41   0.02  -0.50     0.09  -0.00  -0.11
  14   1     0.00  -0.06   0.01    -0.34  -0.28  -0.50    -0.07  -0.07  -0.09
  15   1    -0.04  -0.03  -0.01    -0.10  -0.08  -0.04     0.44   0.43   0.22
  16   1    -0.00  -0.04   0.03     0.00  -0.11   0.10     0.01   0.47  -0.47
  17   1    -0.02  -0.00  -0.01     0.00   0.01  -0.02    -0.01   0.00  -0.03
  18   1    -0.03  -0.01  -0.01     0.01  -0.02  -0.02     0.02  -0.02  -0.02
  19   1     0.01   0.01  -0.02    -0.06  -0.01   0.01    -0.01  -0.00   0.01
  20   1     0.02  -0.01  -0.01    -0.00   0.00  -0.00    -0.03  -0.00   0.00
  21   1    -0.00  -0.00   0.00     0.02   0.00  -0.00     0.01  -0.00   0.02
  22   1    -0.00   0.00   0.00    -0.00   0.01   0.00     0.00   0.02   0.01
  23   1     0.00   0.00  -0.00     0.00   0.00  -0.00    -0.00   0.00  -0.00
  24   1     0.00  -0.00  -0.00     0.00  -0.00  -0.00    -0.00  -0.00  -0.00
  25   1    -0.01  -0.00   0.00    -0.00  -0.00  -0.00    -0.00  -0.00   0.00
  26   1    -0.01   0.00   0.00    -0.00  -0.00  -0.00    -0.00   0.00   0.00
  27   1     0.07   0.00   0.03     0.00   0.00   0.00     0.00  -0.00   0.00
  28   1     0.06   0.04   0.01     0.00   0.00   0.00    -0.00   0.00   0.00
  29   1     0.03   0.03   0.06    -0.00   0.00  -0.00    -0.00   0.00  -0.00
                     55                     56                     57
                        a                      a                      a 
 Frequencies --  1509.9670              1511.9058              1515.0092
 Red. masses --     1.5262                 1.5781                 1.8445
 Frc consts  --     0.0000                 0.0000                 0.0000
 IR Inten    --     4.4652                 1.8019                 2.9028
 Raman Activ --     0.0000                 0.0000                 0.0000
 Depolar     --     0.0000                 0.0000                 0.0000
 Atom AN      X      Y      Z        X      Y      Z        X      Y      Z
   1   7    -0.00  -0.00  -0.00     0.00   0.00  -0.00    -0.00  -0.01   0.00
   2   6     0.00   0.00  -0.00     0.00   0.00   0.00    -0.00  -0.00  -0.01
   3   6     0.00  -0.00  -0.00    -0.00  -0.00  -0.00     0.01   0.01   0.01
   4   6     0.00  -0.00  -0.00     0.00  -0.01  -0.04    -0.00   0.07   0.18
   5   6     0.00  -0.00  -0.00     0.01   0.00   0.00    -0.02  -0.06  -0.13
   6   6    -0.00   0.01   0.00    -0.01   0.03   0.07    -0.00  -0.03  -0.07
   7   6     0.00   0.00  -0.01     0.01  -0.03  -0.06     0.01   0.04   0.08
   8   6     0.00  -0.04   0.01    -0.05  -0.03  -0.05    -0.01  -0.01  -0.01
   9   6     0.03  -0.18   0.10    -0.10   0.07   0.14    -0.03   0.02   0.04
  10   1     0.00   0.00   0.00    -0.00  -0.00   0.00     0.02   0.01  -0.02
  11   1     0.00   0.00   0.00     0.00  -0.01  -0.00    -0.01   0.03  -0.01
  12   1     0.00  -0.00  -0.00     0.00  -0.00  -0.00     0.00   0.00  -0.01
  13   1     0.00  -0.00   0.00     0.00   0.00  -0.00    -0.01  -0.01   0.02
  14   1     0.00  -0.00  -0.00    -0.00  -0.00  -0.01     0.01   0.01   0.02
  15   1    -0.00  -0.00   0.00     0.01   0.00   0.00    -0.03  -0.01  -0.00
  16   1    -0.00   0.00  -0.00     0.00   0.00  -0.01    -0.01  -0.01   0.02
  17   1     0.00  -0.00   0.01     0.01  -0.02   0.09    -0.04   0.12  -0.46
  18   1    -0.00   0.01   0.00    -0.02   0.07   0.05     0.11  -0.39  -0.24
  19   1    -0.00  -0.00   0.01    -0.01  -0.00  -0.00     0.04  -0.07   0.32
  20   1    -0.00   0.01   0.00    -0.01  -0.00   0.00    -0.04   0.29   0.16
  21   1     0.00   0.00  -0.01    -0.00   0.04  -0.17     0.01  -0.04   0.18
  22   1     0.00  -0.01  -0.01     0.04  -0.15  -0.08    -0.03   0.16   0.09
  23   1    -0.02  -0.01   0.01     0.01  -0.03   0.14    -0.02   0.05  -0.23
  24   1     0.02   0.01   0.00    -0.02   0.12   0.06     0.03  -0.20  -0.11
  25   1    -0.01  -0.01   0.00     0.04  -0.03   0.19     0.01  -0.01   0.06
  26   1     0.01   0.03   0.03    -0.00   0.17   0.09    -0.01   0.06   0.03
  27   1     0.44   0.10  -0.22     0.04   0.12  -0.54     0.01   0.03  -0.15
  28   1    -0.43   0.00   0.08     0.24  -0.48  -0.28     0.06  -0.13  -0.08
  29   1    -0.11   0.65  -0.28     0.14   0.07   0.24     0.03   0.03   0.06
                     58                     59                     60
                        a                      a                      a 
 Frequencies --  1516.4096              1520.8160              1521.9398
 Red. masses --     1.9275                 1.8658                 1.9240
 Frc consts  --     0.0000                 0.0000                 0.0000
 IR Inten    --     0.1662                 1.8884                 0.1907
 Raman Activ --     0.0000                 0.0000                 0.0000
 Depolar     --     0.0000                 0.0000                 0.0000
 Atom AN      X      Y      Z        X      Y      Z        X      Y      Z
   1   7    -0.00  -0.01  -0.00     0.00   0.01  -0.00    -0.00  -0.00  -0.00
   2   6    -0.00  -0.01  -0.01     0.00   0.01   0.00    -0.00  -0.01  -0.00
   3   6     0.01   0.01   0.00    -0.01  -0.01  -0.01     0.00   0.00   0.00
   4   6    -0.03   0.03   0.10     0.02  -0.05  -0.15    -0.02   0.01   0.05
   5   6    -0.02   0.07   0.15    -0.00  -0.01  -0.03     0.00   0.08   0.16
   6   6     0.04  -0.06  -0.14     0.00  -0.06  -0.14    -0.01   0.02   0.05
   7   6     0.02  -0.04  -0.09     0.01   0.06   0.13    -0.02   0.06   0.13
   8   6    -0.03   0.03   0.07    -0.01   0.02   0.05     0.03  -0.06  -0.14
   9   6    -0.03   0.01   0.03    -0.03   0.02   0.04     0.02  -0.00  -0.00
  10   1     0.01   0.01  -0.01    -0.01  -0.01   0.01     0.01   0.00  -0.01
  11   1     0.00   0.02   0.01     0.01  -0.03   0.00     0.01   0.01   0.01
  12   1    -0.01  -0.00   0.01     0.00   0.00  -0.00    -0.01  -0.00   0.01
  13   1    -0.01   0.01   0.00     0.01   0.00  -0.01    -0.01   0.01  -0.00
  14   1     0.00   0.01   0.01    -0.00  -0.01  -0.01     0.00   0.01   0.00
  15   1    -0.01  -0.01  -0.00     0.01   0.00  -0.00     0.00  -0.00  -0.00
  16   1     0.00  -0.01   0.01     0.00  -0.00  -0.01     0.00  -0.00   0.00
  17   1     0.00   0.07  -0.21     0.02  -0.10   0.37     0.01   0.03  -0.10
  18   1     0.07  -0.18  -0.11    -0.10   0.32   0.19     0.04  -0.09  -0.05
  19   1    -0.02   0.09  -0.39     0.01  -0.01   0.03    -0.04   0.09  -0.39
  20   1     0.07  -0.35  -0.20     0.01   0.03   0.01     0.05  -0.36  -0.20
  21   1    -0.00  -0.09   0.36     0.02  -0.08   0.38     0.00   0.02  -0.08
  22   1    -0.09   0.32   0.17    -0.07   0.34   0.18     0.02  -0.08  -0.04
  23   1     0.01  -0.05   0.23    -0.03   0.07  -0.34    -0.02   0.08  -0.36
  24   1    -0.04   0.20   0.11     0.04  -0.31  -0.17     0.06  -0.32  -0.18
  25   1     0.01   0.04  -0.17     0.00   0.02  -0.08     0.00  -0.08   0.36
  26   1     0.04  -0.15  -0.08     0.02  -0.07  -0.04    -0.08   0.31   0.17
  27   1     0.03   0.03  -0.13     0.02   0.03  -0.15    -0.02  -0.01   0.02
  28   1     0.05  -0.10  -0.06     0.06  -0.13  -0.08    -0.03   0.02   0.01
  29   1     0.03   0.04   0.06     0.04   0.03   0.06    -0.02  -0.01  -0.03
                     61                     62                     63
                        a                      a                      a 
 Frequencies --  1525.7139              2912.3832              2917.8343
 Red. masses --     2.0345                 1.8927                 1.8686
 Frc consts  --     0.0000                 0.0000                 0.0000
 IR Inten    --     0.7443                 9.4076                 9.4293
 Raman Activ --     0.0000                 0.0000                 0.0000
 Depolar     --     0.0000                 0.0000                 0.0000
 Atom AN      X      Y      Z        X      Y      Z        X      Y      Z
   1   7     0.00   0.00   0.00     0.00   0.00   0.00    -0.00  -0.00   0.00
   2   6     0.00   0.00   0.00    -0.00   0.00   0.00     0.00   0.00  -0.00
   3   6    -0.00  -0.00  -0.00    -0.00   0.00  -0.00    -0.01   0.00  -0.02
   4   6     0.01  -0.01  -0.04    -0.00   0.01  -0.00     0.03  -0.12   0.07
   5   6    -0.01  -0.03  -0.05     0.00  -0.01   0.00    -0.03   0.18  -0.06
   6   6     0.03  -0.05  -0.12    -0.01   0.03  -0.02     0.02  -0.12   0.06
   7   6    -0.01  -0.06  -0.11     0.02  -0.12   0.05    -0.00   0.02  -0.01
   8   6     0.02  -0.09  -0.20    -0.04   0.22  -0.11    -0.01   0.05  -0.03
   9   6     0.04  -0.01  -0.03     0.00  -0.01   0.01     0.00  -0.00   0.00
  10   1    -0.00  -0.00   0.00     0.00  -0.00   0.00     0.00   0.00  -0.00
  11   1     0.00  -0.01  -0.00     0.00   0.00   0.00     0.01   0.00  -0.00
  12   1     0.00   0.00  -0.00    -0.00  -0.00  -0.00     0.00   0.00   0.00
  13   1     0.00  -0.00   0.00    -0.00  -0.00   0.00     0.00  -0.00  -0.00
  14   1    -0.00  -0.00  -0.00     0.00  -0.00  -0.00    -0.01  -0.00   0.01
  15   1    -0.00  -0.00  -0.00     0.00  -0.00   0.00     0.01  -0.03   0.06
  16   1    -0.00  -0.00   0.00     0.01   0.00   0.00     0.02   0.01   0.01
  17   1     0.00  -0.03   0.09     0.00  -0.02  -0.01    -0.06   0.28   0.09
  18   1    -0.03   0.08   0.05     0.00  -0.01   0.02    -0.04   0.19  -0.34
  19   1     0.02  -0.03   0.11    -0.01   0.04   0.01     0.09  -0.49  -0.12
  20   1    -0.01   0.11   0.06    -0.00   0.01  -0.03     0.03  -0.16   0.34
  21   1    -0.00  -0.07   0.30     0.02  -0.09  -0.03    -0.06   0.29   0.08
  22   1    -0.07   0.26   0.14     0.01  -0.04   0.09    -0.03   0.15  -0.30
  23   1     0.03  -0.06   0.26    -0.06   0.33   0.08     0.01  -0.06  -0.02
  24   1    -0.03   0.24   0.12    -0.03   0.14  -0.29     0.01  -0.03   0.07
  25   1     0.01  -0.11   0.48     0.10  -0.54  -0.13     0.02  -0.12  -0.03
  26   1    -0.10   0.43   0.23     0.05  -0.26   0.53     0.01  -0.07   0.13
  27   1    -0.04  -0.03   0.12    -0.01   0.05   0.01    -0.00   0.01   0.00
  28   1    -0.06   0.10   0.06    -0.01   0.02  -0.05    -0.00   0.01  -0.01
  29   1    -0.04  -0.04  -0.06     0.00  -0.00   0.00    -0.00  -0.00   0.00
                     64                     65                     66
                        a                      a                      a 
 Frequencies --  2921.9834              2929.1425              2935.0383
 Red. masses --     1.9304                 1.9694                 1.9252
 Frc consts  --     0.0000                 0.0000                 0.0000
 IR Inten    --    12.3080                 0.0227                21.2320
 Raman Activ --     0.0000                 0.0000                 0.0000
 Depolar     --     0.0000                 0.0000                 0.0000
 Atom AN      X      Y      Z        X      Y      Z        X      Y      Z
   1   7    -0.00  -0.00   0.00     0.00   0.00  -0.00    -0.00   0.00   0.00
   2   6     0.00   0.00  -0.00    -0.01  -0.01  -0.00     0.04   0.02   0.00
   3   6    -0.01   0.00  -0.03     0.04  -0.00   0.07    -0.16  -0.03  -0.21
   4   6     0.03  -0.13   0.08    -0.03   0.12  -0.08    -0.02   0.06  -0.01
   5   6    -0.01   0.04  -0.01    -0.03   0.13  -0.04     0.00  -0.00   0.01
   6   6    -0.03   0.15  -0.09     0.01  -0.04   0.02     0.01  -0.05   0.03
   7   6     0.02  -0.11   0.05     0.03  -0.16   0.06     0.01  -0.05   0.02
   8   6     0.02  -0.08   0.05     0.01  -0.07   0.04     0.00  -0.02   0.01
   9   6    -0.00   0.01  -0.00    -0.00   0.01  -0.00    -0.00   0.00  -0.00
  10   1     0.00  -0.00  -0.00    -0.00   0.00   0.00     0.00  -0.00  -0.00
  11   1     0.01   0.00  -0.00    -0.01  -0.00   0.01     0.00  -0.00  -0.00
  12   1     0.00   0.00   0.00    -0.00  -0.00  -0.00     0.00   0.00   0.00
  13   1    -0.01  -0.00  -0.00     0.03   0.02   0.02    -0.10  -0.07  -0.08
  14   1    -0.00  -0.00   0.00     0.02   0.00  -0.01    -0.05  -0.00   0.04
  15   1     0.01  -0.06   0.09    -0.02   0.10  -0.16     0.04  -0.25   0.36
  16   1     0.04   0.03   0.03    -0.12  -0.09  -0.09     0.53   0.38   0.40
  17   1    -0.06   0.27   0.09     0.05  -0.21  -0.07     0.05  -0.19  -0.05
  18   1    -0.05   0.22  -0.38     0.05  -0.22   0.38     0.01  -0.02   0.05
  19   1     0.02  -0.12  -0.03     0.07  -0.37  -0.09     0.00  -0.01  -0.00
  20   1     0.01  -0.03   0.06     0.02  -0.11   0.22    -0.00   0.02  -0.03
  21   1     0.07  -0.34  -0.09    -0.02   0.08   0.02    -0.02   0.11   0.03
  22   1     0.04  -0.21   0.40    -0.01   0.06  -0.11    -0.01   0.07  -0.13
  23   1    -0.05   0.30   0.07    -0.08   0.41   0.10    -0.03   0.14   0.03
  24   1    -0.03   0.12  -0.25    -0.03   0.15  -0.30    -0.01   0.05  -0.10
  25   1    -0.03   0.19   0.05    -0.03   0.16   0.04    -0.01   0.05   0.01
  26   1    -0.02   0.10  -0.21    -0.02   0.09  -0.18    -0.01   0.03  -0.06
  27   1     0.00  -0.03  -0.01     0.01  -0.03  -0.01     0.00  -0.01  -0.00
  28   1     0.00  -0.01   0.02     0.00  -0.01   0.03     0.00  -0.00   0.01
  29   1    -0.00   0.00  -0.00    -0.00   0.00  -0.00     0.00   0.00  -0.00
                     67                     68                     69
                        a                      a                      a 
 Frequencies --  2940.1484              2946.3848              2951.6518
 Red. masses --     1.9915                 1.4867                 1.8803
 Frc consts  --     0.0000                 0.0000                 0.0000
 IR Inten    --   176.1332                11.2506                 0.5945
 Raman Activ --     0.0000                 0.0000                 0.0000
 Depolar     --     0.0000                 0.0000                 0.0000
 Atom AN      X      Y      Z        X      Y      Z        X      Y      Z
   1   7    -0.00  -0.00   0.00     0.00  -0.00  -0.00    -0.00   0.00  -0.00
   2   6    -0.00  -0.00  -0.00     0.01   0.00  -0.00     0.25   0.07  -0.07
   3   6     0.03   0.02   0.03    -0.00  -0.00  -0.00     0.01  -0.05   0.07
   4   6     0.02  -0.09   0.05    -0.00   0.01  -0.00    -0.00   0.01   0.03
   5   6     0.03  -0.15   0.03    -0.00   0.01  -0.02     0.00  -0.00  -0.03
   6   6     0.03  -0.14   0.09    -0.01   0.03   0.03    -0.00   0.01   0.00
   7   6     0.02  -0.12   0.05    -0.00   0.02   0.05    -0.00   0.00   0.00
   8   6     0.01  -0.05   0.02     0.02  -0.09  -0.17    -0.00   0.01   0.01
   9   6    -0.00   0.01  -0.00    -0.01   0.01   0.02     0.00  -0.00  -0.00
  10   1    -0.00   0.00  -0.00    -0.00   0.00   0.00    -0.00  -0.00  -0.00
  11   1     0.00   0.00  -0.01     0.00  -0.00  -0.00     0.02   0.00  -0.01
  12   1    -0.00   0.00   0.00     0.00   0.00   0.00     0.01   0.01   0.01
  13   1     0.01   0.01   0.01    -0.01  -0.01  -0.01    -0.23  -0.18  -0.22
  14   1     0.00  -0.00  -0.00    -0.02  -0.00   0.01    -0.65  -0.07   0.46
  15   1     0.00   0.01  -0.01    -0.00   0.00  -0.00    -0.05   0.16  -0.27
  16   1    -0.13  -0.09  -0.10     0.01   0.01   0.01     0.03   0.01   0.03
  17   1    -0.04   0.18   0.06     0.01  -0.02  -0.01     0.02  -0.08  -0.02
  18   1    -0.03   0.13  -0.22     0.00  -0.01   0.01    -0.01   0.05  -0.07
  19   1    -0.08   0.45   0.10    -0.00   0.02   0.00    -0.01   0.08   0.01
  20   1    -0.02   0.09  -0.19     0.01  -0.05   0.08     0.01  -0.07   0.11
  21   1    -0.05   0.28   0.07     0.03  -0.14  -0.03     0.01  -0.03  -0.01
  22   1    -0.04   0.21  -0.41    -0.01   0.04  -0.06    -0.00   0.01  -0.01
  23   1    -0.06   0.30   0.07     0.04  -0.19  -0.03     0.00  -0.00  -0.00
  24   1    -0.03   0.13  -0.25    -0.02   0.11  -0.18     0.00   0.00  -0.00
  25   1    -0.03   0.13   0.03    -0.12   0.64   0.10     0.01  -0.04  -0.01
  26   1    -0.01   0.04  -0.09     0.06  -0.32   0.53    -0.00   0.01  -0.02
  27   1     0.01  -0.04  -0.01     0.01  -0.05  -0.01    -0.00   0.00  -0.00
  28   1     0.00  -0.01   0.02    -0.01   0.02  -0.04     0.00  -0.00   0.01
  29   1     0.00   0.00  -0.00     0.05  -0.00  -0.03    -0.01   0.00   0.00
                     70                     71                     72
                        a                      a                      a 
 Frequencies --  2953.6458              2955.7316              2959.2631
 Red. masses --     1.5034                 1.5006                 1.5481
 Frc consts  --     0.0000                 0.0000                 0.0000
 IR Inten    --     4.1738                 0.9442                 3.7500
 Raman Activ --     0.0000                 0.0000                 0.0000
 Depolar     --     0.0000                 0.0000                 0.0000
 Atom AN      X      Y      Z        X      Y      Z        X      Y      Z
   1   7     0.00   0.00  -0.00     0.00  -0.00   0.00     0.00   0.00  -0.00
   2   6     0.02   0.01  -0.00    -0.05  -0.02   0.01     0.01   0.01   0.01
   3   6    -0.01  -0.01  -0.01     0.00   0.01   0.00    -0.02  -0.01  -0.03
   4   6     0.02  -0.06  -0.07    -0.02   0.07   0.07     0.02  -0.08  -0.12
   5   6    -0.00   0.00   0.05    -0.00  -0.00  -0.15    -0.00  -0.01  -0.07
   6   6    -0.02   0.07   0.10    -0.01   0.06   0.07    -0.01   0.04   0.05
   7   6     0.01  -0.03  -0.12     0.00  -0.00  -0.03    -0.01   0.05   0.12
   8   6     0.00  -0.01  -0.03    -0.00   0.01   0.02    -0.01   0.02   0.05
   9   6    -0.01   0.00   0.01     0.00  -0.00   0.00     0.01  -0.01  -0.02
  10   1     0.00  -0.00  -0.00    -0.00   0.00   0.00     0.00  -0.00  -0.00
  11   1    -0.00  -0.00   0.00    -0.00   0.00  -0.00    -0.01  -0.00   0.01
  12   1     0.00   0.00   0.00    -0.00  -0.00  -0.00     0.00   0.00   0.00
  13   1    -0.03  -0.02  -0.03     0.05   0.04   0.05    -0.04  -0.03  -0.03
  14   1    -0.05  -0.00   0.04     0.13   0.01  -0.09     0.01   0.00  -0.01
  15   1     0.00  -0.01   0.01     0.00  -0.01   0.02     0.00  -0.02   0.03
  16   1     0.04   0.02   0.03    -0.01  -0.01  -0.01     0.06   0.04   0.05
  17   1    -0.08   0.34   0.08     0.09  -0.37  -0.09    -0.11   0.47   0.11
  18   1     0.03  -0.13   0.19    -0.03   0.13  -0.19     0.04  -0.20   0.30
  19   1     0.02  -0.11  -0.02    -0.06   0.33   0.05    -0.03   0.17   0.02
  20   1    -0.02   0.09  -0.15     0.06  -0.30   0.51     0.03  -0.14   0.23
  21   1     0.09  -0.45  -0.08     0.08  -0.37  -0.07     0.04  -0.21  -0.04
  22   1    -0.04   0.19  -0.30    -0.02   0.13  -0.21    -0.02   0.08  -0.13
  23   1    -0.07   0.37   0.06    -0.01   0.08   0.01     0.07  -0.37  -0.06
  24   1     0.05  -0.23   0.40     0.01  -0.07   0.12    -0.04   0.21  -0.35
  25   1    -0.01   0.07   0.01     0.02  -0.08  -0.01     0.03  -0.17  -0.03
  26   1     0.01  -0.04   0.07    -0.01   0.03  -0.06    -0.02   0.09  -0.14
  27   1     0.00  -0.03  -0.00     0.00   0.00   0.00    -0.01   0.05   0.01
  28   1    -0.00   0.02  -0.03    -0.00   0.00  -0.00     0.01  -0.02   0.04
  29   1     0.03  -0.00  -0.02    -0.00   0.00   0.00    -0.05   0.00   0.03
                     73                     74                     75
                        a                      a                      a 
 Frequencies --  2964.8015              2969.7519              2986.9105
 Red. masses --     1.5975                 1.5548                 1.5852
 Frc consts  --     0.0000                 0.0000                 0.0000
 IR Inten    --    16.4576               144.2216                 7.7240
 Raman Activ --     0.0000                 0.0000                 0.0000
 Depolar     --     0.0000                 0.0000                 0.0000
 Atom AN      X      Y      Z        X      Y      Z        X      Y      Z
   1   7    -0.00   0.00  -0.00     0.00   0.00  -0.00     0.00  -0.00  -0.00
   2   6    -0.08  -0.02   0.03     0.01   0.01   0.01     0.07   0.10   0.19
   3   6    -0.07  -0.17   0.10    -0.01   0.00  -0.02     0.02   0.01   0.03
   4   6     0.00  -0.04   0.02     0.01  -0.04  -0.08    -0.00   0.01   0.01
   5   6     0.00  -0.01   0.00     0.00  -0.03  -0.12    -0.00   0.00   0.01
   6   6     0.00  -0.01  -0.00     0.01  -0.06  -0.11    -0.00   0.00   0.00
   7   6     0.00  -0.00  -0.00     0.00  -0.03  -0.08     0.00   0.00   0.00
   8   6     0.00  -0.00  -0.00     0.00  -0.02  -0.03     0.00   0.00  -0.00
   9   6    -0.00   0.00   0.00    -0.02   0.01   0.03     0.01  -0.00  -0.01
  10   1     0.00  -0.00  -0.00    -0.00   0.00   0.00    -0.00   0.00   0.00
  11   1    -0.01  -0.00   0.00    -0.01  -0.00   0.00    -0.01  -0.00   0.01
  12   1     0.00   0.00   0.00     0.00   0.00   0.00     0.02   0.01   0.02
  13   1     0.05   0.04   0.05    -0.05  -0.03  -0.04    -0.60  -0.42  -0.45
  14   1     0.22   0.02  -0.16     0.02   0.00  -0.01     0.36   0.05  -0.22
  15   1    -0.11   0.39  -0.65     0.01  -0.03   0.05    -0.00   0.02  -0.02
  16   1     0.35   0.23   0.29     0.03   0.02   0.02    -0.08  -0.06  -0.06
  17   1    -0.02   0.08   0.02    -0.07   0.28   0.06     0.01  -0.04  -0.01
  18   1    -0.01   0.04  -0.08     0.03  -0.14   0.20    -0.00   0.02  -0.03
  19   1    -0.01   0.04   0.01    -0.06   0.32   0.05     0.01  -0.04  -0.01
  20   1    -0.00   0.01  -0.02     0.04  -0.23   0.37    -0.00   0.02  -0.03
  21   1    -0.01   0.03   0.01    -0.08   0.39   0.06     0.00  -0.01  -0.00
  22   1     0.00  -0.00   0.00     0.03  -0.19   0.31    -0.00   0.01  -0.01
  23   1    -0.00   0.02   0.00    -0.05   0.26   0.04     0.00  -0.00  -0.00
  24   1     0.00  -0.00   0.01     0.03  -0.15   0.25    -0.00   0.00  -0.00
  25   1    -0.00   0.01   0.00    -0.02   0.11   0.02    -0.00   0.00   0.00
  26   1     0.00  -0.01   0.01     0.01  -0.06   0.10     0.00  -0.00   0.00
  27   1     0.00  -0.01  -0.00     0.01  -0.06  -0.01    -0.00   0.01  -0.00
  28   1    -0.00  -0.00   0.00    -0.01   0.03  -0.04     0.00  -0.01   0.01
  29   1     0.01  -0.00  -0.00     0.07  -0.01  -0.04    -0.02   0.00   0.01
                     76                     77                     78
                        a                      a                      a 
 Frequencies --  2992.1849              2996.2384              3011.0519
 Red. masses --     1.8991                 1.9366                 1.3017
 Frc consts  --     0.0000                 0.0000                 0.0000
 IR Inten    --    50.8474                51.6979                34.0783
 Raman Activ --     0.0000                 0.0000                 0.0000
 Depolar     --     0.0000                 0.0000                 0.0000
 Atom AN      X      Y      Z        X      Y      Z        X      Y      Z
   1   7     0.00   0.00   0.00     0.00   0.00   0.00    -0.00   0.00   0.00
   2   6    -0.00  -0.00  -0.01     0.00   0.00   0.00     0.00   0.00   0.00
   3   6    -0.00  -0.00  -0.00     0.00  -0.00   0.00    -0.00  -0.00   0.00
   4   6     0.00  -0.00  -0.00     0.00  -0.00   0.00    -0.00  -0.00   0.00
   5   6     0.00  -0.00  -0.01     0.00  -0.00   0.00    -0.00   0.00   0.00
   6   6     0.00  -0.00  -0.01     0.00  -0.00   0.00    -0.00   0.00   0.00
   7   6     0.00  -0.01  -0.02     0.00  -0.01   0.00    -0.00   0.00   0.01
   8   6     0.01  -0.02  -0.03     0.01  -0.03   0.02     0.00   0.01   0.02
   9   6     0.20  -0.08  -0.18     0.02  -0.25   0.13     0.08   0.06   0.13
  10   1     0.00  -0.00  -0.00     0.00  -0.00   0.00     0.00  -0.00  -0.00
  11   1    -0.00  -0.00  -0.00    -0.00   0.00   0.00     0.00   0.00  -0.00
  12   1    -0.00  -0.00  -0.00    -0.00  -0.00  -0.00     0.00   0.00   0.00
  13   1     0.02   0.01   0.01    -0.01  -0.01  -0.01    -0.00  -0.00  -0.00
  14   1    -0.01  -0.00   0.00     0.00   0.00  -0.00     0.00   0.00  -0.00
  15   1    -0.00  -0.00   0.00    -0.00   0.00  -0.00    -0.00   0.00  -0.00
  16   1     0.01   0.00   0.01    -0.00  -0.00  -0.00     0.00   0.00   0.00
  17   1    -0.00   0.01   0.00     0.00   0.00   0.00    -0.00   0.00   0.00
  18   1     0.00  -0.01   0.01    -0.00   0.00  -0.01    -0.00   0.00  -0.00
  19   1    -0.00   0.02   0.00    -0.00   0.00   0.00     0.00  -0.01  -0.00
  20   1     0.00  -0.01   0.02    -0.00   0.00  -0.00    -0.00   0.00  -0.01
  21   1    -0.01   0.03   0.00    -0.00   0.01   0.00     0.00  -0.01  -0.00
  22   1     0.00  -0.01   0.02    -0.00   0.01  -0.01    -0.00   0.00  -0.01
  23   1    -0.01   0.07   0.01    -0.01   0.02   0.01     0.01  -0.03  -0.00
  24   1     0.01  -0.03   0.06    -0.00   0.01  -0.02    -0.00   0.02  -0.03
  25   1    -0.02   0.09   0.01    -0.01   0.06   0.01     0.01  -0.04  -0.01
  26   1     0.01  -0.04   0.06    -0.00   0.03  -0.06    -0.00   0.02  -0.04
  27   1    -0.03   0.32   0.03    -0.11   0.65   0.15     0.10  -0.58  -0.09
  28   1     0.05  -0.11   0.14    -0.08   0.29  -0.58    -0.07   0.34  -0.59
  29   1    -0.74   0.07   0.46     0.11  -0.05  -0.04    -0.32   0.04   0.22
                     79                     80                     81
                        a                      a                      a 
 Frequencies --  3200.6667              3206.6402              3227.1933
 Red. masses --     2.0254                 2.0404                 1.2839
 Frc consts  --     0.0000                 0.0000                 0.0000
 IR Inten    --    95.4220                86.2176                21.7088
 Raman Activ --     0.0000                 0.0000                 0.0000
 Depolar     --     0.0000                 0.0000                 0.0000
 Atom AN      X      Y      Z        X      Y      Z        X      Y      Z
   1   7     0.14  -0.19  -0.15    -0.24  -0.15  -0.02    -0.03   0.05  -0.13
   2   6     0.00  -0.00  -0.01    -0.01  -0.00  -0.00    -0.00   0.00  -0.01
   3   6    -0.00   0.00   0.00     0.00   0.00   0.00     0.00   0.00   0.00
   4   6    -0.00  -0.00   0.00    -0.00   0.00  -0.00     0.00  -0.00   0.00
   5   6     0.00  -0.00   0.00    -0.00   0.00  -0.00     0.00  -0.00   0.00
   6   6    -0.00  -0.00   0.00    -0.00   0.00  -0.00    -0.00   0.00   0.00
   7   6     0.00  -0.00   0.00    -0.00   0.00  -0.00     0.00  -0.00   0.00
   8   6    -0.00   0.00  -0.00    -0.00   0.00  -0.00    -0.00   0.00   0.00
   9   6     0.00  -0.00   0.00    -0.00  -0.00   0.00     0.00  -0.00   0.00
  10   1    -0.32   0.74   0.22    -0.09   0.14   0.05     0.18  -0.41  -0.14
  11   1    -0.36  -0.10   0.24     0.50   0.09  -0.36    -0.49  -0.10   0.32
  12   1     0.15   0.08   0.09     0.47   0.34   0.40     0.43   0.32   0.34
  13   1     0.01   0.01   0.01     0.01   0.01   0.01     0.01   0.01   0.01
  14   1    -0.01  -0.00   0.01     0.01   0.00  -0.01    -0.01  -0.00   0.01
  15   1     0.00   0.00  -0.00     0.00  -0.00   0.00     0.00  -0.00   0.00
  16   1     0.00   0.00   0.00    -0.00  -0.00  -0.00    -0.00  -0.00  -0.00
  17   1    -0.00   0.00   0.00     0.00   0.00   0.00     0.00  -0.00  -0.00
  18   1    -0.00   0.01  -0.01     0.00  -0.01   0.01    -0.00   0.01  -0.01
  19   1     0.00  -0.00   0.00     0.00  -0.00  -0.00    -0.00  -0.00   0.00
  20   1    -0.00   0.00  -0.00     0.00  -0.00   0.00    -0.00   0.00  -0.00
  21   1     0.00  -0.00   0.00     0.00  -0.00  -0.00     0.00  -0.00  -0.00
  22   1     0.00  -0.00  -0.00    -0.00  -0.00   0.00     0.00   0.00  -0.00
  23   1    -0.00   0.00   0.00    -0.00   0.00  -0.00    -0.00   0.00   0.00
  24   1    -0.00   0.00  -0.00     0.00  -0.00   0.00    -0.00   0.00  -0.00
  25   1     0.00  -0.00   0.00     0.00  -0.00  -0.00     0.00  -0.00  -0.00
  26   1     0.00  -0.00   0.00    -0.00  -0.00   0.00     0.00  -0.00  -0.00
  27   1    -0.00   0.00  -0.00    -0.00   0.00   0.00    -0.00   0.00  -0.00
  28   1    -0.00   0.00  -0.00    -0.00   0.00  -0.00    -0.00   0.00  -0.00
  29   1    -0.00   0.00   0.00     0.00   0.00  -0.00    -0.00  -0.00   0.00
