18
 energy: -23.770997867272 gnorm: 0.000472913574 xtb: 6.5.1 (fef0646)
N            2.64262644987649        0.80294211398379        1.20511109980314
C            2.48874328820636       -0.12881264143524        0.06654834174105
C            3.07265134698824        0.47797010491027       -1.21185786879203
C            4.56425996066743        0.52689828733252       -1.19068427205453
C            5.44773508026970       -0.20624605180863       -1.91658761788564
C            6.80044807989718        0.09689730511555       -1.62631022556197
C            6.93897870185913        1.05427827898994       -0.67741397637587
S            5.41955327220246        1.62067573923567       -0.13183844903017
H            2.30554945184148        0.37834353557222        2.07531159389582
H            2.12155365441909        1.66960561483515        1.03080366849705
H            3.63616037520606        1.05440153384073        1.31559594485543
H            1.43060069430762       -0.33636234759215       -0.08664799131231
H            3.00281940594469       -1.06249563981113        0.29264650752281
H            2.67602118796413        1.48336481547246       -1.35751084201668
H            2.76702544757130       -0.12965429980558       -2.06275894843978
H            5.15840471776000       -0.94149960155017       -2.64542598043667
H            7.63626833646180       -0.38185718592822       -2.10566835323230
H            7.83521054855706        1.47101043864299       -0.26195263117704
