 Entering Gaussian System
 *********************************************
 Gaussian 98:
 frequency output generated by the xtb code
 *********************************************
                         Standard orientation:
 --------------------------------------------------------------------
  Center     Atomic     Atomic              Coordinates (Angstroms)
  Number     Number      Type              X           Y           Z
 --------------------------------------------------------------------
    1          7             0       -7.422433    0.240042    1.774876
    2          6             0       -7.711832   -0.728288    0.681648
    3          6             0       -7.092344   -0.291074   -0.643395
    4          6             0       -5.634852   -0.017431   -0.528760
    5          6             0       -5.085075    1.198286   -0.272454
    6          6             0       -3.667985    1.180449   -0.191009
    7          6             0       -3.123032   -0.058134   -0.384539
    8          6             0       -1.714973   -0.367882   -0.355193
    9          6             0       -1.168610   -1.606115   -0.553323
   10          6             0        0.251030   -1.646892   -0.473998
   11          6             0        1.021153   -2.907017   -0.663089
   12          6             0        0.807947   -0.412915   -0.207462
   13          6             0        2.205390   -0.085452   -0.058938
   14          6             0        2.680757    1.172676    0.207799
   15          6             0        4.089028    1.250619    0.310084
   16          6             0        4.732921    0.055675    0.124373
   17          6             0        6.167361   -0.114622    0.180959
   18          6             0        6.888704   -1.273876   -0.001122
   19          6             0        6.299736   -2.608074   -0.300587
   20          6             0        8.298576   -1.071943    0.127193
   21          6             0        8.648153    0.205805    0.399689
   22         16             0        7.255639    1.209583    0.508723
   23         16             0        3.550333   -1.185409   -0.182780
   24         16             0       -0.450346    0.783392   -0.060740
   25         16             0       -4.392099   -1.218308   -0.673413
   26         17             0       -7.725591    3.472112    0.478911
   27          1             0       -6.415592    0.242567    2.002092
   28          1             0       -7.940581    0.026526    2.642548
   29          1             0       -7.663709    1.204983    1.481285
   30          1             0       -8.796503   -0.852423    0.572372
   31          1             0       -7.325846   -1.715220    0.964549
   32          1             0       -7.594191    0.614098   -1.005085
   33          1             0       -7.255681   -1.051225   -1.417163
   34          1             0       -5.680720    2.087570   -0.127544
   35          1             0       -3.069769    2.056396    0.007387
   36          1             0       -1.768806   -2.479312   -0.754070
   37          1             0        0.358257   -3.747834   -0.873785
   38          1             0        1.594554   -3.148238    0.232600
   39          1             0        1.718410   -2.813092   -1.496711
   40          1             0        2.029312    2.024830    0.327899
   41          1             0        4.618694    2.168067    0.516060
   42          1             0        7.074932   -3.367938   -0.406669
   43          1             0        5.728933   -2.579542   -1.229966
   44          1             0        5.628447   -2.923329    0.499566
   45          1             0        9.012791   -1.874287    0.014492
   46          1             0        9.652346    0.563620    0.532945
 --------------------------------------------------------------------
     1 basis functions        1 primitive gaussians
     1 alpha electrons        1 beta electrons

 Harmonic frequencies (cm**-1), IR intensities (km*mol⁻¹),
 Raman scattering activities (A**4/amu), Raman depolarization ratios,
 reduced masses (AMU), force constants (mDyne/A) and normal coordinates:
                      1                      2                      3
                        a                      a                      a 
 Frequencies --  -144.4160               -43.5491               -17.2138
 Red. masses --    18.8566                17.3208                17.1557
 Frc consts  --     0.0000                 0.0000                 0.0000
 IR Inten    --   124.8894                 0.0744                 0.2558
 Raman Activ --     0.0000                 0.0000                 0.0000
 Depolar     --     0.0000                 0.0000                 0.0000
 Atom AN      X      Y      Z        X      Y      Z        X      Y      Z
   1   7     0.10  -0.57   0.20    -0.05  -0.04  -0.01     0.01   0.03   0.01
   2   6     0.05  -0.27  -0.03    -0.04   0.00  -0.05     0.01   0.00   0.04
   3   6    -0.02   0.03   0.04     0.01   0.03  -0.02    -0.00  -0.03   0.02
   4   6    -0.01   0.02   0.03     0.01   0.01   0.05    -0.00  -0.02  -0.00
   5   6    -0.01   0.02   0.02    -0.01  -0.05   0.34    -0.00  -0.01  -0.07
   6   6    -0.01   0.01   0.01    -0.01  -0.05   0.34    -0.00  -0.01  -0.07
   7   6    -0.01   0.01   0.00     0.00  -0.00   0.04    -0.00  -0.01  -0.01
   8   6    -0.01   0.01   0.00     0.01   0.01  -0.02    -0.00  -0.01  -0.02
   9   6    -0.01   0.01   0.01     0.01   0.01  -0.07     0.01   0.02  -0.17
  10   6    -0.01   0.00   0.01     0.01   0.01  -0.06     0.01   0.02  -0.16
  11   6    -0.01   0.00  -0.00     0.01   0.01  -0.08     0.02   0.05  -0.30
  12   6    -0.01   0.00   0.00     0.01   0.00  -0.03    -0.00  -0.01  -0.01
  13   6    -0.00   0.00  -0.00     0.01   0.01  -0.06    -0.01  -0.01   0.05
  14   6    -0.00   0.00  -0.01     0.02   0.05  -0.27    -0.02  -0.05   0.27
  15   6    -0.00   0.00  -0.01     0.02   0.05  -0.26    -0.02  -0.05   0.27
  16   6    -0.00  -0.00  -0.00     0.01   0.01  -0.05    -0.01  -0.01   0.05
  17   6    -0.00  -0.00   0.00     0.00  -0.01   0.01    -0.00   0.00   0.01
  18   6    -0.00  -0.00   0.01    -0.00  -0.03   0.16    -0.01  -0.03   0.18
  19   6    -0.00  -0.00   0.00    -0.01  -0.06   0.29    -0.02  -0.07   0.39
  20   6    -0.00  -0.00   0.01    -0.00  -0.03   0.15    -0.01  -0.01   0.13
  21   6    -0.00  -0.00  -0.00     0.01  -0.00  -0.01     0.00   0.03  -0.10
  22  16    -0.00  -0.00  -0.01     0.02   0.04  -0.24     0.01   0.09  -0.40
  23  16    -0.01  -0.00   0.01    -0.01  -0.05   0.25     0.02   0.05  -0.28
  24  16    -0.00   0.01  -0.01     0.01  -0.00   0.03    -0.03  -0.06   0.24
  25  16    -0.02   0.02   0.03     0.03   0.10  -0.42    -0.01  -0.05   0.10
  26  17    -0.01   0.55  -0.22    -0.05  -0.04   0.09     0.05   0.07  -0.02
  27   1     0.05  -0.09  -0.03    -0.01  -0.00  -0.01     0.00   0.01   0.01
  28   1     0.11  -0.26   0.08    -0.00  -0.03  -0.00    -0.00   0.02   0.00
  29   1    -0.08  -0.17   0.16    -0.02  -0.01   0.01     0.01   0.01  -0.01
  30   1     0.01  -0.08   0.00    -0.01   0.01  -0.02     0.00  -0.00   0.01
  31   1     0.03  -0.09  -0.08    -0.02  -0.00  -0.02     0.00   0.00   0.02
  32   1    -0.01   0.03   0.07     0.01   0.01  -0.00    -0.00  -0.01  -0.00
  33   1    -0.01   0.05  -0.03     0.01   0.02  -0.01    -0.00  -0.02   0.01
  34   1    -0.00   0.01   0.01    -0.00  -0.02   0.15    -0.00  -0.00  -0.03
  35   1    -0.00   0.00  -0.00    -0.00  -0.03   0.15    -0.00   0.00  -0.03
  36   1    -0.00   0.00   0.00     0.00   0.01  -0.03     0.01   0.01  -0.08
  37   1    -0.00   0.00  -0.00     0.00   0.01  -0.04     0.01   0.02  -0.09
  38   1    -0.00  -0.00   0.00    -0.01  -0.01  -0.02     0.02  -0.00  -0.10
  39   1    -0.00   0.00   0.00     0.01   0.01  -0.01    -0.01   0.04  -0.09
  40   1    -0.00   0.00  -0.00     0.01   0.02  -0.12    -0.01  -0.02   0.13
  41   1    -0.00   0.00  -0.00     0.01   0.02  -0.12    -0.01  -0.02   0.12
  42   1    -0.00  -0.00  -0.00    -0.00  -0.02   0.09    -0.01  -0.03   0.16
  43   1    -0.00   0.00   0.00    -0.01  -0.04   0.09     0.01  -0.06   0.10
  44   1     0.00  -0.00   0.00     0.00   0.00   0.10    -0.02   0.02   0.12
  45   1    -0.00  -0.00   0.00    -0.00  -0.02   0.07    -0.00  -0.01   0.07
  46   1    -0.00  -0.00  -0.00     0.00   0.00  -0.02     0.00   0.02  -0.06
                      4                      5                      6
                        a                      a                      a 
 Frequencies --    19.7400                32.1551                37.9863
 Red. masses --    16.4949                22.2101                22.5366
 Frc consts  --     0.0000                 0.0000                 0.0000
 IR Inten    --     1.6484                 0.3056                 0.8222
 Raman Activ --     0.0000                 0.0000                 0.0000
 Depolar     --     0.0000                 0.0000                 0.0000
 Atom AN      X      Y      Z        X      Y      Z        X      Y      Z
   1   7    -0.05   0.06  -0.07     0.06   0.18   0.05     0.15  -0.04   0.17
   2   6    -0.04   0.05  -0.06    -0.04   0.14   0.10     0.10  -0.04   0.17
   3   6     0.01   0.01  -0.05    -0.03   0.01   0.06    -0.02  -0.03   0.12
   4   6     0.01  -0.02   0.01    -0.01  -0.05   0.03    -0.02  -0.00  -0.00
   5   6     0.00  -0.07   0.25     0.03  -0.07   0.05    -0.02   0.01  -0.05
   6   6    -0.00  -0.08   0.26     0.03  -0.13   0.02    -0.01   0.02  -0.14
   7   6     0.00  -0.04   0.03    -0.02  -0.14  -0.02    -0.01   0.03  -0.17
   8   6     0.00  -0.05   0.03    -0.02  -0.16  -0.05    -0.01   0.03  -0.18
   9   6    -0.00  -0.07   0.15    -0.00  -0.14  -0.12    -0.02  -0.00  -0.01
  10   6    -0.00  -0.07   0.17    -0.00  -0.12  -0.12    -0.02  -0.00   0.01
  11   6    -0.01  -0.09   0.32     0.03  -0.10  -0.17    -0.03  -0.03   0.18
  12   6     0.00  -0.05   0.07    -0.02  -0.12  -0.06    -0.01   0.03  -0.14
  13   6    -0.00  -0.04   0.09    -0.03  -0.09  -0.05    -0.02   0.02  -0.10
  14   6    -0.03  -0.08   0.31    -0.08  -0.06  -0.10    -0.03   0.00  -0.00
  15   6    -0.03  -0.06   0.28    -0.08  -0.01  -0.08    -0.03  -0.00   0.05
  16   6    -0.00  -0.01   0.03    -0.04   0.01  -0.01    -0.03   0.00   0.01
  17   6     0.01   0.02  -0.04    -0.03   0.07   0.03    -0.03  -0.00   0.06
  18   6     0.02   0.04  -0.08     0.03   0.11  -0.01    -0.03  -0.02   0.15
  19   6     0.04   0.03  -0.06     0.10   0.10  -0.07    -0.03  -0.03   0.20
  20   6     0.02   0.06  -0.12     0.01   0.18   0.03    -0.04  -0.02   0.19
  21   6     0.01   0.07  -0.12    -0.06   0.18   0.10    -0.03  -0.01   0.13
  22  16    -0.01   0.06  -0.10    -0.18   0.17   0.20    -0.05   0.01   0.05
  23  16     0.04   0.03  -0.28     0.01  -0.08   0.05    -0.02   0.04  -0.19
  24  16     0.01  -0.04  -0.10    -0.06  -0.25   0.03    -0.00   0.10  -0.57
  25  16     0.02   0.03  -0.38    -0.10  -0.15  -0.05    -0.02   0.02  -0.15
  26  17    -0.01   0.16  -0.10     0.39   0.36   0.02     0.19  -0.08   0.29
  27   1    -0.01   0.03  -0.03     0.02   0.02   0.02     0.04  -0.01   0.03
  28   1    -0.00   0.01  -0.02     0.01   0.08   0.01     0.05  -0.01   0.05
  29   1    -0.02   0.02  -0.02     0.05   0.05  -0.00     0.03  -0.01   0.05
  30   1    -0.01   0.02  -0.02    -0.01   0.06   0.03     0.03  -0.02   0.07
  31   1    -0.02   0.01  -0.01    -0.03   0.04   0.04     0.04  -0.01   0.04
  32   1     0.01   0.00  -0.03     0.00   0.00  -0.00    -0.02  -0.01   0.05
  33   1     0.01  -0.00  -0.01    -0.02  -0.01   0.03    -0.02  -0.01   0.04
  34   1     0.00  -0.02   0.10     0.02  -0.01   0.02    -0.01  -0.00  -0.00
  35   1    -0.00  -0.03   0.12     0.02  -0.04   0.01    -0.00   0.01  -0.05
  36   1    -0.00  -0.02   0.07     0.00  -0.04  -0.05    -0.01  -0.01   0.03
  37   1    -0.00  -0.04   0.14     0.01  -0.03  -0.07    -0.01  -0.02   0.08
  38   1     0.01   0.01   0.10     0.00  -0.04  -0.05    -0.01   0.02   0.06
  39   1    -0.01  -0.06   0.08     0.01  -0.01  -0.04    -0.01  -0.04   0.05
  40   1    -0.01  -0.03   0.14    -0.03  -0.02  -0.04    -0.01  -0.00   0.01
  41   1    -0.01  -0.02   0.13    -0.03   0.01  -0.03    -0.01  -0.01   0.04
  42   1     0.01   0.01  -0.00     0.04   0.04  -0.03    -0.01  -0.01   0.09
  43   1     0.02  -0.00  -0.02     0.03   0.03  -0.02     0.01  -0.02   0.04
  44   1     0.00   0.01  -0.02     0.03   0.01  -0.02    -0.03   0.01   0.05
  45   1     0.01   0.02  -0.04     0.02   0.06   0.00    -0.01  -0.01   0.07
  46   1     0.00   0.02  -0.04    -0.02   0.06   0.04    -0.01  -0.00   0.04
                      7                      8                      9
                        a                      a                      a 
 Frequencies --    50.3914                50.5010                66.9179
 Red. masses --    26.7415                16.7946                20.1106
 Frc consts  --     0.0000                 0.0000                 0.0000
 IR Inten    --    17.6589                 1.8665                11.4942
 Raman Activ --     0.0000                 0.0000                 0.0000
 Depolar     --     0.0000                 0.0000                 0.0000
 Atom AN      X      Y      Z        X      Y      Z        X      Y      Z
   1   7    -0.12   0.17   0.09     0.02   0.12   0.01     0.20   0.13   0.06
   2   6     0.02   0.04   0.15     0.00  -0.08   0.19     0.19  -0.02   0.18
   3   6     0.02  -0.01   0.14    -0.01  -0.34   0.09     0.01  -0.11   0.06
   4   6     0.02  -0.01   0.11    -0.03  -0.22   0.06     0.01  -0.04  -0.11
   5   6     0.04  -0.01   0.11    -0.13  -0.19   0.14    -0.01  -0.02  -0.14
   6   6     0.04  -0.02   0.05    -0.13  -0.07   0.12    -0.01   0.01  -0.19
   7   6     0.04  -0.01   0.01    -0.03  -0.01   0.02     0.01   0.02  -0.20
   8   6     0.04  -0.02  -0.05    -0.01   0.07  -0.01     0.01   0.02  -0.14
   9   6     0.03  -0.02  -0.08     0.03   0.10  -0.06     0.01   0.02  -0.14
  10   6     0.03  -0.02  -0.11     0.03   0.13  -0.07     0.00  -0.00  -0.01
  11   6     0.03  -0.03  -0.12     0.05   0.15  -0.09     0.00  -0.01   0.03
  12   6     0.05  -0.03  -0.12    -0.00   0.14  -0.03    -0.01  -0.02   0.10
  13   6     0.05  -0.04  -0.11    -0.01   0.14  -0.02    -0.01  -0.03   0.18
  14   6     0.04  -0.05  -0.04     0.03   0.12   0.02    -0.01  -0.02   0.11
  15   6     0.04  -0.05  -0.00     0.03   0.08   0.03    -0.01  -0.02   0.09
  16   6     0.05  -0.03  -0.03    -0.00   0.06   0.01    -0.01  -0.03   0.14
  17   6     0.05  -0.02   0.02    -0.01  -0.02   0.01    -0.01  -0.01   0.04
  18   6     0.08  -0.01   0.03    -0.08  -0.05  -0.04    -0.00   0.01  -0.06
  19   6     0.11  -0.01  -0.01    -0.15  -0.01  -0.09    -0.01  -0.00  -0.02
  20   6     0.07   0.01   0.10    -0.07  -0.14  -0.03     0.01   0.03  -0.20
  21   6     0.04   0.01   0.15     0.01  -0.18   0.04     0.01   0.03  -0.21
  22  16     0.03  -0.02   0.19     0.11  -0.17   0.16     0.00   0.01  -0.07
  23  16     0.10  -0.04  -0.22    -0.06   0.18  -0.07    -0.03  -0.09   0.46
  24  16     0.09  -0.04  -0.15    -0.06   0.16   0.04    -0.01  -0.02   0.07
  25  16     0.03  -0.01   0.07     0.12  -0.16  -0.10     0.04  -0.00  -0.32
  26  17    -0.70   0.17  -0.09     0.19   0.12  -0.22    -0.26   0.13   0.12
  27   1    -0.03   0.11   0.00     0.01   0.04  -0.00     0.06   0.10  -0.04
  28   1    -0.00   0.03   0.04     0.01   0.08   0.01     0.11   0.02   0.05
  29   1    -0.10   0.02   0.01     0.01   0.02  -0.05    -0.03   0.01   0.01
  30   1     0.01  -0.02   0.04     0.00  -0.03   0.06     0.06  -0.05   0.09
  31   1     0.03   0.03   0.07    -0.00  -0.01   0.11     0.10   0.02   0.07
  32   1     0.00  -0.01   0.03    -0.02  -0.13  -0.04    -0.02  -0.05   0.01
  33   1     0.01  -0.01   0.05     0.02  -0.15   0.08    -0.01  -0.06   0.05
  34   1     0.01  -0.00   0.03    -0.06  -0.07   0.05    -0.01  -0.01  -0.03
  35   1     0.01  -0.01   0.01    -0.06  -0.01   0.05    -0.01   0.01  -0.06
  36   1     0.01  -0.00  -0.02     0.02   0.03  -0.03     0.01   0.01  -0.07
  37   1     0.01  -0.01  -0.03     0.02   0.04  -0.02     0.00   0.00  -0.01
  38   1     0.01  -0.01  -0.04     0.02   0.04  -0.03    -0.02  -0.01   0.02
  39   1     0.00  -0.01  -0.04     0.01   0.05  -0.03     0.02  -0.00   0.03
  40   1     0.01  -0.02  -0.01     0.02   0.04   0.01    -0.00  -0.00   0.01
  41   1     0.01  -0.01   0.02     0.02   0.02   0.01    -0.00  -0.00   0.00
  42   1     0.03  -0.00   0.01    -0.06  -0.01  -0.03    -0.00   0.00  -0.03
  43   1     0.05  -0.00  -0.01    -0.04   0.01  -0.03    -0.03  -0.00   0.01
  44   1     0.02  -0.01  -0.01    -0.05   0.00  -0.03     0.02  -0.01   0.01
  45   1     0.02   0.01   0.03    -0.03  -0.05  -0.02     0.00   0.01  -0.08
  46   1     0.01   0.01   0.06     0.01  -0.07   0.02     0.00   0.01  -0.08
                     10                     11                     12
                        a                      a                      a 
 Frequencies --    75.7622                90.1594                96.0551
 Red. masses --    23.7592                15.1278                17.2271
 Frc consts  --     0.0000                 0.0000                 0.0000
 IR Inten    --    23.7446                 4.0506                12.8911
 Raman Activ --     0.0000                 0.0000                 0.0000
 Depolar     --     0.0000                 0.0000                 0.0000
 Atom AN      X      Y      Z        X      Y      Z        X      Y      Z
   1   7    -0.15   0.02  -0.19    -0.07   0.01  -0.15    -0.36  -0.08   0.05
   2   6    -0.15   0.04  -0.19    -0.03  -0.11  -0.04    -0.26   0.00  -0.04
   3   6    -0.00  -0.08  -0.17     0.01  -0.30  -0.09    -0.04   0.02   0.06
   4   6     0.00  -0.12  -0.08    -0.03  -0.11  -0.04    -0.03  -0.03   0.17
   5   6     0.01  -0.11  -0.14    -0.17  -0.04  -0.05    -0.02  -0.02   0.12
   6   6     0.01  -0.11  -0.11    -0.17   0.11  -0.00    -0.01  -0.00   0.01
   7   6     0.01  -0.13  -0.01    -0.03   0.16   0.04    -0.00   0.01  -0.05
   8   6     0.02  -0.09   0.02    -0.02   0.19   0.06     0.01   0.04  -0.15
   9   6     0.08  -0.08   0.08    -0.11   0.15   0.06     0.02   0.04  -0.14
  10   6     0.08  -0.01   0.08    -0.11   0.04   0.03     0.02   0.04  -0.12
  11   6     0.13   0.02   0.11    -0.21  -0.01   0.02     0.02   0.03  -0.09
  12   6     0.03   0.03   0.01    -0.02   0.00   0.01     0.03   0.03  -0.10
  13   6     0.02   0.07  -0.01     0.01  -0.09  -0.02     0.03  -0.00   0.04
  14   6     0.03   0.08  -0.05     0.05  -0.10  -0.05     0.04  -0.02   0.09
  15   6     0.03   0.08  -0.05     0.05  -0.13  -0.06     0.03  -0.04   0.18
  16   6     0.03   0.08  -0.02     0.02  -0.15  -0.05     0.03  -0.05   0.20
  17   6     0.02   0.03  -0.01     0.03  -0.08  -0.03     0.04  -0.03   0.11
  18   6    -0.04  -0.01   0.03     0.15  -0.01   0.02     0.06   0.00  -0.02
  19   6    -0.09   0.01   0.06     0.27  -0.07   0.02     0.06  -0.01   0.04
  20   6    -0.03  -0.08   0.04     0.13   0.12   0.06     0.07   0.04  -0.20
  21   6     0.04  -0.09  -0.00    -0.00   0.16   0.04     0.06   0.05  -0.22
  22  16     0.15  -0.01  -0.11    -0.16   0.05  -0.04     0.07  -0.00   0.02
  23  16     0.04   0.12   0.04    -0.01  -0.22  -0.04     0.03  -0.06   0.31
  24  16    -0.04  -0.03  -0.09     0.11   0.17   0.04     0.04   0.09  -0.39
  25  16     0.00  -0.23   0.09     0.17   0.04   0.05    -0.04  -0.02   0.17
  26  17    -0.15   0.42   0.48     0.07   0.16   0.17     0.11  -0.01  -0.07
  27   1    -0.04  -0.01  -0.05    -0.02   0.01  -0.03    -0.12  -0.10   0.10
  28   1    -0.04  -0.00  -0.05    -0.02   0.03  -0.04    -0.18   0.02  -0.03
  29   1    -0.03   0.01  -0.03    -0.01   0.00  -0.06     0.00  -0.00  -0.01
  30   1    -0.04   0.04  -0.08    -0.01  -0.04  -0.02    -0.07   0.03  -0.06
  31   1    -0.08   0.00  -0.04    -0.01  -0.02   0.03    -0.11  -0.01  -0.01
  32   1     0.02  -0.03  -0.08    -0.02  -0.13  -0.09     0.01   0.02   0.01
  33   1     0.01  -0.04  -0.04     0.04  -0.14   0.02    -0.00   0.02   0.00
  34   1     0.01  -0.03  -0.06    -0.07  -0.03  -0.02    -0.00  -0.01   0.04
  35   1     0.00  -0.03  -0.04    -0.08   0.05  -0.00    -0.00   0.00  -0.01
  36   1     0.03  -0.03   0.04    -0.05   0.05   0.02     0.01   0.01  -0.03
  37   1     0.05  -0.00   0.03    -0.08   0.01   0.01     0.01   0.02  -0.06
  38   1     0.04   0.02   0.03    -0.06  -0.02   0.00    -0.02  -0.01  -0.01
  39   1     0.04   0.01   0.03    -0.06  -0.02   0.00     0.03   0.02  -0.00
  40   1     0.01   0.03  -0.02     0.02  -0.02  -0.02     0.01  -0.00   0.01
  41   1     0.01   0.03  -0.02     0.02  -0.04  -0.02     0.01  -0.01   0.06
  42   1    -0.04  -0.01   0.02     0.10  -0.00   0.01     0.02   0.00  -0.01
  43   1    -0.03   0.01   0.02     0.08  -0.04   0.00    -0.01  -0.01   0.03
  44   1    -0.03   0.01   0.02     0.08  -0.03   0.00     0.04  -0.01   0.03
  45   1    -0.02  -0.03   0.02     0.06   0.05   0.03     0.02   0.02  -0.09
  46   1     0.02  -0.04  -0.00    -0.01   0.07   0.02     0.02   0.02  -0.09
                     13                     14                     15
                        a                      a                      a 
 Frequencies --   124.1257               139.6636               154.3813
 Red. masses --    15.9011                14.0832                18.2053
 Frc consts  --     0.0000                 0.0000                 0.0000
 IR Inten    --    15.1446                11.8847                 1.0227
 Raman Activ --     0.0000                 0.0000                 0.0000
 Depolar     --     0.0000                 0.0000                 0.0000
 Atom AN      X      Y      Z        X      Y      Z        X      Y      Z
   1   7    -0.27  -0.04   0.20     0.34   0.01  -0.01     0.03  -0.01   0.01
   2   6    -0.16  -0.00   0.12    -0.07   0.14  -0.02     0.00   0.05  -0.03
   3   6    -0.15   0.05   0.14    -0.16   0.10  -0.07     0.08   0.06   0.01
   4   6    -0.12  -0.00   0.02    -0.13  -0.01  -0.10     0.09  -0.02   0.06
   5   6    -0.07  -0.00  -0.08    -0.10  -0.04  -0.03     0.12  -0.03   0.06
   6   6    -0.07  -0.02  -0.20    -0.11  -0.10   0.06     0.11  -0.06   0.02
   7   6    -0.07  -0.02  -0.20    -0.12  -0.11   0.09     0.07  -0.06  -0.03
   8   6    -0.05  -0.00  -0.11    -0.09  -0.05   0.10     0.07  -0.02  -0.07
   9   6     0.01   0.03  -0.10    -0.00  -0.01   0.12     0.13   0.01  -0.08
  10   6     0.01   0.04   0.06     0.01   0.10   0.02     0.12   0.10  -0.00
  11   6     0.03   0.03   0.16     0.08   0.16  -0.07     0.23   0.16   0.04
  12   6    -0.00   0.03   0.14    -0.02   0.13  -0.05     0.00   0.13   0.06
  13   6     0.03   0.01   0.09     0.01   0.09  -0.07    -0.02   0.11   0.11
  14   6     0.09   0.01   0.03     0.11   0.05  -0.04     0.06   0.07   0.12
  15   6     0.10  -0.00  -0.09     0.12  -0.05   0.03     0.06  -0.05   0.03
  16   6     0.10   0.00  -0.13     0.07  -0.09   0.06    -0.07  -0.11  -0.05
  17   6     0.11  -0.00  -0.11     0.08  -0.10   0.07    -0.09  -0.15  -0.10
  18   6     0.13  -0.01  -0.01     0.16  -0.04   0.01     0.00  -0.10  -0.01
  19   6     0.17  -0.00  -0.10     0.24  -0.10   0.11     0.14  -0.13  -0.20
  20   6     0.12  -0.03   0.16     0.16   0.05  -0.11    -0.03   0.02   0.18
  21   6     0.11  -0.03   0.17     0.10   0.06  -0.11    -0.18   0.07   0.15
  22  16     0.18  -0.00  -0.08     0.06  -0.08   0.12    -0.44  -0.05  -0.23
  23  16     0.08   0.03  -0.07    -0.03   0.01  -0.04    -0.25  -0.04   0.10
  24  16    -0.11  -0.03   0.27    -0.21   0.09  -0.06    -0.07   0.12  -0.07
  25  16    -0.21   0.00  -0.25    -0.28  -0.11  -0.01     0.10  -0.09   0.06
  26  17     0.06  -0.03  -0.03    -0.06  -0.06  -0.02    -0.03   0.00  -0.02
  27   1    -0.09  -0.06   0.13     0.12   0.01  -0.12     0.01  -0.01   0.00
  28   1    -0.15   0.02   0.02     0.19  -0.03   0.05     0.00  -0.01  -0.00
  29   1     0.00  -0.00   0.03     0.04   0.01   0.06     0.02   0.00   0.01
  30   1    -0.04  -0.01   0.02    -0.03   0.11   0.04     0.00   0.04  -0.02
  31   1    -0.05  -0.00   0.03    -0.06   0.01  -0.04    -0.02   0.00  -0.02
  32   1    -0.04   0.03   0.06    -0.03   0.05  -0.01     0.04   0.03   0.01
  33   1    -0.07   0.03   0.03    -0.08   0.04  -0.02     0.02   0.03  -0.01
  34   1    -0.01   0.00  -0.01    -0.02  -0.01  -0.02     0.04  -0.01   0.02
  35   1    -0.02  -0.00  -0.07    -0.03  -0.04   0.03     0.04  -0.02  -0.00
  36   1     0.02   0.01  -0.06     0.02  -0.02   0.06     0.05  -0.01  -0.03
  37   1     0.01   0.00   0.06     0.03   0.03  -0.01     0.09   0.03  -0.00
  38   1     0.00   0.03   0.06     0.05   0.05  -0.04     0.05   0.06   0.02
  39   1     0.01  -0.01   0.05    -0.00   0.06  -0.04     0.08   0.06   0.03
  40   1     0.03   0.01   0.02     0.05   0.03  -0.02     0.03   0.03   0.05
  41   1     0.03   0.00  -0.04     0.05  -0.02   0.02     0.05  -0.03   0.00
  42   1     0.05   0.00  -0.02     0.08  -0.02   0.04     0.06  -0.01  -0.07
  43   1     0.07   0.01  -0.04     0.06  -0.06   0.04     0.06  -0.02  -0.07
  44   1     0.04  -0.01  -0.04     0.08  -0.03   0.05     0.03  -0.08  -0.08
  45   1     0.03  -0.01   0.08     0.06   0.03  -0.06     0.01   0.02   0.09
  46   1     0.03  -0.01   0.08     0.02   0.04  -0.05    -0.06   0.05   0.07
                     16                     17                     18
                        a                      a                      a 
 Frequencies --   158.1427               169.7127               185.0240
 Red. masses --    16.3683                11.3752                 3.6725
 Frc consts  --     0.0000                 0.0000                 0.0000
 IR Inten    --     5.0278                 9.1195                 0.7786
 Raman Activ --     0.0000                 0.0000                 0.0000
 Depolar     --     0.0000                 0.0000                 0.0000
 Atom AN      X      Y      Z        X      Y      Z        X      Y      Z
   1   7    -0.25  -0.01   0.06     0.27  -0.08   0.01    -0.07   0.04  -0.09
   2   6     0.08  -0.08   0.03    -0.27   0.20  -0.09     0.13  -0.10  -0.01
   3   6     0.06   0.02   0.05     0.01  -0.00  -0.03    -0.00   0.01  -0.03
   4   6     0.07   0.02  -0.01     0.02  -0.09   0.13    -0.02   0.05  -0.03
   5   6     0.09   0.02  -0.07    -0.01  -0.06   0.09     0.00   0.03   0.02
   6   6     0.09   0.00  -0.09    -0.01   0.02  -0.03     0.00  -0.02   0.06
   7   6     0.06  -0.02  -0.05     0.04   0.06  -0.11    -0.03  -0.03   0.05
   8   6     0.04  -0.03   0.02     0.04   0.09  -0.20    -0.03  -0.03  -0.01
   9   6     0.07  -0.02   0.03     0.02   0.10  -0.34     0.00  -0.00  -0.10
  10   6     0.07   0.02   0.04    -0.00   0.02  -0.12     0.00   0.02  -0.09
  11   6     0.13   0.05   0.12    -0.07  -0.09   0.29     0.01  -0.01   0.15
  12   6     0.01   0.06  -0.01     0.01  -0.02  -0.00    -0.01   0.03  -0.08
  13   6     0.00   0.08  -0.11     0.01  -0.02  -0.00    -0.01   0.03  -0.08
  14   6     0.04   0.07  -0.15    -0.01  -0.01  -0.03     0.01   0.02  -0.05
  15   6     0.03   0.00  -0.09    -0.01   0.01  -0.06     0.01  -0.01   0.03
  16   6    -0.04  -0.05  -0.00    -0.01   0.02  -0.04     0.00  -0.02   0.08
  17   6    -0.06  -0.09   0.06    -0.02   0.01  -0.01     0.01  -0.02   0.08
  18   6    -0.01  -0.04  -0.04    -0.03   0.01  -0.03     0.02  -0.02   0.07
  19   6     0.02  -0.13   0.30    -0.06  -0.01   0.10     0.04   0.01  -0.08
  20   6    -0.01   0.08  -0.29    -0.03   0.01  -0.08     0.02   0.00  -0.00
  21   6    -0.08   0.09  -0.22    -0.02   0.00  -0.04     0.03   0.02  -0.07
  22  16    -0.25  -0.10   0.30    -0.04  -0.01   0.12     0.03  -0.00  -0.02
  23  16    -0.10   0.04  -0.23     0.02   0.01  -0.11    -0.02   0.01   0.00
  24  16    -0.02  -0.01   0.22     0.08  -0.01   0.21    -0.08  -0.03   0.05
  25  16     0.07   0.01  -0.12     0.13  -0.05   0.13    -0.10   0.01   0.08
  26  17     0.04   0.04   0.04    -0.10  -0.04  -0.01     0.05   0.01   0.02
  27   1    -0.09  -0.00   0.11     0.09  -0.10  -0.08    -0.01   0.09  -0.04
  28   1    -0.14   0.01  -0.02     0.12  -0.03   0.03     0.01  -0.01  -0.01
  29   1    -0.03  -0.00  -0.02     0.11   0.01   0.07    -0.09  -0.01  -0.03
  30   1     0.03  -0.09  -0.02    -0.09   0.23  -0.03     0.04  -0.11   0.01
  31   1     0.08   0.00   0.02    -0.23  -0.01  -0.05     0.11   0.00   0.01
  32   1     0.01   0.01   0.03     0.05   0.01  -0.05    -0.02  -0.00   0.01
  33   1     0.01   0.01   0.00     0.01  -0.01   0.00     0.00   0.01  -0.02
  34   1     0.03   0.01  -0.02    -0.01  -0.02   0.03     0.01   0.01   0.00
  35   1     0.03  -0.00  -0.03    -0.01   0.02  -0.03     0.01  -0.01   0.02
  36   1     0.03  -0.01   0.00     0.00   0.04  -0.15     0.01  -0.00  -0.04
  37   1     0.05  -0.00   0.09    -0.02  -0.01   0.04     0.02   0.04  -0.21
  38   1     0.07   0.06   0.03    -0.13  -0.01   0.16    -0.25  -0.11   0.18
  39   1     0.01  -0.01   0.01     0.08  -0.08   0.16     0.23   0.04   0.24
  40   1     0.02   0.03  -0.05    -0.01  -0.00  -0.01     0.01   0.01  -0.03
  41   1     0.02  -0.01  -0.02    -0.01   0.01  -0.02     0.00  -0.00   0.01
  42   1     0.01  -0.04   0.11    -0.02  -0.01   0.05    -0.01  -0.07   0.35
  43   1    -0.02  -0.11   0.10    -0.02  -0.03   0.03     0.36  -0.06  -0.24
  44   1     0.03   0.01   0.13    -0.01   0.03   0.04    -0.31   0.15  -0.24
  45   1     0.01   0.05  -0.14    -0.01   0.01  -0.04     0.01   0.00  -0.01
  46   1    -0.03   0.04  -0.09    -0.01  -0.00  -0.01     0.01   0.01  -0.04
                     19                     20                     21
                        a                      a                      a 
 Frequencies --   187.6902               197.9476               225.3267
 Red. masses --     4.8347                 7.2801                10.7635
 Frc consts  --     0.0000                 0.0000                 0.0000
 IR Inten    --     0.4089                 4.4701                 0.2166
 Raman Activ --     0.0000                 0.0000                 0.0000
 Depolar     --     0.0000                 0.0000                 0.0000
 Atom AN      X      Y      Z        X      Y      Z        X      Y      Z
   1   7    -0.07   0.06  -0.13     0.05  -0.05   0.19    -0.04   0.02  -0.06
   2   6     0.17  -0.12  -0.01    -0.12   0.12   0.06    -0.04  -0.01  -0.02
   3   6    -0.00   0.01  -0.04    -0.00   0.00   0.06    -0.00   0.00   0.01
   4   6    -0.02   0.06  -0.03     0.02  -0.07  -0.05    -0.00  -0.00   0.08
   5   6    -0.00   0.04   0.05     0.00  -0.04  -0.13     0.00  -0.00   0.07
   6   6    -0.00  -0.02   0.09    -0.00   0.01  -0.09     0.01   0.01  -0.02
   7   6    -0.04  -0.03   0.05     0.04   0.01   0.02     0.00   0.01  -0.08
   8   6    -0.04  -0.03  -0.05     0.03   0.01   0.18     0.00   0.01  -0.07
   9   6    -0.00  -0.00  -0.15     0.00  -0.02   0.30    -0.00  -0.01   0.05
  10   6    -0.00   0.02  -0.10     0.01  -0.02   0.10    -0.01  -0.03   0.14
  11   6     0.00  -0.01   0.15    -0.01   0.00  -0.15     0.01   0.03  -0.18
  12   6    -0.02   0.02  -0.05     0.03  -0.01  -0.00    -0.02  -0.05   0.26
  13   6    -0.02   0.02  -0.00     0.02   0.00  -0.05    -0.02  -0.05   0.30
  14   6     0.00   0.01   0.03     0.00   0.00  -0.01    -0.01  -0.03   0.20
  15   6     0.01  -0.00   0.01    -0.00  -0.00   0.03     0.01   0.04  -0.17
  16   6     0.02   0.01  -0.05    -0.01  -0.01   0.02     0.02   0.06  -0.30
  17   6     0.02   0.01  -0.06    -0.02  -0.01   0.02     0.02   0.06  -0.32
  18   6     0.03   0.01  -0.06    -0.03  -0.01   0.01     0.02   0.04  -0.23
  19   6     0.05  -0.02   0.06    -0.04   0.00  -0.00    -0.01  -0.05   0.23
  20   6     0.03  -0.00   0.01    -0.03  -0.00   0.01     0.01   0.03  -0.13
  21   6     0.03  -0.01   0.06    -0.04   0.00  -0.00    -0.01  -0.02   0.11
  22  16     0.05  -0.01  -0.00    -0.07   0.01  -0.02    -0.01  -0.04   0.18
  23  16    -0.01   0.03  -0.05     0.02  -0.00  -0.05    -0.00   0.00   0.03
  24  16    -0.10  -0.03  -0.01     0.11   0.04  -0.01     0.01   0.03  -0.19
  25  16    -0.13   0.00   0.13     0.14  -0.02  -0.22    -0.01   0.00   0.04
  26  17     0.07   0.00   0.02    -0.08   0.01  -0.04     0.05  -0.03   0.01
  27   1    -0.01   0.13  -0.08    -0.01  -0.17   0.16     0.02   0.11  -0.13
  28   1     0.04  -0.02  -0.01    -0.10   0.06  -0.00     0.10  -0.07   0.03
  29   1    -0.12  -0.01  -0.04     0.17   0.02   0.03    -0.13  -0.01   0.03
  30   1     0.06  -0.13   0.02    -0.04   0.12  -0.00    -0.01  -0.01  -0.01
  31   1     0.14   0.01   0.01    -0.12  -0.00   0.00    -0.01   0.00   0.00
  32   1    -0.02  -0.00   0.01     0.02   0.01   0.00     0.00   0.00   0.00
  33   1     0.01   0.01  -0.02    -0.03  -0.01   0.03     0.01   0.01  -0.00
  34   1     0.01   0.02   0.01    -0.00  -0.02  -0.04    -0.00  -0.00   0.03
  35   1     0.01  -0.01   0.03    -0.01   0.01  -0.02     0.00   0.00  -0.02
  36   1     0.01  -0.00  -0.06    -0.01  -0.01   0.12     0.00  -0.00   0.02
  37   1     0.02   0.04  -0.20     0.01   0.08  -0.43     0.01   0.03  -0.18
  38   1    -0.24  -0.10   0.17    -0.28  -0.24   0.07    -0.04  -0.10  -0.05
  39   1     0.22   0.04   0.23     0.25   0.16   0.19     0.04   0.10  -0.01
  40   1     0.00   0.00   0.02    -0.00  -0.00   0.00    -0.01  -0.02   0.10
  41   1     0.00  -0.00   0.01    -0.00  -0.00   0.02     0.01   0.02  -0.09
  42   1     0.04   0.07  -0.33    -0.01   0.01  -0.06    -0.01  -0.05   0.23
  43   1    -0.31   0.05   0.22    -0.06   0.02   0.03     0.06  -0.14   0.02
  44   1     0.31  -0.15   0.22     0.03  -0.03   0.02    -0.06   0.12   0.07
  45   1     0.01  -0.00   0.01    -0.01   0.00   0.00     0.00   0.01  -0.04
  46   1     0.01  -0.01   0.03    -0.01   0.00  -0.00    -0.00  -0.01   0.08
                     22                     23                     24
                        a                      a                      a 
 Frequencies --   236.8210               253.8123               259.4642
 Red. masses --     7.3345                13.8898                13.8820
 Frc consts  --     0.0000                 0.0000                 0.0000
 IR Inten    --     0.4000                 1.6386                 4.5142
 Raman Activ --     0.0000                 0.0000                 0.0000
 Depolar     --     0.0000                 0.0000                 0.0000
 Atom AN      X      Y      Z        X      Y      Z        X      Y      Z
   1   7     0.21  -0.07  -0.01    -0.05   0.01   0.05    -0.06   0.03   0.12
   2   6     0.18  -0.08  -0.02     0.05   0.05  -0.02     0.13   0.06   0.01
   3   6     0.08  -0.09  -0.07     0.08   0.12   0.02    -0.11   0.26  -0.03
   4   6     0.03   0.09  -0.08     0.11  -0.08   0.00    -0.02  -0.11  -0.26
   5   6     0.02   0.07   0.02     0.10  -0.07  -0.00    -0.03  -0.14  -0.13
   6   6     0.02   0.00   0.13     0.08  -0.05  -0.01    -0.06  -0.15   0.13
   7   6    -0.03  -0.01   0.08     0.03  -0.06  -0.02    -0.01  -0.12   0.17
   8   6    -0.05  -0.05  -0.04    -0.00  -0.00  -0.01     0.05   0.11   0.09
   9   6    -0.03  -0.03  -0.12    -0.04   0.01   0.00     0.04   0.16  -0.10
  10   6    -0.03  -0.00  -0.05    -0.05  -0.02  -0.00     0.03   0.10  -0.13
  11   6    -0.01   0.00   0.04    -0.45  -0.26  -0.08    -0.15  -0.03   0.06
  12   6    -0.06  -0.00   0.02    -0.04  -0.01   0.00     0.07   0.06  -0.07
  13   6    -0.06   0.00   0.09    -0.07   0.19   0.03     0.08  -0.04   0.02
  14   6    -0.03  -0.00   0.08    -0.03   0.18   0.03     0.08  -0.05   0.07
  15   6    -0.02   0.01  -0.05    -0.01   0.13   0.03     0.07  -0.06   0.00
  16   6     0.00   0.03  -0.10    -0.02   0.11   0.03     0.03  -0.06  -0.08
  17   6     0.02   0.02  -0.12    -0.01  -0.04   0.00     0.02   0.04  -0.12
  18   6     0.04   0.02  -0.08     0.03  -0.03   0.00    -0.00   0.03  -0.11
  19   6     0.07  -0.03   0.09     0.28  -0.15  -0.02    -0.21   0.09   0.06
  20   6     0.04  -0.00  -0.04     0.04  -0.02   0.00    -0.01   0.03  -0.03
  21   6     0.05  -0.03   0.05     0.05  -0.03  -0.01    -0.05   0.02   0.09
  22  16     0.09  -0.03   0.05     0.07  -0.09  -0.01    -0.08   0.06   0.02
  23  16    -0.07   0.03   0.05    -0.19   0.31   0.04     0.05  -0.16   0.06
  24  16    -0.16  -0.04  -0.10    -0.07  -0.01  -0.00     0.19   0.20  -0.00
  25  16    -0.06   0.07   0.08     0.16  -0.17  -0.02    -0.00  -0.29  -0.01
  26  17    -0.14   0.11  -0.01     0.01  -0.00  -0.00     0.00   0.01   0.00
  27   1    -0.02  -0.33   0.33    -0.01   0.03   0.01    -0.03  -0.00   0.11
  28   1    -0.28   0.23  -0.14    -0.00  -0.03   0.01    -0.08   0.00  -0.00
  29   1     0.44   0.04  -0.16    -0.04  -0.00   0.03     0.01   0.01   0.02
  30   1     0.05  -0.02   0.00     0.02   0.00  -0.02     0.04  -0.05   0.03
  31   1     0.05  -0.02  -0.01     0.02   0.02  -0.01     0.11   0.04  -0.03
  32   1    -0.02  -0.06  -0.04     0.06   0.07   0.04     0.02   0.14   0.10
  33   1     0.06  -0.05  -0.00    -0.02   0.07  -0.02    -0.15   0.15  -0.06
  34   1     0.01   0.02  -0.00     0.02  -0.02  -0.00    -0.01  -0.04  -0.06
  35   1     0.01  -0.01   0.05     0.03  -0.02  -0.01    -0.03  -0.04   0.07
  36   1    -0.00  -0.01  -0.05    -0.02   0.01   0.00     0.00   0.05  -0.04
  37   1     0.00  -0.01   0.03    -0.23  -0.00  -0.00    -0.08   0.01   0.08
  38   1     0.00   0.03   0.01    -0.13  -0.14  -0.04    -0.04   0.02   0.02
  39   1    -0.01  -0.01   0.00    -0.15  -0.15  -0.04    -0.05  -0.09  -0.00
  40   1    -0.01   0.00   0.04     0.00   0.06   0.01     0.02  -0.02   0.03
  41   1    -0.01   0.01  -0.03     0.00   0.04   0.01     0.03  -0.02  -0.01
  42   1     0.03  -0.01   0.08     0.13   0.00   0.01    -0.10  -0.02   0.05
  43   1     0.04  -0.06   0.01     0.09  -0.08  -0.01    -0.06   0.02   0.02
  44   1     0.00   0.03   0.03     0.09  -0.08  -0.02    -0.08   0.10   0.03
  45   1     0.01  -0.00  -0.01     0.01  -0.01  -0.00     0.00   0.01  -0.00
  46   1     0.01  -0.01   0.04     0.01  -0.01  -0.01    -0.02   0.00   0.05
                     25                     26                     27
                        a                      a                      a 
 Frequencies --   270.8855               286.8802               298.1051
 Red. masses --    20.1209                13.4105                12.2389
 Frc consts  --     0.0000                 0.0000                 0.0000
 IR Inten    --     1.0981                 4.5620                 0.4456
 Raman Activ --     0.0000                 0.0000                 0.0000
 Depolar     --     0.0000                 0.0000                 0.0000
 Atom AN      X      Y      Z        X      Y      Z        X      Y      Z
   1   7     0.02  -0.01  -0.01    -0.10  -0.02   0.14     0.03  -0.03  -0.06
   2   6    -0.06  -0.04   0.04    -0.07   0.10   0.02    -0.09  -0.06   0.01
   3   6    -0.15  -0.08  -0.02     0.06  -0.03   0.02     0.03  -0.17   0.03
   4   6    -0.16   0.06  -0.09     0.07  -0.03  -0.07    -0.03   0.12   0.13
   5   6    -0.13   0.04  -0.06     0.01   0.02  -0.15     0.06   0.10   0.02
   6   6    -0.11   0.00   0.05     0.00   0.08   0.01     0.08  -0.01  -0.09
   7   6    -0.03   0.02   0.10     0.02   0.06   0.17     0.01  -0.05  -0.03
   8   6     0.04   0.01   0.06    -0.03  -0.06   0.17     0.01  -0.09   0.06
   9   6     0.08   0.02  -0.03    -0.07  -0.06   0.00     0.10  -0.05   0.08
  10   6     0.10  -0.06  -0.09    -0.06   0.01  -0.21     0.12   0.01  -0.06
  11   6     0.06  -0.12   0.02     0.14   0.09   0.09    -0.17  -0.18  -0.03
  12   6     0.16  -0.08  -0.08    -0.08   0.03  -0.30     0.09   0.07  -0.17
  13   6     0.13   0.04  -0.00    -0.09  -0.03  -0.18     0.07   0.20  -0.12
  14   6     0.01   0.08   0.05    -0.14  -0.06   0.03     0.21   0.12   0.03
  15   6     0.00   0.20   0.06    -0.14  -0.03   0.15     0.22  -0.09   0.13
  16   6     0.01   0.20   0.02    -0.05   0.04  -0.01     0.07  -0.14   0.01
  17   6    -0.06  -0.05  -0.08    -0.01   0.08  -0.22     0.07  -0.03  -0.13
  18   6    -0.10  -0.08  -0.09     0.01   0.08  -0.25     0.11   0.02  -0.17
  19   6     0.15  -0.23  -0.01     0.14  -0.06   0.08    -0.24   0.13   0.06
  20   6    -0.12  -0.03  -0.03     0.01  -0.00  -0.08     0.09   0.05  -0.04
  21   6    -0.15  -0.03   0.04     0.05  -0.08   0.22    -0.01   0.04   0.18
  22  16    -0.27  -0.10  -0.04     0.15  -0.00  -0.04    -0.09   0.03  -0.05
  23  16     0.32   0.24   0.12    -0.08  -0.04   0.18    -0.19  -0.00   0.10
  24  16     0.34  -0.13  -0.01    -0.14  -0.05   0.04    -0.01  -0.10   0.06
  25  16    -0.21   0.13   0.00     0.24   0.07  -0.09    -0.19   0.13  -0.06
  26  17     0.00  -0.00   0.00     0.02  -0.04  -0.00    -0.00  -0.00   0.00
  27   1     0.01  -0.02  -0.00    -0.01   0.06  -0.02     0.02  -0.01  -0.05
  28   1     0.00   0.02   0.00     0.04  -0.09   0.06     0.04   0.01   0.00
  29   1     0.02  -0.00  -0.01    -0.11  -0.01   0.10     0.00  -0.01  -0.02
  30   1    -0.02  -0.01   0.04    -0.02   0.07  -0.02    -0.03   0.02  -0.01
  31   1    -0.01  -0.01   0.01    -0.07   0.01   0.01    -0.07  -0.03   0.03
  32   1    -0.07  -0.04  -0.02     0.03  -0.02  -0.03    -0.04  -0.10  -0.07
  33   1    -0.03  -0.05   0.01     0.01  -0.04   0.03     0.09  -0.10   0.04
  34   1    -0.03   0.02  -0.03    -0.01  -0.00  -0.06     0.04   0.04   0.01
  35   1    -0.04   0.01   0.03    -0.01   0.03   0.01     0.04  -0.01  -0.04
  36   1     0.02   0.01  -0.01    -0.03  -0.02   0.02     0.04  -0.03   0.04
  37   1     0.01  -0.04   0.03     0.09  -0.02   0.08    -0.12  -0.00   0.02
  38   1     0.02  -0.01   0.01     0.04   0.13   0.06    -0.06  -0.08  -0.01
  39   1     0.02  -0.06   0.00     0.05   0.00   0.03    -0.06  -0.13  -0.02
  40   1    -0.02   0.01   0.01    -0.05  -0.02  -0.00     0.09   0.06   0.00
  41   1    -0.01   0.06   0.02    -0.06  -0.00   0.06     0.10  -0.05   0.06
  42   1     0.09  -0.02   0.03     0.07  -0.00   0.10    -0.14  -0.04   0.04
  43   1     0.06  -0.13  -0.01     0.05  -0.12   0.02    -0.09   0.04   0.03
  44   1     0.05  -0.09  -0.00     0.05   0.03   0.05    -0.08   0.14   0.05
  45   1    -0.02  -0.00  -0.00    -0.01  -0.01  -0.01     0.04   0.03   0.00
  46   1    -0.05  -0.01   0.03     0.01  -0.05   0.13    -0.01   0.02   0.10
                     28                     29                     30
                        a                      a                      a 
 Frequencies --   321.0044               349.5231               360.1430
 Red. masses --    13.2651                18.2109                21.4185
 Frc consts  --     0.0000                 0.0000                 0.0000
 IR Inten    --     6.6212                 3.9636                 2.1569
 Raman Activ --     0.0000                 0.0000                 0.0000
 Depolar     --     0.0000                 0.0000                 0.0000
 Atom AN      X      Y      Z        X      Y      Z        X      Y      Z
   1   7     0.10   0.02  -0.21     0.05   0.03  -0.09     0.02  -0.01  -0.07
   2   6     0.06  -0.12  -0.05     0.00  -0.07   0.01    -0.07  -0.07   0.03
   3   6    -0.00   0.13   0.05    -0.20   0.16   0.01    -0.01  -0.08   0.05
   4   6     0.01  -0.05   0.24    -0.12  -0.12  -0.05    -0.04   0.09   0.10
   5   6     0.03  -0.07   0.23    -0.20  -0.11   0.06     0.12   0.05  -0.03
   6   6     0.04  -0.04  -0.17    -0.18   0.08   0.02     0.12  -0.13  -0.07
   7   6    -0.01  -0.03  -0.28     0.03   0.17  -0.08     0.04  -0.17   0.05
   8   6    -0.00   0.09  -0.09     0.05   0.03  -0.10     0.13   0.09   0.14
   9   6    -0.04   0.05   0.18     0.02  -0.04   0.02     0.10   0.10   0.03
  10   6    -0.06   0.05   0.11     0.04  -0.16   0.06     0.08   0.02  -0.09
  11   6    -0.05   0.09  -0.01     0.20  -0.08  -0.02     0.04  -0.03   0.01
  12   6    -0.01   0.06  -0.10     0.02  -0.13   0.01     0.03   0.01  -0.08
  13   6     0.04  -0.07  -0.23    -0.08   0.14  -0.04    -0.06  -0.02   0.03
  14   6    -0.06  -0.06  -0.12    -0.02   0.12  -0.05    -0.15  -0.02   0.08
  15   6    -0.09  -0.00   0.18    -0.01  -0.05   0.05    -0.15  -0.03  -0.07
  16   6    -0.02   0.05   0.13    -0.06  -0.10   0.06    -0.14  -0.02  -0.12
  17   6    -0.02   0.05  -0.08    -0.00  -0.01   0.00    -0.09   0.10  -0.01
  18   6    -0.06   0.04  -0.19     0.07   0.05  -0.05    -0.09   0.08   0.08
  19   6     0.06  -0.08   0.04     0.02   0.06   0.03     0.16  -0.00  -0.00
  20   6    -0.07  -0.00  -0.09     0.08   0.02  -0.03    -0.08  -0.02   0.05
  21   6    -0.05  -0.07   0.19     0.08  -0.00   0.09     0.07  -0.04  -0.11
  22  16    -0.00   0.02  -0.09     0.11  -0.01  -0.04     0.22   0.06   0.08
  23  16     0.21  -0.07   0.07    -0.45   0.08  -0.02    -0.36  -0.14  -0.02
  24  16    -0.00   0.15   0.17     0.29  -0.21   0.01     0.38   0.23   0.05
  25  16    -0.10  -0.16   0.01     0.16   0.07   0.09    -0.30  -0.04  -0.09
  26  17    -0.02   0.04   0.01    -0.01   0.02   0.01    -0.00   0.00   0.00
  27   1     0.02  -0.05  -0.02     0.01  -0.02  -0.00     0.01  -0.01  -0.05
  28   1    -0.02   0.10  -0.06    -0.01   0.07  -0.03     0.02   0.03  -0.00
  29   1     0.10   0.01  -0.13     0.05   0.01  -0.07     0.01  -0.01  -0.04
  30   1     0.02  -0.08   0.01     0.00  -0.07   0.05    -0.02  -0.00   0.01
  31   1     0.07  -0.02  -0.02     0.06  -0.00  -0.02    -0.04  -0.02   0.02
  32   1     0.03   0.09   0.10    -0.01   0.12   0.12    -0.04  -0.05  -0.02
  33   1    -0.01   0.12  -0.06    -0.14   0.14  -0.07     0.05  -0.05   0.03
  34   1     0.02  -0.02   0.10    -0.07  -0.04   0.03     0.07   0.04  -0.01
  35   1     0.03  -0.01  -0.09    -0.10   0.05   0.01     0.06  -0.05  -0.03
  36   1    -0.02   0.01   0.08    -0.01  -0.00   0.01     0.01   0.04   0.02
  37   1    -0.01   0.03  -0.02     0.10  -0.05  -0.02    -0.00  -0.00   0.02
  38   1    -0.00   0.00  -0.02     0.07  -0.02  -0.01    -0.00   0.01   0.02
  39   1    -0.02   0.05  -0.01     0.05   0.03  -0.00     0.02  -0.04   0.01
  40   1    -0.04  -0.03  -0.06     0.02   0.06  -0.03    -0.05  -0.01   0.04
  41   1    -0.05   0.00   0.09     0.02  -0.03   0.03    -0.03  -0.01  -0.03
  42   1     0.05  -0.00   0.06    -0.01   0.00   0.02     0.10   0.05   0.00
  43   1     0.02  -0.10   0.01    -0.00   0.01   0.01     0.06  -0.02  -0.01
  44   1     0.03   0.00   0.03     0.00   0.05   0.02     0.05  -0.06  -0.02
  45   1    -0.02  -0.01  -0.02     0.02   0.00  -0.01    -0.05  -0.03   0.01
  46   1    -0.01  -0.04   0.11     0.02   0.00   0.05     0.03  -0.03  -0.06
                     31                     32                     33
                        a                      a                      a 
 Frequencies --   370.9138               401.4883               420.5505
 Red. masses --    12.3379                12.7210                17.3243
 Frc consts  --     0.0000                 0.0000                 0.0000
 IR Inten    --     6.7196                 9.2114                 0.3607
 Raman Activ --     0.0000                 0.0000                 0.0000
 Depolar     --     0.0000                 0.0000                 0.0000
 Atom AN      X      Y      Z        X      Y      Z        X      Y      Z
   1   7    -0.07  -0.02   0.21    -0.05  -0.00   0.21     0.00   0.00  -0.01
   2   6     0.06   0.15  -0.01     0.16   0.18  -0.07    -0.03  -0.02   0.02
   3   6     0.06  -0.13  -0.14     0.06  -0.04  -0.21    -0.09   0.02  -0.00
   4   6     0.01   0.10  -0.24     0.01   0.03  -0.20    -0.06  -0.02  -0.09
   5   6     0.04   0.04  -0.01    -0.06  -0.03   0.20    -0.07  -0.03  -0.00
   6   6     0.03  -0.08   0.15    -0.05  -0.02   0.03    -0.06   0.04   0.05
   7   6     0.01  -0.06  -0.05    -0.01   0.05  -0.31     0.04   0.08  -0.03
   8   6     0.05   0.06  -0.19     0.00   0.07  -0.22     0.01  -0.11  -0.09
   9   6     0.05   0.05  -0.09    -0.03  -0.02   0.19     0.19  -0.06   0.02
  10   6     0.02  -0.03   0.21    -0.02  -0.03   0.06     0.20   0.07   0.06
  11   6     0.00  -0.00  -0.04     0.03   0.01  -0.01    -0.05  -0.10  -0.02
  12   6    -0.00  -0.04   0.27     0.02   0.02  -0.23     0.10   0.13   0.01
  13   6    -0.00  -0.01  -0.01     0.01   0.05  -0.20     0.12   0.06  -0.03
  14   6    -0.02   0.04  -0.24    -0.01  -0.01   0.12     0.15   0.03   0.02
  15   6    -0.05  -0.03   0.09    -0.01  -0.01   0.07     0.13  -0.05   0.02
  16   6    -0.06  -0.07   0.29     0.01   0.04  -0.23    -0.03  -0.09  -0.05
  17   6    -0.04   0.01   0.12     0.02   0.03  -0.21    -0.06   0.17  -0.02
  18   6    -0.03   0.06  -0.16     0.01  -0.02   0.08    -0.28   0.07   0.00
  19   6     0.05  -0.01   0.02    -0.01   0.01  -0.01     0.12  -0.12  -0.02
  20   6    -0.03   0.03  -0.16     0.01  -0.03   0.17    -0.30  -0.04   0.00
  21   6    -0.01  -0.07   0.26     0.03   0.05  -0.23    -0.12  -0.09  -0.07
  22  16     0.07   0.06  -0.15    -0.01  -0.05   0.14     0.16   0.32   0.10
  23  16    -0.07  -0.03  -0.13    -0.05  -0.00   0.14    -0.00  -0.29  -0.03
  24  16     0.10   0.09  -0.01     0.08  -0.05   0.14    -0.25  -0.06  -0.00
  25  16    -0.16  -0.03   0.09    -0.09  -0.06   0.15     0.15   0.15   0.07
  26  17     0.01  -0.03  -0.01     0.00  -0.02  -0.01     0.00   0.00   0.00
  27   1    -0.02   0.03   0.07    -0.02   0.02   0.11     0.00  -0.00  -0.01
  28   1    -0.02  -0.10   0.03    -0.05  -0.10   0.01     0.00   0.02   0.00
  29   1    -0.06   0.00   0.12    -0.04   0.01   0.12     0.01   0.00  -0.01
  30   1     0.02   0.06  -0.02     0.05   0.03  -0.02    -0.01  -0.01   0.02
  31   1    -0.01   0.03   0.00     0.06   0.05  -0.03     0.00  -0.00   0.00
  32   1    -0.03  -0.11  -0.16    -0.01  -0.06  -0.15    -0.02   0.02   0.03
  33   1     0.06  -0.14   0.06     0.04  -0.10   0.02    -0.06   0.02  -0.01
  34   1     0.02   0.02  -0.00    -0.03  -0.02   0.10    -0.03  -0.01   0.00
  35   1     0.02  -0.04   0.08    -0.01  -0.01   0.01    -0.04   0.03   0.03
  36   1     0.01   0.02  -0.06    -0.02  -0.01   0.10     0.09  -0.04   0.01
  37   1    -0.01   0.01  -0.05     0.02  -0.00  -0.02    -0.09   0.03  -0.01
  38   1     0.02  -0.06  -0.04     0.02  -0.01  -0.01    -0.02  -0.09  -0.02
  39   1    -0.02   0.05  -0.02     0.00   0.03  -0.00    -0.03  -0.08  -0.02
  40   1    -0.01   0.02  -0.12    -0.00  -0.01   0.07     0.05   0.01   0.01
  41   1    -0.01  -0.01   0.05    -0.00  -0.01   0.05     0.07  -0.04   0.01
  42   1     0.03   0.01   0.04    -0.01   0.00  -0.02     0.13   0.06   0.02
  43   1     0.01  -0.06   0.01     0.00   0.03  -0.00     0.06  -0.11  -0.02
  44   1     0.03   0.02   0.03    -0.01  -0.01  -0.01     0.06  -0.11  -0.02
  45   1    -0.02   0.00  -0.06     0.00  -0.01   0.08    -0.11  -0.03   0.00
  46   1    -0.00  -0.04   0.13     0.01   0.03  -0.10    -0.01  -0.09  -0.03
                     34                     35                     36
                        a                      a                      a 
 Frequencies --   448.5739               468.1877               486.6357
 Red. masses --    11.5288                15.0382                12.6378
 Frc consts  --     0.0000                 0.0000                 0.0000
 IR Inten    --     1.2662                 0.0866                 3.9066
 Raman Activ --     0.0000                 0.0000                 0.0000
 Depolar     --     0.0000                 0.0000                 0.0000
 Atom AN      X      Y      Z        X      Y      Z        X      Y      Z
   1   7    -0.01   0.01   0.09     0.00   0.01   0.04     0.00   0.01   0.08
   2   6     0.14   0.12  -0.08     0.12   0.08  -0.08     0.11   0.10  -0.07
   3   6     0.06   0.02  -0.13     0.16   0.03  -0.04    -0.05   0.01  -0.15
   4   6     0.02  -0.03   0.05     0.09  -0.04   0.23    -0.07  -0.05   0.05
   5   6    -0.09  -0.04   0.22    -0.05   0.03   0.05    -0.13  -0.08   0.25
   6   6    -0.07   0.06  -0.18    -0.06   0.07  -0.15    -0.08   0.05  -0.28
   7   6    -0.05   0.05  -0.11    -0.13  -0.00   0.15     0.02   0.02   0.04
   8   6    -0.05  -0.01   0.16    -0.13   0.03   0.19     0.03  -0.11   0.32
   9   6    -0.04  -0.01   0.14    -0.19   0.06  -0.14     0.22   0.01  -0.07
  10   6    -0.01   0.04  -0.24    -0.19  -0.01   0.00     0.23   0.02  -0.10
  11   6     0.01   0.02   0.01    -0.00   0.14   0.03     0.05  -0.17  -0.03
  12   6     0.04   0.02  -0.21     0.01  -0.12   0.18     0.02   0.04   0.17
  13   6     0.01  -0.01   0.25     0.03   0.09   0.00     0.00  -0.07   0.11
  14   6     0.05  -0.01   0.21     0.18   0.09  -0.14    -0.11   0.01  -0.17
  15   6     0.09   0.04  -0.29     0.17  -0.07   0.16    -0.14   0.02   0.10
  16   6     0.01  -0.05   0.06     0.06  -0.09   0.03    -0.08   0.04   0.11
  17   6    -0.02  -0.04   0.34     0.04   0.08  -0.17    -0.04   0.02  -0.15
  18   6    -0.06  -0.00   0.03    -0.10  -0.01  -0.06     0.07   0.06  -0.06
  19   6     0.01  -0.03  -0.00     0.01  -0.10  -0.02     0.02   0.09   0.02
  20   6    -0.05   0.04  -0.23    -0.14  -0.05   0.12     0.07  -0.01   0.13
  21   6    -0.05  -0.07   0.24    -0.08  -0.01  -0.14     0.08   0.04  -0.09
  22  16     0.04   0.12  -0.12     0.05   0.21   0.12    -0.04  -0.20   0.01
  23  16    -0.03  -0.00  -0.08    -0.07   0.04  -0.00     0.04  -0.07  -0.06
  24  16     0.05  -0.09   0.00     0.19  -0.22  -0.11    -0.14   0.17  -0.07
  25  16    -0.05  -0.06   0.01    -0.10  -0.16  -0.11     0.01   0.10   0.00
  26  17     0.00  -0.01  -0.00    -0.00  -0.00  -0.00     0.00  -0.01  -0.00
  27   1    -0.01   0.01   0.07    -0.01   0.01   0.04    -0.01   0.01   0.07
  28   1    -0.04  -0.06  -0.01    -0.02  -0.04  -0.01    -0.03  -0.05  -0.01
  29   1    -0.01   0.01   0.06    -0.01   0.01   0.04    -0.00   0.01   0.06
  30   1     0.04   0.00  -0.01     0.04   0.01  -0.03     0.03  -0.02   0.02
  31   1     0.07   0.04  -0.04     0.04   0.02  -0.03     0.09   0.04  -0.04
  32   1     0.02  -0.01  -0.08     0.06   0.00  -0.05    -0.01  -0.01  -0.08
  33   1     0.04  -0.03  -0.01     0.07  -0.01  -0.00    -0.00  -0.03  -0.01
  34   1    -0.04  -0.03   0.10    -0.04  -0.01   0.01    -0.04  -0.04   0.12
  35   1    -0.02   0.03  -0.10     0.00   0.02  -0.09    -0.04   0.05  -0.16
  36   1    -0.01  -0.02   0.09    -0.06   0.03  -0.09     0.08  -0.00  -0.06
  37   1     0.01  -0.01   0.04     0.06  -0.01   0.00    -0.05  -0.00   0.02
  38   1    -0.02   0.07   0.04     0.01   0.08   0.02    -0.01  -0.07   0.00
  39   1     0.03  -0.05   0.02     0.00   0.09   0.02     0.02  -0.13  -0.01
  40   1     0.02  -0.00   0.10     0.08   0.06  -0.08    -0.06  -0.01  -0.11
  41   1     0.04   0.02  -0.17     0.07  -0.04   0.08    -0.05   0.01   0.04
  42   1     0.02   0.01  -0.00     0.03   0.00   0.01    -0.01   0.01   0.01
  43   1     0.01  -0.02  -0.01     0.00  -0.07  -0.01    -0.01   0.02   0.01
  44   1     0.01  -0.03  -0.01     0.01  -0.04  -0.00     0.01   0.05   0.02
  45   1    -0.01   0.02  -0.13    -0.04  -0.02   0.08     0.01  -0.02   0.08
  46   1    -0.01  -0.04   0.08    -0.01  -0.03  -0.05     0.01   0.03  -0.02
                     37                     38                     39
                        a                      a                      a 
 Frequencies --   515.8465               530.3772               538.9289
 Red. masses --    11.6647                14.3859                16.5412
 Frc consts  --     0.0000                 0.0000                 0.0000
 IR Inten    --     2.0861                 3.8734                 1.1903
 Raman Activ --     0.0000                 0.0000                 0.0000
 Depolar     --     0.0000                 0.0000                 0.0000
 Atom AN      X      Y      Z        X      Y      Z        X      Y      Z
   1   7    -0.01  -0.01  -0.03    -0.01  -0.01  -0.01     0.01   0.01   0.03
   2   6    -0.09  -0.06   0.06    -0.10  -0.05   0.07     0.08   0.06  -0.06
   3   6    -0.06  -0.02   0.05    -0.15  -0.04   0.00     0.05   0.02  -0.05
   4   6    -0.01   0.06  -0.21    -0.06   0.08  -0.35    -0.01  -0.07   0.27
   5   6     0.09  -0.02   0.02     0.11  -0.10   0.25    -0.08   0.03  -0.14
   6   6     0.09  -0.05   0.08     0.15  -0.05  -0.16    -0.10   0.00   0.04
   7   6     0.06   0.00  -0.22     0.12  -0.05  -0.11    -0.02  -0.00   0.14
   8   6     0.02   0.01  -0.02     0.06  -0.05   0.30     0.05   0.08  -0.18
   9   6    -0.09  -0.06   0.19    -0.09  -0.04  -0.12     0.05   0.00   0.04
  10   6    -0.07   0.04  -0.26    -0.11  -0.09  -0.02     0.09  -0.23   0.01
  11   6    -0.03   0.06  -0.00     0.02  -0.04   0.00     0.20  -0.32  -0.05
  12   6    -0.03   0.00  -0.12    -0.13  -0.09   0.12    -0.11  -0.07  -0.10
  13   6    -0.05  -0.08   0.43    -0.10  -0.01  -0.14    -0.12  -0.05   0.00
  14   6     0.04   0.01  -0.15     0.03  -0.07  -0.03    -0.02  -0.10   0.03
  15   6     0.04  -0.02  -0.04     0.04  -0.09   0.07     0.01  -0.08  -0.08
  16   6     0.02  -0.09   0.39     0.13   0.00  -0.19     0.11  -0.05   0.12
  17   6     0.05   0.03  -0.20     0.12  -0.06   0.05     0.13  -0.06  -0.02
  18   6     0.00   0.00  -0.22    -0.00  -0.17   0.08     0.02  -0.16  -0.10
  19   6    -0.02  -0.05  -0.02    -0.08  -0.19  -0.03    -0.10  -0.22  -0.05
  20   6    -0.03  -0.05   0.22     0.00   0.00  -0.10     0.01  -0.03   0.05
  21   6    -0.02   0.03  -0.17    -0.07  -0.00   0.06    -0.06   0.03  -0.03
  22  16     0.01   0.07   0.08     0.04   0.27   0.03     0.05   0.29   0.07
  23  16     0.00   0.08  -0.13    -0.01   0.16   0.08    -0.01   0.18   0.01
  24  16     0.03  -0.00   0.03    -0.01   0.19  -0.03    -0.13   0.35   0.10
  25  16     0.04   0.02   0.08     0.08   0.09   0.09    -0.06  -0.00  -0.06
  26  17    -0.00   0.00   0.00    -0.00   0.00  -0.00     0.00  -0.00   0.00
  27   1     0.00  -0.01  -0.03     0.00  -0.01  -0.03    -0.00   0.01   0.03
  28   1     0.02   0.03   0.01     0.01   0.03   0.02    -0.02  -0.03  -0.01
  29   1     0.01  -0.01  -0.03     0.01  -0.01  -0.02    -0.00   0.01   0.03
  30   1    -0.03   0.00   0.01    -0.03  -0.00   0.03     0.02  -0.01  -0.00
  31   1    -0.05  -0.02   0.03    -0.04  -0.02   0.02     0.05   0.02  -0.03
  32   1    -0.03  -0.00   0.04    -0.07  -0.02   0.02     0.03   0.01  -0.04
  33   1    -0.04   0.00   0.01    -0.06  -0.01   0.01     0.04  -0.00  -0.01
  34   1     0.04   0.00   0.03     0.06  -0.02   0.15    -0.04   0.01  -0.09
  35   1     0.03  -0.03   0.06     0.04  -0.01  -0.07    -0.04   0.01   0.00
  36   1    -0.04  -0.02   0.13    -0.06   0.03  -0.10    -0.03   0.02   0.05
  37   1     0.01  -0.01   0.03     0.04  -0.04   0.00     0.06  -0.10  -0.02
  38   1    -0.04   0.09   0.04     0.01   0.02   0.01     0.06  -0.10  -0.02
  39   1     0.02  -0.03   0.02     0.01   0.01   0.01     0.05  -0.07  -0.02
  40   1     0.03   0.03  -0.14     0.03  -0.00   0.01     0.02  -0.01   0.02
  41   1     0.01   0.01  -0.08    -0.01  -0.02   0.07    -0.02   0.00  -0.06
  42   1    -0.01  -0.02   0.02    -0.03  -0.06  -0.03    -0.05  -0.08  -0.01
  43   1    -0.02  -0.07   0.00    -0.02  -0.02  -0.01    -0.04  -0.06  -0.01
  44   1     0.01   0.03   0.03    -0.03  -0.07  -0.03    -0.03  -0.03  -0.00
  45   1    -0.01  -0.03   0.15     0.03   0.03  -0.06     0.04   0.02   0.05
  46   1    -0.00  -0.00  -0.02    -0.01  -0.02   0.00    -0.01  -0.01  -0.01
                     40                     41                     42
                        a                      a                      a 
 Frequencies --   552.3540               564.4348               583.4347
 Red. masses --    10.4164                11.3599                13.5407
 Frc consts  --     0.0000                 0.0000                 0.0000
 IR Inten    --     0.4585                 0.1214                 3.7579
 Raman Activ --     0.0000                 0.0000                 0.0000
 Depolar     --     0.0000                 0.0000                 0.0000
 Atom AN      X      Y      Z        X      Y      Z        X      Y      Z
   1   7    -0.00  -0.00   0.00     0.00   0.00  -0.01    -0.02  -0.02  -0.06
   2   6    -0.02  -0.01   0.02     0.02   0.00  -0.01    -0.06  -0.07   0.06
   3   6    -0.06  -0.01  -0.01     0.09   0.01   0.04     0.18  -0.00   0.17
   4   6    -0.03   0.02  -0.12     0.05  -0.01   0.11     0.16   0.10  -0.30
   5   6     0.03  -0.05   0.14    -0.04   0.08  -0.19    -0.03   0.10   0.15
   6   6     0.06   0.00  -0.15    -0.07  -0.00   0.28    -0.03   0.14  -0.07
   7   6     0.02  -0.06   0.19    -0.02   0.14  -0.59    -0.12   0.06   0.09
   8   6     0.02  -0.02   0.01    -0.06  -0.06   0.48    -0.07   0.11  -0.02
   9   6    -0.01   0.01  -0.15     0.03   0.06  -0.10    -0.08   0.07   0.01
  10   6    -0.05  -0.01   0.25     0.05  -0.04  -0.00    -0.00  -0.21  -0.04
  11   6    -0.05   0.07   0.02     0.06  -0.09  -0.00     0.20  -0.28  -0.04
  12   6     0.00   0.02  -0.05    -0.00  -0.04   0.10    -0.05  -0.12  -0.03
  13   6     0.03   0.06  -0.33     0.01   0.04  -0.19    -0.01   0.05   0.01
  14   6    -0.02  -0.06   0.33    -0.00  -0.02   0.11     0.16   0.02   0.01
  15   6     0.02   0.07  -0.33     0.01   0.02  -0.10     0.16  -0.00   0.01
  16   6    -0.03  -0.07   0.39    -0.01  -0.02   0.09    -0.01  -0.05  -0.01
  17   6    -0.00  -0.00   0.01    -0.01  -0.00   0.02    -0.07   0.10   0.01
  18   6     0.02   0.06  -0.26     0.00   0.02  -0.08    -0.06   0.18   0.03
  19   6     0.00   0.01  -0.01     0.01   0.01   0.00     0.12   0.23   0.06
  20   6    -0.01  -0.04   0.19    -0.01  -0.01   0.05    -0.09  -0.04  -0.01
  21   6     0.01   0.02  -0.12     0.00   0.00  -0.04    -0.02  -0.07  -0.02
  22  16    -0.00  -0.01   0.02    -0.00  -0.01   0.00    -0.08  -0.19  -0.04
  23  16     0.00  -0.00  -0.01     0.00  -0.01   0.01     0.06  -0.00   0.00
  24  16     0.03  -0.04  -0.01    -0.03   0.05  -0.06    -0.12   0.19   0.03
  25  16     0.04   0.04  -0.00    -0.05  -0.09   0.05    -0.07  -0.22  -0.02
  26  17    -0.00   0.00  -0.00    -0.00  -0.00   0.00    -0.00   0.00   0.00
  27   1     0.00  -0.00  -0.00     0.00   0.00  -0.00     0.00   0.00  -0.05
  28   1     0.00   0.01   0.00     0.00  -0.00  -0.00     0.02   0.04   0.01
  29   1     0.00  -0.00  -0.00    -0.00  -0.00  -0.01    -0.01  -0.01  -0.05
  30   1    -0.01  -0.00   0.01     0.01   0.02  -0.02    -0.02   0.07  -0.07
  31   1    -0.00  -0.00   0.00    -0.01  -0.00   0.00    -0.12  -0.05   0.05
  32   1    -0.03  -0.01  -0.00     0.04   0.01   0.02     0.04   0.02   0.10
  33   1    -0.02  -0.01   0.00     0.03   0.01   0.00     0.01   0.04   0.02
  34   1     0.02  -0.01   0.07    -0.03   0.02  -0.08    -0.04   0.00   0.08
  35   1     0.02   0.01  -0.10    -0.03  -0.03   0.22     0.01   0.03  -0.04
  36   1     0.00   0.01  -0.10     0.01   0.04  -0.13    -0.07   0.05   0.01
  37   1    -0.01   0.02  -0.03     0.01  -0.02   0.01     0.10  -0.11  -0.02
  38   1     0.02  -0.03  -0.03     0.02  -0.02   0.00     0.06  -0.05  -0.01
  39   1    -0.04   0.08  -0.01     0.02  -0.03  -0.00     0.06  -0.05  -0.00
  40   1    -0.01  -0.04   0.20    -0.00  -0.01   0.08     0.07   0.03   0.01
  41   1     0.01   0.04  -0.21     0.01   0.01  -0.05     0.08  -0.02   0.00
  42   1    -0.00  -0.00   0.03     0.00   0.00   0.01     0.07   0.10   0.03
  43   1    -0.02  -0.06   0.01    -0.01  -0.02   0.00     0.04   0.04   0.01
  44   1     0.02   0.06   0.04     0.01   0.02   0.01     0.04   0.04   0.01
  45   1    -0.01  -0.03   0.13    -0.01  -0.01   0.04    -0.07  -0.04  -0.01
  46   1    -0.00   0.00   0.00    -0.00  -0.00   0.00    -0.01  -0.02  -0.00
                     43                     44                     45
                        a                      a                      a 
 Frequencies --   590.1696               592.6871               593.6909
 Red. masses --    10.9515                11.0186                13.4944
 Frc consts  --     0.0000                 0.0000                 0.0000
 IR Inten    --     0.8466                 0.4415                 6.1865
 Raman Activ --     0.0000                 0.0000                 0.0000
 Depolar     --     0.0000                 0.0000                 0.0000
 Atom AN      X      Y      Z        X      Y      Z        X      Y      Z
   1   7     0.00   0.00  -0.00     0.00   0.00   0.01     0.02   0.01   0.06
   2   6     0.00   0.00  -0.00     0.00   0.00  -0.00     0.03   0.06  -0.04
   3   6    -0.01  -0.00  -0.01    -0.02  -0.00  -0.01    -0.23  -0.01  -0.18
   4   6    -0.01  -0.00   0.01    -0.02  -0.01   0.02    -0.18  -0.09   0.26
   5   6     0.00  -0.00  -0.01     0.01  -0.01  -0.01     0.09  -0.14  -0.11
   6   6     0.00  -0.01   0.00     0.01  -0.01  -0.00     0.10  -0.17   0.03
   7   6     0.00  -0.01   0.04     0.01  -0.01  -0.01     0.14  -0.10  -0.05
   8   6     0.02   0.03  -0.18     0.00  -0.01   0.05     0.09  -0.03   0.01
   9   6    -0.02  -0.05   0.25    -0.01   0.00  -0.08    -0.18  -0.13  -0.04
  10   6     0.02   0.09  -0.49    -0.03  -0.04   0.17    -0.18  -0.12  -0.03
  11   6     0.00   0.01  -0.03    -0.00  -0.00   0.01    -0.00  -0.02  -0.01
  12   6    -0.04  -0.11   0.55     0.00   0.03  -0.21    -0.11  -0.08  -0.02
  13   6     0.02   0.06  -0.32    -0.02  -0.03   0.18    -0.04   0.03  -0.01
  14   6     0.00  -0.01   0.07     0.02   0.02  -0.09     0.19  -0.02   0.02
  15   6     0.01   0.00  -0.02     0.01  -0.02   0.11     0.19  -0.03  -0.00
  16   6     0.01   0.02  -0.09     0.02   0.06  -0.37     0.02  -0.07   0.02
  17   6    -0.02  -0.04   0.22    -0.04  -0.10   0.55    -0.05   0.12  -0.03
  18   6     0.01   0.05  -0.21     0.02   0.11  -0.46    -0.07   0.18   0.08
  19   6     0.00   0.01  -0.01     0.01   0.03  -0.02     0.14   0.26   0.06
  20   6    -0.01  -0.02   0.11    -0.02  -0.05   0.22    -0.11  -0.05  -0.04
  21   6     0.00   0.01  -0.07     0.01   0.02  -0.16    -0.04  -0.10  -0.01
  22  16    -0.00  -0.00  -0.01    -0.01  -0.01  -0.03    -0.10  -0.18  -0.04
  23  16    -0.00  -0.01   0.05     0.00   0.00   0.02     0.06   0.07   0.02
  24  16     0.00   0.01  -0.02    -0.00   0.01   0.01    -0.01   0.19   0.03
  25  16     0.00   0.01  -0.00     0.01   0.02   0.00     0.09   0.23   0.02
  26  17    -0.00   0.00   0.00    -0.00  -0.00  -0.00     0.00  -0.00  -0.00
  27   1    -0.00  -0.00   0.00     0.00  -0.00   0.00    -0.00  -0.00   0.04
  28   1    -0.00  -0.00  -0.00    -0.00  -0.00  -0.00    -0.02  -0.03  -0.01
  29   1     0.00   0.00   0.00     0.00   0.00   0.00     0.01   0.01   0.05
  30   1     0.00  -0.00   0.00     0.00  -0.01   0.01     0.01  -0.08   0.08
  31   1     0.00   0.00  -0.00     0.01   0.00  -0.00     0.13   0.05  -0.05
  32   1    -0.00  -0.00  -0.00    -0.01  -0.00  -0.01    -0.06  -0.02  -0.11
  33   1    -0.00  -0.00  -0.00    -0.00  -0.00  -0.00    -0.02  -0.05  -0.01
  34   1     0.00   0.00  -0.01     0.01  -0.00  -0.00     0.08  -0.00  -0.07
  35   1     0.00   0.00  -0.01     0.00  -0.00   0.00     0.01  -0.04   0.02
  36   1    -0.01  -0.03   0.17    -0.00   0.01  -0.06    -0.10  -0.00  -0.01
  37   1    -0.00  -0.02   0.07     0.01   0.00  -0.03     0.06  -0.05  -0.01
  38   1    -0.06   0.12   0.07     0.02  -0.04  -0.02     0.01   0.04   0.01
  39   1     0.06  -0.13   0.03    -0.02   0.05  -0.01     0.01   0.04   0.01
  40   1    -0.00  -0.02   0.09     0.01   0.01  -0.05     0.09   0.02   0.01
  41   1     0.00  -0.00   0.02    -0.00  -0.02   0.10     0.08  -0.02  -0.01
  42   1     0.00  -0.00   0.03     0.00  -0.00   0.07     0.08   0.12   0.02
  43   1    -0.02  -0.06   0.01    -0.04  -0.13   0.02     0.05   0.05   0.01
  44   1     0.02   0.05   0.03     0.04   0.12   0.07     0.04   0.03   0.00
  45   1    -0.01  -0.02   0.07    -0.02  -0.04   0.16    -0.07  -0.05  -0.03
  46   1    -0.00  -0.01   0.02    -0.00  -0.01   0.06    -0.01  -0.02  -0.01
                     46                     47                     48
                        a                      a                      a 
 Frequencies --   655.7402               677.2281               689.7558
 Red. masses --    15.3434                16.1481                17.8692
 Frc consts  --     0.0000                 0.0000                 0.0000
 IR Inten    --     1.0196                14.7353                 1.4851
 Raman Activ --     0.0000                 0.0000                 0.0000
 Depolar     --     0.0000                 0.0000                 0.0000
 Atom AN      X      Y      Z        X      Y      Z        X      Y      Z
   1   7     0.00   0.00   0.01     0.00  -0.01   0.03    -0.00  -0.00   0.00
   2   6    -0.02   0.00   0.00    -0.11  -0.00   0.03    -0.03  -0.00   0.01
   3   6    -0.08   0.00  -0.04    -0.35   0.07  -0.13    -0.06   0.03  -0.01
   4   6    -0.04   0.01   0.03    -0.16   0.27   0.11    -0.03   0.10   0.02
   5   6     0.06  -0.01  -0.00     0.09   0.22   0.03    -0.04   0.11   0.02
   6   6     0.06  -0.01   0.00     0.15   0.14   0.04    -0.02   0.05   0.01
   7   6     0.00  -0.01  -0.00    -0.06   0.07   0.01    -0.01   0.03   0.01
   8   6    -0.02   0.05   0.01    -0.07   0.15   0.02     0.00  -0.03  -0.01
   9   6    -0.15  -0.00  -0.01     0.03   0.19   0.04     0.13   0.01   0.01
  10   6    -0.10  -0.11  -0.03     0.04  -0.02  -0.00     0.09   0.07   0.02
  11   6     0.07  -0.10  -0.01     0.06  -0.07  -0.01    -0.04   0.06   0.01
  12   6     0.00  -0.08  -0.02     0.04  -0.02   0.00    -0.02   0.05   0.01
  13   6     0.06   0.13   0.03     0.02   0.04   0.01    -0.04  -0.21  -0.04
  14   6     0.07   0.19   0.04    -0.05   0.06   0.01     0.10  -0.32  -0.05
  15   6     0.09   0.24   0.05    -0.04   0.01   0.00     0.04  -0.26  -0.05
  16   6    -0.12   0.12   0.01    -0.00   0.01   0.00     0.05  -0.17  -0.03
  17   6    -0.13  -0.06  -0.02     0.03  -0.00   0.00    -0.06   0.03   0.00
  18   6    -0.13  -0.08  -0.02     0.06  -0.01   0.00    -0.20   0.05  -0.00
  19   6    -0.17  -0.25  -0.06     0.03   0.03   0.01    -0.05  -0.04  -0.01
  20   6    -0.10   0.38   0.07     0.07  -0.12  -0.02    -0.25   0.31   0.05
  21   6     0.22   0.32   0.08    -0.05  -0.09  -0.02     0.12   0.22   0.05
  22  16     0.21  -0.19  -0.02    -0.05   0.09   0.01     0.13  -0.26  -0.04
  23  16     0.04  -0.33  -0.06     0.01  -0.06  -0.01    -0.04   0.44   0.08
  24  16    -0.06   0.09   0.01    -0.10  -0.12  -0.03     0.03  -0.06  -0.01
  25  16     0.04  -0.01  -0.00     0.27  -0.44  -0.07     0.07  -0.15  -0.02
  26  17    -0.00  -0.00  -0.00    -0.00  -0.01  -0.00    -0.00  -0.00   0.00
  27   1     0.00  -0.01  -0.00     0.01  -0.05  -0.03     0.00  -0.01  -0.01
  28   1     0.00   0.00   0.00     0.02   0.02   0.02     0.01   0.01   0.01
  29   1     0.01   0.00   0.01     0.04   0.01   0.01     0.01   0.00  -0.00
  30   1    -0.00  -0.03   0.03    -0.03  -0.15   0.13    -0.01  -0.03   0.02
  31   1     0.03   0.01  -0.01     0.14   0.05  -0.05     0.02   0.01  -0.01
  32   1    -0.03  -0.01  -0.03    -0.19  -0.09  -0.18    -0.04  -0.02  -0.04
  33   1    -0.00  -0.02   0.00     0.04  -0.10   0.05     0.02  -0.02   0.02
  34   1     0.03   0.01  -0.00     0.06   0.09   0.02    -0.01   0.03   0.01
  35   1     0.02  -0.01  -0.00     0.09   0.01   0.00     0.01   0.01   0.00
  36   1    -0.08   0.03   0.00    -0.01   0.06   0.01     0.07  -0.02   0.00
  37   1     0.07  -0.07  -0.01     0.02  -0.02  -0.00    -0.06   0.05   0.01
  38   1     0.02   0.01   0.00     0.02  -0.02  -0.00    -0.01  -0.01  -0.00
  39   1     0.02   0.01   0.00     0.02  -0.01  -0.00    -0.01  -0.02  -0.00
  40   1     0.01   0.05   0.01    -0.02   0.01  -0.00     0.04  -0.08  -0.01
  41   1     0.07   0.04   0.01    -0.01   0.00  -0.00    -0.00  -0.07  -0.01
  42   1    -0.05  -0.08  -0.02    -0.00  -0.00  -0.00     0.03   0.03   0.01
  43   1    -0.05  -0.07  -0.02     0.01   0.02   0.00    -0.01  -0.05  -0.01
  44   1    -0.05  -0.07  -0.01     0.01   0.02   0.00    -0.01  -0.05  -0.01
  45   1    -0.01   0.12   0.02     0.02  -0.03  -0.00    -0.09   0.07   0.01
  46   1     0.07   0.07   0.02    -0.02  -0.01  -0.00     0.04   0.03   0.01
                     49                     50                     51
                        a                      a                      a 
 Frequencies --   714.8375               722.4126               726.3921
 Red. masses --    15.9232                14.8021                15.2905
 Frc consts  --     0.0000                 0.0000                 0.0000
 IR Inten    --     2.8135                13.8878                 5.5677
 Raman Activ --     0.0000                 0.0000                 0.0000
 Depolar     --     0.0000                 0.0000                 0.0000
 Atom AN      X      Y      Z        X      Y      Z        X      Y      Z
   1   7     0.01   0.01   0.02     0.00   0.00   0.01    -0.00   0.00   0.01
   2   6     0.01   0.00  -0.00    -0.01  -0.00   0.00    -0.03  -0.00   0.01
   3   6    -0.03  -0.07  -0.05    -0.04  -0.02  -0.03    -0.08  -0.02  -0.05
   4   6     0.02  -0.24  -0.02     0.01  -0.11  -0.00     0.01  -0.11  -0.00
   5   6     0.27  -0.33  -0.04     0.13  -0.14  -0.02     0.12  -0.12  -0.01
   6   6     0.23   0.11   0.03     0.14   0.19   0.05     0.19   0.44   0.09
   7   6     0.02   0.09   0.01     0.04   0.16   0.03     0.13   0.36   0.07
   8   6    -0.03   0.33   0.06     0.00   0.01   0.00     0.05  -0.25  -0.04
   9   6     0.06   0.41   0.08     0.02   0.02   0.00    -0.04  -0.33  -0.06
  10   6     0.06  -0.02   0.00     0.02   0.02   0.00    -0.02   0.02   0.00
  11   6     0.07  -0.07  -0.01     0.02   0.00   0.00    -0.05   0.04   0.00
  12   6     0.05  -0.03  -0.00     0.03   0.00   0.00    -0.05   0.06   0.01
  13   6    -0.02   0.05   0.01     0.11  -0.30  -0.05    -0.06   0.12   0.02
  14   6    -0.08   0.05   0.01     0.26  -0.35  -0.05    -0.09   0.13   0.02
  15   6    -0.08  -0.18  -0.04     0.21   0.37   0.08    -0.07  -0.11  -0.02
  16   6    -0.01  -0.14  -0.03     0.08   0.31   0.06    -0.03  -0.09  -0.02
  17   6    -0.01   0.00  -0.00     0.03   0.01   0.01    -0.01  -0.00  -0.00
  18   6    -0.03   0.01   0.00     0.02  -0.01  -0.00    -0.00   0.00  -0.00
  19   6    -0.01   0.00  -0.00     0.02   0.00   0.00    -0.01  -0.00  -0.00
  20   6    -0.04   0.04   0.01     0.02  -0.04  -0.01    -0.00   0.01   0.00
  21   6     0.02   0.02   0.01    -0.03  -0.02  -0.01     0.01   0.00   0.00
  22  16     0.03  -0.03  -0.00    -0.04   0.01  -0.00     0.01   0.00   0.00
  23  16     0.10   0.09   0.02    -0.38  -0.02  -0.03     0.15  -0.02   0.01
  24  16    -0.21  -0.28  -0.07    -0.06  -0.01  -0.01     0.13   0.19   0.04
  25  16    -0.23   0.17   0.02    -0.16  -0.04  -0.02    -0.27  -0.24  -0.06
  26  17     0.00   0.00  -0.00     0.00   0.00  -0.00     0.00   0.00  -0.00
  27   1    -0.00   0.01   0.02     0.00  -0.00   0.00     0.00  -0.01  -0.00
  28   1    -0.01  -0.01  -0.00     0.00  -0.00   0.00     0.00   0.00   0.01
  29   1    -0.01   0.00   0.01     0.00   0.00   0.01     0.01   0.01   0.01
  30   1     0.00   0.00   0.01    -0.00  -0.02   0.02    -0.01  -0.04   0.03
  31   1    -0.00   0.00   0.00     0.01   0.01  -0.00     0.03   0.01  -0.01
  32   1     0.04   0.02   0.02     0.00   0.00  -0.01    -0.02  -0.01  -0.03
  33   1    -0.06   0.01  -0.03    -0.03  -0.01  -0.01    -0.02  -0.02   0.00
  34   1     0.06  -0.10  -0.03     0.01  -0.06  -0.02    -0.03  -0.08  -0.03
  35   1     0.03   0.05   0.01    -0.00   0.09   0.01    -0.04   0.19   0.03
  36   1    -0.05   0.16   0.03     0.01   0.00   0.00     0.04  -0.13  -0.02
  37   1     0.03  -0.03  -0.00    -0.00   0.01   0.00    -0.03   0.03   0.00
  38   1     0.02  -0.01  -0.00     0.00  -0.01   0.00    -0.02  -0.00  -0.00
  39   1     0.02  -0.01   0.00     0.00  -0.01  -0.00    -0.02  -0.00  -0.00
  40   1    -0.00   0.03   0.01    -0.03  -0.17  -0.04     0.02   0.07   0.01
  41   1     0.01  -0.07  -0.01    -0.05   0.17   0.03     0.02  -0.05  -0.01
  42   1     0.01   0.01   0.00     0.00  -0.00  -0.00    -0.00  -0.00  -0.00
  43   1     0.00  -0.01  -0.00     0.00   0.01   0.00    -0.00  -0.00  -0.00
  44   1     0.00  -0.01  -0.00     0.00   0.01  -0.00    -0.00  -0.00   0.00
  45   1    -0.01   0.01   0.00     0.01  -0.01  -0.00    -0.00   0.00  -0.00
  46   1     0.01   0.00  -0.00    -0.01   0.00  -0.00     0.00   0.00  -0.00
                     52                     53                     54
                        a                      a                      a 
 Frequencies --   751.8118               815.5846               820.3162
 Red. masses --     2.8411                 3.1013                14.7439
 Frc consts  --     0.0000                 0.0000                 0.0000
 IR Inten    --     9.7043                12.8453                44.0598
 Raman Activ --     0.0000                 0.0000                 0.0000
 Depolar     --     0.0000                 0.0000                 0.0000
 Atom AN      X      Y      Z        X      Y      Z        X      Y      Z
   1   7     0.00  -0.00   0.00     0.00  -0.00   0.00    -0.00  -0.00  -0.00
   2   6     0.00   0.00   0.00     0.01   0.00   0.00     0.00   0.00  -0.00
   3   6    -0.00   0.00  -0.00    -0.00  -0.00  -0.00     0.01   0.00   0.01
   4   6    -0.00  -0.00   0.00    -0.00   0.00   0.01    -0.00   0.01  -0.00
   5   6     0.00  -0.00   0.00    -0.00   0.00  -0.00    -0.01   0.01  -0.00
   6   6     0.00   0.00   0.00     0.00   0.00  -0.01    -0.01  -0.01  -0.00
   7   6     0.00   0.00   0.00     0.01   0.00   0.01     0.04   0.01   0.00
   8   6     0.00   0.00  -0.00     0.01   0.00  -0.01     0.04   0.02   0.01
   9   6     0.00   0.00  -0.00    -0.00  -0.00   0.01     0.03   0.01   0.01
  10   6    -0.00   0.00   0.00    -0.00   0.00  -0.01     0.01  -0.00  -0.00
  11   6     0.00   0.00  -0.00    -0.00   0.00   0.00     0.00   0.00   0.00
  12   6    -0.00   0.00  -0.00     0.00   0.01  -0.03    -0.08   0.04   0.00
  13   6    -0.00   0.00  -0.00    -0.01  -0.02   0.09    -0.10   0.06   0.01
  14   6    -0.00  -0.00   0.01     0.02   0.05  -0.29    -0.06   0.03   0.00
  15   6     0.00   0.00  -0.00     0.02   0.05  -0.27    -0.01  -0.01  -0.00
  16   6     0.00  -0.00   0.01    -0.01  -0.02   0.09     0.17   0.09   0.03
  17   6     0.00   0.00  -0.01     0.00   0.01  -0.04     0.17   0.05   0.02
  18   6    -0.01  -0.03   0.15    -0.00   0.00  -0.01     0.07  -0.05  -0.01
  19   6    -0.00  -0.01   0.03    -0.00  -0.00   0.00     0.06   0.08   0.02
  20   6     0.01   0.03  -0.15     0.00  -0.00   0.01    -0.11   0.02  -0.00
  21   6     0.02   0.07  -0.34     0.00  -0.00  -0.00    -0.71   0.19  -0.01
  22  16    -0.00  -0.00   0.01    -0.00   0.00   0.00     0.35  -0.26  -0.03
  23  16    -0.00  -0.00  -0.00    -0.00  -0.01   0.04    -0.02  -0.11  -0.02
  24  16     0.00  -0.00   0.00    -0.00  -0.00   0.00     0.02  -0.05  -0.01
  25  16    -0.00  -0.00  -0.00    -0.00  -0.00  -0.00    -0.01  -0.01  -0.00
  26  17    -0.00  -0.00  -0.00     0.00  -0.00  -0.00     0.00  -0.00  -0.00
  27   1     0.00   0.00   0.00    -0.00   0.01   0.01     0.00  -0.00  -0.00
  28   1    -0.00   0.00   0.00    -0.00   0.00  -0.00     0.00  -0.00   0.00
  29   1    -0.00  -0.00  -0.01    -0.01  -0.01  -0.02     0.00   0.00   0.00
  30   1    -0.00   0.00   0.00     0.00   0.01   0.00     0.00  -0.00  -0.00
  31   1    -0.00  -0.00  -0.00    -0.01  -0.00  -0.00     0.00   0.00   0.00
  32   1    -0.00   0.00  -0.00    -0.00  -0.00  -0.00     0.00  -0.00  -0.00
  33   1     0.00  -0.00   0.00     0.00  -0.00   0.00     0.00  -0.00   0.00
  34   1    -0.00  -0.00  -0.00     0.00  -0.00   0.01    -0.00   0.00   0.00
  35   1     0.00   0.00  -0.00    -0.00  -0.00   0.03    -0.01   0.00   0.00
  36   1    -0.00  -0.00   0.01     0.00   0.00  -0.02     0.00   0.01  -0.00
  37   1    -0.00   0.00  -0.00    -0.00  -0.00   0.00    -0.01   0.01   0.00
  38   1     0.00   0.00  -0.00     0.00   0.00  -0.00    -0.00  -0.00  -0.00
[...]
   9   6    -0.00  -0.00  -0.00    -0.00  -0.00  -0.00    -0.00  -0.00  -0.00
  10   6     0.00   0.00  -0.00     0.00   0.00  -0.01     0.00  -0.00   0.00
  11   6     0.00   0.00  -0.01     0.05   0.06  -0.28     0.09   0.03   0.03
  12   6     0.00  -0.00   0.00     0.00   0.00   0.00     0.00   0.00   0.00
  13   6     0.00   0.00  -0.00    -0.00  -0.00  -0.00    -0.00  -0.00  -0.00
  14   6    -0.00   0.00   0.00     0.00   0.00  -0.00     0.00  -0.00  -0.00
  15   6     0.00   0.00   0.00     0.00   0.00  -0.00     0.00  -0.00  -0.00
  16   6    -0.00  -0.00   0.00    -0.00  -0.00   0.00    -0.00   0.00   0.00
  17   6     0.00   0.00  -0.00     0.00  -0.00   0.00     0.00  -0.00  -0.00
  18   6    -0.00  -0.00   0.01     0.00   0.00  -0.00     0.01   0.00   0.00
  19   6    -0.01  -0.06   0.28     0.00   0.00  -0.01     0.24  -0.04   0.00
  20   6    -0.00  -0.00   0.00    -0.00  -0.00   0.00    -0.00   0.00   0.00
  21   6     0.00   0.00  -0.00     0.00   0.00   0.00    -0.00   0.00   0.00
  22  16    -0.00  -0.00   0.00     0.00   0.00  -0.00     0.00   0.00   0.00
  23  16    -0.00  -0.00   0.00    -0.00  -0.00   0.00    -0.00   0.00   0.00
  24  16    -0.00  -0.00   0.00     0.00  -0.00  -0.00     0.00  -0.00   0.00
  25  16     0.00   0.00  -0.00    -0.00  -0.00   0.00    -0.00  -0.00  -0.00
  26  17     0.00  -0.00  -0.00     0.00   0.00   0.00     0.00  -0.00  -0.00
  27   1     0.00   0.00   0.00     0.00  -0.00  -0.00     0.00   0.00   0.00
  28   1    -0.00   0.00  -0.00     0.00  -0.00  -0.00     0.00   0.00  -0.00
  29   1    -0.00   0.00   0.00     0.00  -0.00  -0.00    -0.00   0.00   0.00
  30   1    -0.00   0.00   0.00     0.00  -0.00  -0.00     0.00   0.00   0.00
  31   1     0.00  -0.00   0.00    -0.00   0.00  -0.00     0.00  -0.00   0.00
  32   1     0.00  -0.00   0.00    -0.00   0.00  -0.00     0.00  -0.00   0.00
  33   1    -0.00  -0.00  -0.00     0.00   0.00   0.00    -0.00  -0.00  -0.00
  34   1     0.00  -0.00  -0.00    -0.00   0.00   0.00     0.00  -0.00  -0.00
  35   1    -0.00  -0.00  -0.00    -0.00  -0.00   0.00     0.00   0.00   0.00
  36   1     0.00   0.00   0.00     0.00   0.00  -0.00     0.00   0.00   0.00
  37   1    -0.00  -0.00  -0.00    -0.02  -0.03  -0.05    -0.12  -0.16  -0.04
  38   1     0.01  -0.00   0.02     0.33  -0.12   0.47    -0.10   0.05  -0.18
  39   1    -0.02  -0.00   0.02    -0.49  -0.07   0.56    -0.08  -0.01   0.12
  40   1     0.00  -0.00  -0.00     0.00  -0.00   0.00    -0.00   0.00   0.00
  41   1    -0.00  -0.00  -0.00    -0.00  -0.00   0.00     0.00   0.00   0.00
  42   1    -0.00  -0.01   0.04    -0.00   0.00  -0.00    -0.25   0.27   0.04
  43   1    -0.38   0.02  -0.57     0.01  -0.00   0.02    -0.27   0.02  -0.51
  44   1     0.43   0.18  -0.48    -0.02  -0.01   0.02    -0.34  -0.17   0.45
  45   1     0.00  -0.00   0.00     0.00   0.00  -0.00     0.01  -0.01  -0.00
  46   1     0.00   0.00  -0.00    -0.00  -0.00  -0.00    -0.00   0.00   0.00
                    121                    122                    123
                        a                      a                      a 
 Frequencies --  2997.1799              3010.2590              3012.7172
 Red. masses --     1.8876                 1.2945                 1.4254
 Frc consts  --     0.0000                 0.0000                 0.0000
 IR Inten    --     7.2948                31.2537                38.8544
 Raman Activ --     0.0000                 0.0000                 0.0000
 Depolar     --     0.0000                 0.0000                 0.0000
 Atom AN      X      Y      Z        X      Y      Z        X      Y      Z
   1   7    -0.00   0.00  -0.00    -0.00  -0.00   0.00    -0.00  -0.00   0.00
   2   6     0.00  -0.00   0.00    -0.00   0.00  -0.00     0.00   0.00   0.00
   3   6     0.00  -0.00  -0.00     0.00   0.00   0.00     0.00  -0.00   0.00
   4   6     0.00  -0.00  -0.00    -0.00   0.00   0.00     0.00  -0.00  -0.00
   5   6     0.00  -0.00  -0.00    -0.00   0.00   0.00    -0.00   0.00   0.00
   6   6    -0.00   0.00   0.00     0.00   0.00   0.00     0.00   0.00   0.00
   7   6     0.00  -0.00  -0.00    -0.00   0.00   0.00    -0.00  -0.00  -0.00
   8   6     0.00   0.00   0.00     0.00  -0.00  -0.00     0.00   0.00   0.00
   9   6     0.00   0.00   0.00     0.00   0.01   0.00     0.00  -0.00  -0.00
  10   6    -0.01   0.00  -0.00     0.00  -0.01  -0.00     0.00   0.00   0.00
  11   6    -0.24  -0.10  -0.07     0.02  -0.16  -0.02     0.00   0.00   0.00
  12   6    -0.00  -0.00  -0.00     0.00   0.00   0.00     0.00   0.00   0.00
  13   6     0.00   0.00   0.00    -0.00  -0.00  -0.00    -0.00  -0.00  -0.00
  14   6     0.00  -0.00  -0.00     0.00   0.00   0.00     0.00   0.00   0.00
  15   6     0.00  -0.00  -0.00    -0.00   0.00   0.00    -0.00   0.00   0.00
  16   6    -0.00   0.00   0.00     0.00  -0.00  -0.00     0.00  -0.00   0.00
  17   6     0.00  -0.00  -0.00    -0.00   0.00   0.00    -0.00   0.00   0.00
  18   6     0.00   0.00   0.00    -0.00  -0.00  -0.00     0.00  -0.01  -0.00
  19   6     0.09  -0.01   0.00    -0.00  -0.00  -0.00     0.08  -0.17  -0.03
  20   6    -0.00   0.00   0.00     0.00  -0.00  -0.00    -0.00   0.01   0.00
  21   6    -0.00  -0.00  -0.00     0.00   0.00   0.00     0.00  -0.00  -0.00
  22  16     0.00   0.00   0.00     0.00  -0.00   0.00     0.00  -0.00  -0.00
  23  16     0.00   0.00   0.00    -0.00  -0.00  -0.00     0.00  -0.00  -0.00
  24  16    -0.00   0.00   0.00     0.00  -0.00  -0.00    -0.00  -0.00  -0.00
  25  16     0.00   0.00   0.00    -0.00  -0.00  -0.00    -0.00   0.00  -0.00
  26  17     0.00   0.00   0.00     0.00  -0.00  -0.00     0.00  -0.00  -0.00
  27   1     0.00  -0.00   0.00     0.00  -0.00   0.00     0.00  -0.00   0.00
  28   1    -0.00  -0.00   0.00     0.00   0.00  -0.00     0.00   0.00  -0.00
  29   1     0.00  -0.00   0.00    -0.00   0.00  -0.00    -0.00   0.00  -0.00
  30   1    -0.00  -0.00  -0.00    -0.00  -0.00  -0.00    -0.00  -0.00  -0.00
  31   1    -0.00   0.00  -0.00     0.00  -0.00   0.00    -0.00  -0.00   0.00
  32   1    -0.00   0.00  -0.00    -0.00   0.00  -0.00    -0.00   0.00  -0.00
  33   1     0.00   0.00   0.00    -0.00  -0.00  -0.00    -0.00  -0.00  -0.00
  34   1    -0.00   0.00   0.00     0.00  -0.00  -0.00     0.00  -0.00  -0.00
  35   1    -0.00  -0.00  -0.00    -0.00  -0.00  -0.00    -0.00  -0.00  -0.00
  36   1    -0.01  -0.01  -0.00    -0.01  -0.02  -0.00     0.00   0.00   0.00
  37   1     0.35   0.45   0.11     0.47   0.55   0.14    -0.00  -0.00  -0.00
  38   1     0.27  -0.14   0.47    -0.25   0.08  -0.41     0.00  -0.00   0.00
  39   1     0.23   0.03  -0.33    -0.27  -0.06   0.33     0.00   0.00  -0.00
  40   1    -0.00   0.00   0.00     0.00  -0.00  -0.00     0.00   0.00   0.00
  41   1     0.00   0.00   0.00    -0.00  -0.00  -0.00    -0.00  -0.00  -0.00
  42   1    -0.09   0.10   0.01    -0.00   0.00   0.00    -0.64   0.60   0.08
  43   1    -0.10   0.01  -0.18     0.00  -0.00   0.01     0.17  -0.03   0.25
  44   1    -0.12  -0.06   0.17     0.01   0.00  -0.01     0.20   0.06  -0.22
  45   1     0.00  -0.00  -0.00    -0.00   0.00   0.00     0.02  -0.02  -0.00
  46   1     0.00   0.00   0.00    -0.00  -0.00  -0.00    -0.00  -0.00  -0.00
                    124                    125                    126
                        a                      a                      a 
 Frequencies --  3064.7497              3080.1531              3088.2557
 Red. masses --     1.8941                 1.8407                 1.8050
 Frc consts  --     0.0000                 0.0000                 0.0000
 IR Inten    --   303.6490                31.2322                19.1383
 Raman Activ --     0.0000                 0.0000                 0.0000
 Depolar     --     0.0000                 0.0000                 0.0000
 Atom AN      X      Y      Z        X      Y      Z        X      Y      Z
   1   7     0.00  -0.01   0.00    -0.00  -0.00   0.00     0.00   0.00   0.00
   2   6    -0.00  -0.00   0.00     0.00  -0.00   0.00     0.00   0.00  -0.00
   3   6     0.00  -0.00   0.00     0.00  -0.00   0.00     0.00   0.00   0.00
   4   6     0.01   0.00   0.00     0.00  -0.00  -0.00     0.00   0.00   0.00
   5   6     0.15  -0.23  -0.04     0.00  -0.00  -0.00     0.00  -0.00  -0.00
   6   6     0.01   0.02   0.00     0.00   0.00   0.00    -0.00  -0.00  -0.00
   7   6    -0.00   0.00   0.00    -0.00  -0.00  -0.00    -0.00  -0.00  -0.00
   8   6     0.00   0.00   0.00     0.00   0.00   0.00    -0.00  -0.00  -0.00
   9   6     0.00  -0.00  -0.00     0.00   0.00   0.00    -0.00  -0.01  -0.00
  10   6    -0.00  -0.00  -0.00    -0.00  -0.00  -0.00     0.00   0.00   0.00
  11   6     0.00  -0.00   0.00    -0.00  -0.00  -0.00    -0.00  -0.00  -0.00
  12   6    -0.00   0.00   0.00    -0.00   0.00   0.00    -0.00   0.00  -0.00
  13   6     0.00  -0.00  -0.00     0.00  -0.00   0.00    -0.01  -0.00  -0.00
  14   6     0.00  -0.00  -0.00     0.00  -0.00  -0.00    -0.12   0.17   0.02
  15   6    -0.00  -0.00  -0.00     0.00   0.01   0.00    -0.08  -0.15  -0.03
  16   6    -0.00  -0.00  -0.00     0.00  -0.00  -0.00    -0.01   0.00  -0.00
  17   6    -0.00   0.00   0.00    -0.00   0.00   0.00    -0.00  -0.00  -0.00
  18   6     0.00  -0.00  -0.00    -0.00  -0.01  -0.00     0.00  -0.00  -0.00
  19   6     0.00  -0.00   0.00     0.00  -0.01  -0.00     0.00  -0.00  -0.00
  20   6    -0.00   0.00   0.00     0.18  -0.21  -0.03     0.01  -0.01  -0.00
  21   6    -0.00   0.00   0.00    -0.02  -0.01  -0.00    -0.00  -0.00  -0.00
  22  16     0.00  -0.00   0.00    -0.00   0.00   0.00     0.00   0.00   0.00
  23  16     0.00   0.00  -0.00    -0.00  -0.00  -0.00     0.00  -0.00   0.00
  24  16     0.00  -0.00  -0.00    -0.00   0.00  -0.00     0.00  -0.00   0.00
  25  16    -0.00   0.00   0.00    -0.00   0.00   0.00     0.00   0.00   0.00
  26  17    -0.00  -0.00   0.00     0.00  -0.00   0.00    -0.00   0.00   0.00
  27   1    -0.01  -0.00   0.00     0.00  -0.00   0.00    -0.00   0.00  -0.00
  28   1    -0.00   0.00   0.00     0.00   0.00  -0.00    -0.00  -0.00   0.00
  29   1    -0.01   0.04  -0.01    -0.00   0.00  -0.00     0.00  -0.00   0.00
  30   1     0.00   0.00  -0.00    -0.00   0.00  -0.00    -0.00  -0.00  -0.00
  31   1    -0.00   0.00  -0.00    -0.00   0.00  -0.00     0.00  -0.00   0.00
  32   1    -0.01   0.01  -0.01    -0.00   0.00  -0.00    -0.00   0.00  -0.00
  33   1     0.00   0.00   0.00     0.00   0.00   0.00    -0.00  -0.00  -0.00
  34   1    -0.51   0.79   0.12    -0.00   0.00   0.00    -0.00   0.00   0.00
  35   1    -0.06  -0.08  -0.02    -0.00  -0.00  -0.00     0.01   0.01   0.00
  36   1     0.00   0.00   0.00    -0.00  -0.00  -0.00     0.01   0.02   0.00
  37   1     0.00   0.00   0.00     0.00   0.00   0.00     0.00   0.00   0.00
  38   1    -0.00   0.00  -0.00     0.00  -0.00   0.00     0.00  -0.00   0.00
  39   1    -0.00  -0.00   0.00     0.00   0.00  -0.00     0.00  -0.00  -0.00
  40   1    -0.00   0.00   0.00    -0.01   0.02   0.00     0.44  -0.59  -0.08
  41   1     0.00   0.00   0.00    -0.01  -0.02  -0.00     0.30   0.52   0.12
  42   1    -0.00   0.00   0.00    -0.02   0.02   0.00    -0.00   0.00   0.00
  43   1    -0.00   0.00  -0.00     0.00  -0.00   0.00     0.00   0.00   0.00
  44   1     0.00   0.00  -0.00     0.00   0.00  -0.00     0.00   0.00  -0.00
  45   1     0.00  -0.00  -0.00    -0.63   0.71   0.10    -0.02   0.02   0.00
  46   1    -0.00  -0.00  -0.00     0.11   0.04   0.01     0.01   0.00   0.00
                    127                    128                    129
                        a                      a                      a 
 Frequencies --  3097.1516              3098.1606              3099.5428
 Red. masses --     1.8654                 1.8975                 1.8483
 Frc consts  --     0.0000                 0.0000                 0.0000
 IR Inten    --     8.3202                12.8377                27.6361
 Raman Activ --     0.0000                 0.0000                 0.0000
 Depolar     --     0.0000                 0.0000                 0.0000
 Atom AN      X      Y      Z        X      Y      Z        X      Y      Z
   1   7    -0.00   0.00   0.00     0.00   0.00  -0.00    -0.00   0.00  -0.00
   2   6     0.00   0.00   0.00     0.00  -0.00   0.00     0.00   0.00  -0.00
   3   6     0.00   0.00   0.00    -0.00   0.00  -0.00    -0.00  -0.00  -0.00
   4   6    -0.00  -0.00  -0.00    -0.00   0.00   0.00     0.00   0.00   0.00
   5   6    -0.02   0.03   0.00    -0.00   0.00   0.00     0.01  -0.01  -0.00
   6   6     0.14   0.22   0.05    -0.00  -0.00  -0.00    -0.04  -0.07  -0.01
   7   6     0.01  -0.00  -0.00     0.00   0.00   0.00    -0.00   0.00  -0.00
   8   6    -0.00   0.00   0.00     0.00   0.00   0.00    -0.01   0.00  -0.00
   9   6    -0.04  -0.06  -0.01     0.01   0.01   0.00    -0.14  -0.22  -0.05
  10   6     0.00  -0.00  -0.00    -0.00  -0.00  -0.00     0.01  -0.01  -0.00
  11   6    -0.00  -0.00  -0.00     0.00   0.00   0.00    -0.00  -0.00  -0.00
  12   6     0.00   0.00   0.00     0.00  -0.00  -0.00     0.00   0.00   0.00
  13   6     0.00  -0.00  -0.00     0.01   0.00   0.00     0.00  -0.00   0.00
  14   6     0.00  -0.00  -0.00     0.11  -0.14  -0.02     0.01  -0.01  -0.00
  15   6    -0.00  -0.00  -0.00    -0.11  -0.19  -0.04    -0.00  -0.00  -0.00
  16   6    -0.00   0.00  -0.00    -0.01   0.00  -0.00    -0.00   0.00   0.00
  17   6     0.00  -0.00   0.00    -0.00  -0.00  -0.00     0.00   0.00  -0.00
  18   6     0.00   0.00   0.00     0.00  -0.00  -0.00     0.00  -0.00  -0.00
  19   6     0.00   0.00   0.00    -0.00  -0.00   0.00     0.00  -0.00  -0.00
  20   6    -0.00   0.00   0.00     0.00  -0.00  -0.00     0.00  -0.00  -0.00
  21   6    -0.00  -0.00   0.00    -0.00  -0.00  -0.00    -0.00  -0.00  -0.00
  22  16     0.00   0.00  -0.00     0.00   0.00   0.00     0.00   0.00   0.00
  23  16     0.00   0.00   0.00     0.00   0.00   0.00     0.00  -0.00  -0.00
  24  16    -0.00   0.00   0.00    -0.00  -0.00  -0.00     0.00   0.00   0.00
  25  16    -0.00  -0.00  -0.00     0.00  -0.00  -0.00     0.00   0.00   0.00
  26  17     0.00  -0.00  -0.00     0.00   0.00  -0.00    -0.00   0.00   0.00
  27   1    -0.00   0.00   0.00     0.00  -0.00  -0.00     0.00  -0.00  -0.00
  28   1     0.00   0.00  -0.00    -0.00  -0.00   0.00     0.00   0.00  -0.00
  29   1     0.00  -0.00   0.00     0.00  -0.00   0.00     0.00  -0.00   0.00
  30   1    -0.00  -0.00  -0.00    -0.00   0.00   0.00    -0.00  -0.00  -0.00
  31   1    -0.00  -0.00   0.00    -0.00   0.00  -0.00     0.00  -0.00  -0.00
  32   1    -0.00   0.00  -0.00     0.00  -0.00   0.00    -0.00   0.00  -0.00
  33   1    -0.00  -0.00  -0.00     0.00   0.00   0.00     0.00   0.00   0.00
  34   1     0.05  -0.08  -0.01     0.00  -0.00  -0.00    -0.01   0.02   0.00
  35   1    -0.50  -0.75  -0.17     0.00   0.00   0.00     0.15   0.22   0.05
  36   1     0.15   0.22   0.05    -0.02  -0.03  -0.01     0.51   0.75   0.17
  37   1     0.00   0.00   0.00    -0.00  -0.00  -0.00     0.01   0.02   0.00
  38   1    -0.00  -0.00   0.00    -0.00   0.00  -0.00    -0.00   0.00  -0.00
  39   1    -0.00  -0.00  -0.00    -0.00  -0.00   0.00    -0.00  -0.00   0.00
  40   1    -0.00   0.00   0.00    -0.37   0.48   0.07    -0.02   0.03   0.00
  41   1     0.01   0.01   0.00     0.36   0.63   0.14     0.00   0.01   0.00
  42   1     0.00  -0.00  -0.00     0.00  -0.00   0.00    -0.00   0.00   0.00
  43   1    -0.00  -0.00  -0.00     0.00   0.00   0.00    -0.00  -0.00  -0.00
  44   1    -0.00  -0.00   0.00     0.00   0.00  -0.00    -0.00  -0.00   0.00
  45   1     0.00  -0.00  -0.00    -0.00   0.00   0.00    -0.00   0.00   0.00
  46   1     0.00   0.00  -0.00     0.00   0.00   0.00     0.00   0.00   0.00
                    130                    131                    132
                        a                      a                      a 
 Frequencies --  3134.9242              3191.7955              3201.5372
 Red. masses --     1.8866                 2.0365                 1.4907
 Frc consts  --     0.0000                 0.0000                 0.0000
 IR Inten    --     5.6889                71.1188                25.6472
 Raman Activ --     0.0000                 0.0000                 0.0000
 Depolar     --     0.0000                 0.0000                 0.0000
 Atom AN      X      Y      Z        X      Y      Z        X      Y      Z
   1   7    -0.00  -0.00   0.00     0.24   0.04  -0.14    -0.11   0.02  -0.15
   2   6    -0.00   0.00  -0.00     0.01   0.00  -0.00    -0.01  -0.00  -0.01
   3   6    -0.00   0.00   0.00    -0.00  -0.00  -0.00    -0.00  -0.00  -0.00
   4   6     0.00  -0.00  -0.00    -0.00  -0.00   0.00     0.00   0.00  -0.00
   5   6     0.00  -0.00  -0.00    -0.00   0.00   0.00     0.00  -0.00  -0.00
   6   6     0.00   0.00   0.00     0.00   0.00   0.00    -0.00   0.00  -0.00
   7   6     0.00  -0.00   0.00     0.00   0.00   0.00    -0.00  -0.00  -0.00
   8   6     0.00  -0.00   0.00     0.00   0.00   0.00     0.00  -0.00   0.00
   9   6    -0.00  -0.00  -0.00    -0.00  -0.00  -0.00    -0.00  -0.00  -0.00
  10   6    -0.00   0.00   0.00     0.00  -0.00  -0.00     0.00   0.00   0.00
  11   6    -0.00   0.00  -0.00     0.00  -0.00  -0.00     0.00  -0.00   0.00
  12   6    -0.00  -0.00  -0.00     0.00   0.00  -0.00    -0.00  -0.00  -0.00
  13   6     0.00   0.00   0.00     0.00  -0.00   0.00    -0.00   0.00   0.00
  14   6    -0.00  -0.00  -0.00     0.00   0.00   0.00    -0.00   0.00   0.00
  15   6    -0.00  -0.00  -0.00     0.00   0.00   0.00    -0.00  -0.00   0.00
  16   6    -0.00   0.00   0.00    -0.00  -0.00  -0.00     0.00  -0.00  -0.00
  17   6    -0.00  -0.00  -0.00     0.00   0.00  -0.00    -0.00  -0.00   0.00
  18   6    -0.00  -0.00  -0.00     0.00  -0.00  -0.00    -0.00   0.00  -0.00
  19   6     0.00   0.00   0.00     0.00  -0.00   0.00    -0.00   0.00  -0.00
  20   6     0.03  -0.04  -0.01     0.00  -0.00  -0.00    -0.00   0.00   0.00
  21   6     0.26   0.10   0.04     0.00   0.00  -0.00    -0.00  -0.00   0.00
  22  16     0.00   0.00   0.00     0.00   0.00  -0.00    -0.00  -0.00   0.00
  23  16    -0.00  -0.00  -0.00     0.00  -0.00  -0.00     0.00   0.00  -0.00
  24  16    -0.00   0.00  -0.00    -0.00  -0.00   0.00    -0.00  -0.00  -0.00
  25  16    -0.00  -0.00  -0.00    -0.00  -0.00  -0.00    -0.00   0.00   0.00
  26  17    -0.00  -0.00  -0.00     0.00  -0.00   0.00    -0.00  -0.00   0.00
  27   1     0.00  -0.00   0.00    -0.55   0.01  -0.14     0.77  -0.00   0.15
  28   1     0.00   0.00  -0.00    -0.39  -0.17   0.65    -0.32  -0.12   0.47
  29   1     0.00  -0.00   0.00     0.02  -0.01  -0.01    -0.03   0.07  -0.03
  30   1     0.00  -0.00  -0.00    -0.02  -0.00  -0.00     0.02   0.00   0.00
  31   1     0.00  -0.00   0.00    -0.00  -0.00   0.00    -0.00   0.01  -0.00
  32   1     0.00  -0.00   0.00     0.00  -0.00   0.00    -0.00  -0.00   0.00
  33   1    -0.00  -0.00  -0.00     0.00   0.00   0.00     0.00   0.00   0.00
  34   1    -0.00   0.00   0.00     0.00  -0.00  -0.00    -0.00   0.00   0.00
  35   1    -0.00  -0.00  -0.00    -0.00  -0.00  -0.00    -0.00  -0.00  -0.00
  36   1     0.00   0.00   0.00     0.00   0.00   0.00     0.00   0.00   0.00
  37   1     0.00   0.00   0.00     0.00   0.00   0.00    -0.00  -0.00  -0.00
  38   1     0.00  -0.00   0.00    -0.00   0.00  -0.00    -0.00   0.00  -0.00
  39   1     0.00   0.00  -0.00    -0.00  -0.00   0.00     0.00   0.00  -0.00
  40   1     0.00  -0.00  -0.00     0.00   0.00  -0.00     0.00  -0.00  -0.00
  41   1     0.00   0.00   0.00    -0.00  -0.00  -0.00     0.00   0.00   0.00
  42   1    -0.00   0.00   0.00    -0.00   0.00   0.00     0.00  -0.00  -0.00
  43   1    -0.00   0.00  -0.00    -0.00  -0.00  -0.00     0.00   0.00   0.00
  44   1    -0.00  -0.00   0.00     0.00   0.00  -0.00    -0.00   0.00  -0.00
  45   1    -0.07   0.08   0.01    -0.00   0.00   0.00     0.00  -0.00   0.00
  46   1    -0.89  -0.33  -0.12    -0.00  -0.00  -0.00     0.00  -0.00   0.00
