36
 energy: -50.915791811916 gnorm: 0.000516421056 xtb: 6.5.1 (fef0646)
N            0.84731755975797        0.85351415812657       -1.97194707100122
C            2.31320324369982        0.95386308689418       -2.11551903933115
C            2.92171122129906        1.52688399972810       -0.83544180889675
C            4.42146751524534        1.46907975262347       -0.89989674956709
C            5.15138930378477        2.50580913195865       -1.47083944897299
C            6.52683085970123        2.44275412229976       -1.55937865135575
C            7.22661260451855        1.33309451287640       -1.07831675673075
C            8.67146261061229        1.21329653510710       -1.13845228853952
C            9.50487388916880        2.01120478343337       -1.82129660245883
C           10.95007870790482        1.89426815238352       -1.88805972623966
C           11.68862767882041        1.01533033279242       -1.09096710511706
C           13.06385344051989        0.94894115359645       -1.19744181398159
C           13.73852385074839        1.75582821047374       -2.10030701235422
C           13.02306370106893        2.63633552128557       -2.89536844336114
C           11.64804507914572        2.70614853815633       -2.78774603348207
C            6.48577795317328        0.29725630858926       -0.50046448078215
C            5.10963686417192        0.36182519110455       -0.41965275176989
Cl           0.23500927254412       -0.89979333390239        0.45921472851463
H            0.41529002509227        0.43722078848360       -2.79966694391643
H            0.43420377879469        1.77150499958331       -1.78886136689196
H            0.61733727849461        0.24150980925384       -1.14669636263011
H            2.56008668445705        1.58853805804446       -2.96770043327122
H            2.71728182507343       -0.04429180948203       -2.28447478325006
H            2.56241069434720        0.93457439198087        0.00794317240161
H            2.60181577293323        2.56016188754330       -0.69886867378889
H            4.63686118581930        3.37984604933224       -1.84151211066451
H            7.06553111579670        3.27012325801424       -1.99411514321622
H            9.07267646726344        0.37496848630366       -0.58384108989833
H            9.09840377690034        2.82232313224906       -2.41071604700401
H           11.18507307183478        0.38477667784134       -0.37460221425045
H           13.61677869453379        0.26457001259450       -0.57063438083345
H           14.81369464706861        1.70010397381879       -2.18049287820534
H           13.54087906750322        3.27109684430863       -3.59932724755503
H           11.09781041177896        3.39632146636476       -3.41140782769601
H            7.00248158412785       -0.57036059223118       -0.11435529264340
H            4.55896856229427       -0.45135759155341        0.03206067872656
