 Entering Gaussian System
 *********************************************
 Gaussian 98:
 frequency output generated by the xtb code
 *********************************************
                         Standard orientation:
 --------------------------------------------------------------------
  Center     Atomic     Atomic              Coordinates (Angstroms)
  Number     Number      Type              X           Y           Z
 --------------------------------------------------------------------
    1          7             0        2.603405   -0.987144    0.078153
    2          6             0        2.460375   -0.188305   -1.164528
    3          6             0        1.473688   -0.851971   -2.116444
    4          8             0        0.233759   -1.158854   -1.485989
    5          6             0       -0.572504   -0.071539   -1.160628
    6          6             0       -0.375439    1.225839   -1.601251
    7          6             0       -1.223003    2.262484   -1.216840
    8          6             0       -2.285701    2.029991   -0.392156
    9          6             0       -2.549666    0.727954    0.082118
   10          6             0       -3.643855    0.445721    0.930412
   11          6             0       -3.874500   -0.824967    1.367935
   12          6             0       -3.028887   -1.870503    0.981554
   13          6             0       -1.963308   -1.628250    0.163840
   14          6             0       -1.694723   -0.330232   -0.305244
   15         17             0        4.732862    0.667779    2.322553
   16          1             0        1.678176   -1.116658    0.515296
   17          1             0        3.226790   -0.531946    0.765320
   18          1             0        2.978720   -1.922906   -0.127137
   19          1             0        3.435914   -0.053571   -1.646182
   20          1             0        2.113841    0.817397   -0.904449
   21          1             0        1.879762   -1.809094   -2.462604
   22          1             0        1.285518   -0.259712   -3.018464
   23          1             0        0.441020    1.445464   -2.264444
   24          1             0       -1.035579    3.261153   -1.577052
   25          1             0       -2.935956    2.836175   -0.098455
   26          1             0       -4.295320    1.250295    1.226463
   27          1             0       -4.712869   -1.028652    2.014218
   28          1             0       -3.222841   -2.871191    1.331896
   29          1             0       -1.312563   -2.429644   -0.141331
 --------------------------------------------------------------------
     1 basis functions        1 primitive gaussians
     1 alpha electrons        1 beta electrons

 Harmonic frequencies (cm**-1), IR intensities (km*mol⁻¹),
 Raman scattering activities (A**4/amu), Raman depolarization ratios,
 reduced masses (AMU), force constants (mDyne/A) and normal coordinates:
                      1                      2                      3
                        a                      a                      a 
 Frequencies --  -132.3074                21.0967                44.0743
 Red. masses --    24.3439                21.4794                13.8009
 Frc consts  --     0.0000                 0.0000                 0.0000
 IR Inten    --   144.2311                 6.6127                 1.1834
 Raman Activ --     0.0000                 0.0000                 0.0000
 Depolar     --     0.0000                 0.0000                 0.0000
 Atom AN      X      Y      Z        X      Y      Z        X      Y      Z
   1   7    -0.27  -0.31  -0.26     0.15   0.06   0.09    -0.05  -0.09   0.01
   2   6    -0.07  -0.12  -0.15     0.05   0.04   0.08     0.00   0.07   0.10
   3   6    -0.11  -0.00  -0.18    -0.00   0.04   0.14     0.04   0.16  -0.00
   4   8    -0.07  -0.01  -0.11     0.02   0.05   0.19     0.03   0.13  -0.05
   5   6    -0.04   0.00  -0.04    -0.03   0.03   0.11    -0.02   0.09  -0.07
   6   6    -0.03   0.01  -0.02    -0.02   0.03   0.12    -0.11   0.08  -0.13
   7   6    -0.01   0.01   0.00    -0.10   0.00   0.01    -0.24   0.02  -0.24
   8   6    -0.01   0.00   0.01    -0.18  -0.02  -0.11    -0.25  -0.03  -0.26
   9   6    -0.01   0.00   0.00    -0.18  -0.02  -0.10    -0.10  -0.01  -0.13
  10   6     0.00   0.00   0.01    -0.25  -0.05  -0.20    -0.04  -0.04  -0.06
  11   6     0.01   0.00   0.02    -0.24  -0.04  -0.18     0.17  -0.01   0.15
  12   6     0.01   0.00   0.01    -0.14  -0.01  -0.06     0.32   0.06   0.28
  13   6    -0.00   0.00  -0.00    -0.07   0.01   0.04     0.23   0.08   0.18
  14   6    -0.01   0.00  -0.01    -0.09   0.00   0.02     0.03   0.05  -0.01
  15  17     0.44   0.31   0.51     0.65  -0.07  -0.11    -0.02  -0.35   0.12
  16   1    -0.10  -0.11  -0.13     0.07   0.09   0.10    -0.02  -0.02  -0.00
  17   1    -0.13  -0.11  -0.03     0.13  -0.03  -0.03    -0.00  -0.07   0.02
  18   1    -0.05  -0.07  -0.09    -0.05  -0.02   0.00    -0.03  -0.03  -0.03
  19   1    -0.01  -0.04  -0.03     0.01   0.00   0.00     0.01   0.04   0.04
  20   1    -0.00  -0.03  -0.02     0.03   0.01   0.03    -0.01   0.01   0.06
  21   1    -0.04   0.00  -0.08    -0.00   0.01   0.04     0.01   0.05  -0.02
  22   1    -0.04   0.02  -0.04    -0.01   0.01   0.04     0.02   0.07   0.01
  23   1    -0.01   0.00  -0.01     0.01   0.01   0.06    -0.03   0.04  -0.03
  24   1    -0.00   0.00   0.00    -0.03   0.00   0.00    -0.09   0.00  -0.09
  25   1    -0.00   0.00   0.00    -0.07  -0.01  -0.06    -0.10  -0.02  -0.11
  26   1     0.00   0.00   0.01    -0.09  -0.02  -0.08    -0.04  -0.03  -0.05
  27   1     0.01   0.00   0.01    -0.08  -0.02  -0.08     0.07  -0.01   0.06
  28   1     0.01   0.00   0.01    -0.04  -0.00  -0.01     0.14   0.02   0.13
  29   1    -0.00  -0.00  -0.00    -0.00   0.01   0.04     0.10   0.04   0.08
                      4                      5                      6
                        a                      a                      a 
 Frequencies --    63.8362               102.8114               118.7472
 Red. masses --    12.8322                10.8487                13.5737
 Frc consts  --     0.0000                 0.0000                 0.0000
 IR Inten    --    16.8510                14.4961                27.0855
 Raman Activ --     0.0000                 0.0000                 0.0000
 Depolar     --     0.0000                 0.0000                 0.0000
 Atom AN      X      Y      Z        X      Y      Z        X      Y      Z
   1   7    -0.25   0.24   0.31     0.51   0.00  -0.20    -0.06   0.53  -0.17
   2   6    -0.18   0.14   0.22    -0.00   0.15  -0.03     0.03   0.14  -0.39
   3   6     0.04   0.01   0.08     0.00   0.02   0.05    -0.08  -0.08  -0.15
   4   8    -0.09  -0.06  -0.20     0.03  -0.02   0.11     0.03  -0.08   0.08
   5   6    -0.09  -0.06  -0.18    -0.08  -0.05  -0.04     0.03  -0.06   0.05
   6   6    -0.12  -0.07  -0.23    -0.14  -0.08  -0.14    -0.02  -0.09  -0.05
   7   6    -0.04  -0.04  -0.13    -0.14  -0.06  -0.19     0.02  -0.07  -0.05
   8   6     0.08  -0.01   0.04    -0.04  -0.01  -0.05     0.05  -0.03   0.00
   9   6     0.07  -0.01   0.03    -0.01   0.02   0.04     0.04  -0.01   0.04
  10   6     0.17   0.02   0.17     0.08   0.08   0.17    -0.02   0.01  -0.04
  11   6     0.13   0.01   0.11     0.02   0.09   0.14    -0.08   0.02  -0.05
  12   6    -0.02  -0.04  -0.10    -0.16   0.02  -0.05    -0.02   0.02   0.09
  13   6    -0.09  -0.06  -0.20    -0.19  -0.03  -0.12     0.06  -0.00   0.18
  14   6    -0.04  -0.04  -0.12    -0.09  -0.02  -0.04     0.06  -0.03   0.11
  15  17     0.31  -0.07   0.07     0.05  -0.08   0.24    -0.00  -0.23   0.30
  16   1    -0.04   0.19   0.17     0.15  -0.21  -0.10    -0.01   0.26  -0.00
  17   1     0.05   0.01   0.01     0.02   0.08   0.01     0.05   0.12  -0.08
  18   1    -0.20   0.01   0.08     0.34   0.09  -0.09    -0.11   0.09   0.02
  19   1    -0.04   0.06   0.10    -0.04   0.15  -0.06     0.01  -0.04  -0.14
  20   1    -0.09   0.03   0.03    -0.08   0.00   0.05     0.05   0.08  -0.20
  21   1     0.05   0.01   0.06     0.02   0.01   0.03    -0.02  -0.03  -0.01
  22   1     0.05  -0.01   0.00    -0.02  -0.01   0.01    -0.07  -0.07  -0.07
  23   1    -0.06  -0.03  -0.10    -0.05  -0.03  -0.05    -0.03  -0.04  -0.04
  24   1    -0.02  -0.01  -0.05    -0.06  -0.03  -0.09     0.00  -0.02  -0.03
  25   1     0.05   0.01   0.05    -0.00   0.00  -0.00     0.02  -0.00  -0.00
  26   1     0.08   0.01   0.09     0.06   0.04   0.08    -0.01   0.00  -0.03
  27   1     0.06   0.01   0.06     0.02   0.04   0.07    -0.05   0.01  -0.04
  28   1    -0.02  -0.02  -0.05    -0.07   0.00  -0.04    -0.01   0.01   0.03
  29   1    -0.06  -0.02  -0.10    -0.09  -0.02  -0.07     0.03  -0.00   0.08
                      7                      8                      9
                        a                      a                      a 
 Frequencies --   147.2380               167.1026               188.3323
 Red. masses --     9.0656                10.4320                10.8758
 Frc consts  --     0.0000                 0.0000                 0.0000
 IR Inten    --     0.5214                 5.6657                19.3178
 Raman Activ --     0.0000                 0.0000                 0.0000
 Depolar     --     0.0000                 0.0000                 0.0000
 Atom AN      X      Y      Z        X      Y      Z        X      Y      Z
   1   7    -0.07   0.04   0.04     0.11   0.14  -0.02    -0.34  -0.01  -0.11
   2   6     0.30  -0.23  -0.18    -0.07   0.08  -0.03     0.02   0.28   0.07
   3   6     0.00  -0.05  -0.00    -0.03  -0.00  -0.03     0.14   0.32  -0.07
   4   8     0.10   0.10   0.25    -0.08  -0.09  -0.17     0.31  -0.01   0.09
   5   6     0.03   0.09   0.07    -0.07  -0.09  -0.11     0.11  -0.13   0.13
   6   6     0.07   0.10   0.15     0.18  -0.02   0.23     0.12  -0.12   0.14
   7   6    -0.14   0.02  -0.08     0.24   0.02   0.27     0.04  -0.12  -0.07
   8   6    -0.20  -0.02  -0.16    -0.01  -0.04  -0.08    -0.00  -0.11  -0.13
   9   6    -0.08   0.00  -0.03    -0.17  -0.08  -0.27     0.06  -0.08  -0.03
  10   6     0.10   0.00   0.20    -0.10  -0.00  -0.16     0.06   0.08   0.02
  11   6     0.18  -0.01   0.22     0.13   0.10   0.25    -0.08   0.13   0.08
  12   6    -0.03  -0.05  -0.13     0.10   0.07   0.26    -0.22   0.03   0.03
  13   6    -0.15  -0.03  -0.28    -0.16  -0.06  -0.11    -0.16  -0.11   0.05
  14   6    -0.08   0.03  -0.10    -0.20  -0.11  -0.26     0.04  -0.14   0.05
  15  17    -0.05   0.01   0.02     0.02   0.00   0.07     0.01  -0.06  -0.14
  16   1    -0.04   0.16   0.01     0.05   0.02   0.03    -0.14  -0.07  -0.15
  17   1     0.03  -0.02  -0.02     0.04   0.05  -0.02    -0.18  -0.04   0.07
  18   1    -0.14  -0.05   0.08     0.04   0.04  -0.01    -0.04   0.03  -0.07
  19   1     0.10  -0.22  -0.06    -0.03   0.05  -0.02     0.03   0.10   0.08
  20   1     0.22  -0.00  -0.12    -0.04   0.01  -0.00    -0.01   0.07   0.06
  21   1    -0.06  -0.03  -0.03     0.01   0.01  -0.00     0.09   0.13  -0.07
  22   1    -0.02  -0.00   0.01    -0.00  -0.00  -0.01    -0.02   0.12   0.01
  23   1     0.06   0.05   0.10     0.10   0.01   0.13     0.05  -0.03   0.06
  24   1    -0.06   0.01  -0.04     0.14   0.02   0.17     0.01  -0.04  -0.04
  25   1    -0.09  -0.02  -0.08     0.00  -0.01  -0.02    -0.02  -0.04  -0.07
  26   1     0.06   0.00   0.11    -0.03   0.01  -0.07     0.05   0.05   0.00
  27   1     0.11   0.00   0.13     0.09   0.06   0.15    -0.02   0.07   0.04
  28   1    -0.02  -0.02  -0.07     0.08   0.04   0.16    -0.10   0.01   0.00
  29   1    -0.08  -0.01  -0.14    -0.06  -0.03  -0.04    -0.08  -0.06   0.02
                     10                     11                     12
                        a                      a                      a 
 Frequencies --   222.7956               243.6363               271.2919
 Red. masses --     7.8751                 8.6535                10.5852
 Frc consts  --     0.0000                 0.0000                 0.0000
 IR Inten    --     6.5623                 1.7393                16.9350
 Raman Activ --     0.0000                 0.0000                 0.0000
 Depolar     --     0.0000                 0.0000                 0.0000
 Atom AN      X      Y      Z        X      Y      Z        X      Y      Z
   1   7     0.25  -0.17  -0.05     0.08  -0.05  -0.13    -0.06  -0.15  -0.22
   2   6     0.21  -0.07   0.01    -0.34   0.12   0.04    -0.07   0.17   0.01
   3   6     0.11   0.21  -0.10    -0.17  -0.06   0.01    -0.08   0.05   0.13
   4   8     0.05   0.05  -0.32    -0.18  -0.12  -0.04     0.15  -0.01   0.56
   5   6    -0.04  -0.08  -0.06     0.12   0.02   0.17    -0.05  -0.01  -0.01
   6   6    -0.10  -0.06  -0.04     0.26   0.03   0.26    -0.07  -0.07  -0.19
   7   6    -0.04  -0.04   0.01     0.05  -0.02  -0.08     0.09  -0.01  -0.01
   8   6     0.02  -0.05   0.08    -0.11  -0.03  -0.28     0.20   0.08   0.16
   9   6     0.04  -0.05   0.06     0.06   0.05   0.03    -0.04   0.04  -0.06
  10   6     0.00   0.06   0.04     0.13   0.02   0.11    -0.06  -0.04  -0.12
  11   6    -0.14   0.10   0.05     0.10  -0.02  -0.02     0.11  -0.04  -0.00
  12   6    -0.15   0.06   0.11    -0.01  -0.05  -0.17     0.15  -0.02   0.04
  13   6    -0.10  -0.04   0.13     0.09   0.02  -0.01    -0.02  -0.00  -0.16
  14   6    -0.00  -0.09   0.03     0.12   0.06   0.14    -0.10   0.02  -0.12
  15  17    -0.13   0.10   0.07    -0.08   0.03   0.04    -0.09   0.02  -0.02
  16   1     0.14   0.25   0.21     0.10   0.10   0.16     0.01   0.11   0.05
  17   1     0.34  -0.21  -0.15     0.21  -0.11  -0.14     0.14  -0.20  -0.11
  18   1    -0.28  -0.17  -0.09    -0.16  -0.06  -0.14    -0.24  -0.11  -0.18
  19   1     0.06  -0.06  -0.01    -0.12   0.15  -0.01    -0.03   0.09  -0.00
  20   1     0.12  -0.01   0.03    -0.19  -0.01   0.08    -0.04   0.03   0.06
  21   1     0.02   0.08  -0.10    -0.01  -0.01   0.03     0.00   0.02   0.05
  22   1     0.06   0.13   0.01    -0.06  -0.04  -0.01    -0.10  -0.03   0.03
  23   1    -0.03  -0.01  -0.02     0.09   0.01   0.10    -0.03  -0.03  -0.07
  24   1    -0.02  -0.01  -0.00    -0.00  -0.02  -0.06     0.05  -0.00   0.01
  25   1     0.01  -0.02   0.04    -0.10  -0.02  -0.19     0.12   0.05   0.12
  26   1     0.02   0.04  -0.01     0.05   0.00   0.06    -0.05  -0.03  -0.05
  27   1    -0.06   0.04  -0.00     0.03  -0.01  -0.01     0.05  -0.02   0.02
  28   1    -0.06   0.02   0.04    -0.04  -0.03  -0.10     0.08   0.00   0.05
  29   1    -0.04  -0.03   0.06     0.03   0.02  -0.01    -0.00   0.01  -0.07
                     13                     14                     15
                        a                      a                      a 
 Frequencies --   377.7167               386.5460               426.0064
 Red. masses --     8.8149                 8.6471                10.7341
 Frc consts  --     0.0000                 0.0000                 0.0000
 IR Inten    --     2.7052                 2.3203                 0.2140
 Raman Activ --     0.0000                 0.0000                 0.0000
 Depolar     --     0.0000                 0.0000                 0.0000
 Atom AN      X      Y      Z        X      Y      Z        X      Y      Z
   1   7     0.05   0.03   0.09    -0.07  -0.04  -0.14    -0.01  -0.00  -0.04
   2   6     0.05  -0.05   0.02     0.04   0.12  -0.02     0.13   0.08   0.01
   3   6    -0.27   0.31   0.03     0.26  -0.27   0.07     0.16   0.04  -0.02
   4   8    -0.12  -0.05   0.15     0.16   0.03   0.04     0.07  -0.18  -0.18
   5   6    -0.23  -0.10  -0.13    -0.04   0.01  -0.22     0.01  -0.15   0.03
   6   6     0.04  -0.12  -0.02    -0.06   0.08  -0.04     0.07  -0.24  -0.07
   7   6     0.18  -0.03  -0.02     0.01   0.07   0.22     0.15  -0.22   0.03
   8   6     0.06   0.02  -0.15    -0.17  -0.04  -0.04    -0.04   0.15  -0.06
   9   6    -0.07   0.05  -0.12    -0.15  -0.08  -0.16    -0.29   0.24   0.13
  10   6     0.20   0.04   0.22     0.13   0.05   0.26    -0.28  -0.08   0.15
  11   6    -0.01  -0.07  -0.18    -0.12   0.00  -0.03    -0.01  -0.17   0.14
  12   6     0.00  -0.10  -0.09    -0.12   0.04  -0.11     0.05  -0.03  -0.10
  13   6     0.18   0.01   0.20     0.14   0.10   0.23    -0.01   0.30  -0.05
  14   6    -0.20  -0.03  -0.15    -0.07  -0.02  -0.19    -0.08   0.32   0.14
  15  17     0.01   0.00   0.01    -0.02  -0.00  -0.01    -0.00   0.00  -0.01
  16   1     0.01  -0.01   0.01    -0.03   0.03  -0.05    -0.02   0.00  -0.04
  17   1    -0.02   0.05   0.02     0.01  -0.09  -0.01    -0.02  -0.03   0.02
  18   1     0.06   0.02   0.06    -0.09  -0.03  -0.09    -0.02  -0.00  -0.02
  19   1     0.00  -0.12  -0.04     0.02   0.10   0.03     0.05   0.01   0.01
  20   1     0.13   0.02   0.02    -0.07   0.01  -0.01     0.05   0.03   0.00
  21   1    -0.08   0.15  -0.16     0.09  -0.14   0.20     0.08   0.02  -0.00
  22   1    -0.14   0.21   0.10     0.12  -0.22  -0.08     0.05   0.00  -0.01
  23   1     0.06  -0.03   0.06     0.00   0.04   0.01    -0.00  -0.07  -0.05
  24   1     0.12  -0.00   0.05     0.05   0.05   0.16     0.09  -0.07  -0.00
  25   1     0.05   0.03  -0.03    -0.04  -0.02   0.02     0.04   0.11  -0.10
  26   1     0.12   0.02   0.19     0.13   0.05   0.18    -0.13  -0.07   0.07
  27   1    -0.02  -0.02  -0.07    -0.03  -0.00   0.00     0.02  -0.10   0.06
  28   1     0.01  -0.02  -0.01    -0.03   0.01  -0.04     0.05  -0.04  -0.09
  29   1     0.14   0.04   0.15     0.11   0.04   0.19     0.02   0.13  -0.07
                     16                     17                     18
                        a                      a                      a 
 Frequencies --   431.0765               463.1291               492.5071
 Red. masses --     9.6328                10.7157                10.9904
 Frc consts  --     0.0000                 0.0000                 0.0000
 IR Inten    --     0.2389                 6.1985                 0.3213
 Raman Activ --     0.0000                 0.0000                 0.0000
 Depolar     --     0.0000                 0.0000                 0.0000
 Atom AN      X      Y      Z        X      Y      Z        X      Y      Z
   1   7    -0.02   0.01  -0.05    -0.03  -0.01  -0.11    -0.02  -0.00  -0.09
   2   6     0.02   0.06  -0.00     0.14   0.13   0.00     0.16   0.11   0.01
   3   6     0.07  -0.06   0.02     0.03  -0.00   0.21     0.09  -0.02   0.15
   4   8     0.03  -0.06  -0.04    -0.24   0.32  -0.11    -0.08  -0.16  -0.11
   5   6    -0.04  -0.05  -0.11    -0.17   0.17   0.05    -0.18  -0.22   0.09
   6   6     0.22   0.03   0.27     0.14   0.07  -0.09    -0.32  -0.16   0.27
   7   6    -0.19  -0.11  -0.23     0.24   0.14  -0.20    -0.09   0.12   0.09
   8   6     0.05   0.04   0.12     0.23  -0.01  -0.20    -0.17   0.29  -0.01
   9   6     0.11   0.08   0.27     0.03   0.04   0.04     0.12   0.21  -0.05
  10   6     0.03   0.02   0.17     0.01  -0.16   0.01     0.16   0.13  -0.15
  11   6    -0.22  -0.08  -0.24    -0.05  -0.17   0.07     0.26   0.09  -0.21
  12   6     0.20   0.08   0.24    -0.11  -0.25   0.16     0.09  -0.12  -0.01
  13   6    -0.07   0.06  -0.12    -0.16  -0.12   0.11     0.04  -0.15  -0.02
  14   6    -0.22   0.00  -0.30    -0.09  -0.06   0.13    -0.08  -0.07   0.14
  15  17    -0.00  -0.00  -0.00    -0.00   0.00  -0.01    -0.00   0.00  -0.01
  16   1    -0.01   0.00  -0.03    -0.04  -0.01  -0.09    -0.04   0.00  -0.08
  17   1    -0.01  -0.02   0.00    -0.03  -0.07   0.03    -0.03  -0.06   0.03
  18   1    -0.01   0.00  -0.03    -0.03  -0.00  -0.07    -0.03  -0.00  -0.06
  19   1     0.01   0.03   0.00     0.04  -0.03  -0.03     0.04  -0.03  -0.02
  20   1    -0.00   0.01   0.00     0.11   0.06  -0.00     0.10   0.05  -0.01
  21   1     0.04  -0.03   0.05    -0.02  -0.08   0.24     0.06  -0.02   0.11
  22   1     0.02  -0.05  -0.02     0.11  -0.14  -0.05     0.05  -0.07  -0.00
  23   1     0.13   0.05   0.18     0.06  -0.08  -0.03    -0.09  -0.08   0.07
  24   1    -0.12  -0.05  -0.16     0.05   0.04  -0.06     0.05   0.00  -0.03
  25   1     0.02   0.02   0.01     0.06   0.01  -0.09    -0.09   0.05  -0.01
  26   1     0.00  -0.00   0.05    -0.03  -0.07   0.00     0.00   0.00  -0.04
  27   1    -0.13  -0.06  -0.17    -0.03  -0.01   0.01     0.06   0.05  -0.08
  28   1     0.15   0.04   0.18    -0.03  -0.08   0.04    -0.03  -0.01   0.02
  29   1     0.00   0.03  -0.01    -0.05  -0.03   0.00     0.02  -0.01  -0.06
                     19                     20                     21
                        a                      a                      a 
 Frequencies --   517.3923               539.2956               584.3495
 Red. masses --    10.2926                10.1188                10.9102
 Frc consts  --     0.0000                 0.0000                 0.0000
 IR Inten    --     3.0425                 5.0520                 2.9843
 Raman Activ --     0.0000                 0.0000                 0.0000
 Depolar     --     0.0000                 0.0000                 0.0000
 Atom AN      X      Y      Z        X      Y      Z        X      Y      Z
   1   7    -0.01   0.00  -0.09    -0.01   0.00  -0.05    -0.00   0.02  -0.05
   2   6     0.15   0.14   0.02     0.07   0.08   0.01     0.07   0.09   0.03
   3   6    -0.11   0.08   0.29    -0.03   0.02   0.13    -0.08   0.01   0.19
   4   8    -0.24  -0.05   0.01    -0.19   0.02  -0.17    -0.08  -0.33   0.02
   5   6    -0.11   0.01  -0.20     0.11   0.05   0.27     0.01  -0.06  -0.36
   6   6     0.07  -0.01  -0.11     0.10  -0.03   0.13     0.11   0.14   0.07
   7   6     0.04  -0.17   0.19    -0.18  -0.16  -0.23    -0.15   0.07  -0.07
   8   6    -0.10  -0.33  -0.06     0.22  -0.05   0.31    -0.01   0.13   0.12
   9   6     0.08  -0.17   0.23    -0.23  -0.11  -0.21     0.18   0.02  -0.04
  10   6    -0.12   0.15   0.05    -0.15   0.10  -0.06     0.11  -0.27  -0.23
  11   6    -0.02   0.15  -0.03     0.13   0.11   0.07    -0.02  -0.08   0.26
  12   6     0.15   0.28  -0.09    -0.04   0.07  -0.25    -0.21  -0.08  -0.04
  13   6     0.14  -0.03  -0.18     0.22  -0.02   0.09    -0.07   0.24   0.20
  14   6     0.16   0.00   0.08    -0.11  -0.05  -0.10     0.18   0.10  -0.08
  15  17    -0.00   0.00  -0.01    -0.00   0.00  -0.00    -0.00   0.00  -0.00
  16   1    -0.04  -0.01  -0.09    -0.02  -0.01  -0.05    -0.02  -0.00  -0.05
  17   1    -0.04  -0.07   0.04    -0.02  -0.04   0.02    -0.02  -0.04   0.03
  18   1    -0.02   0.00  -0.07    -0.01   0.00  -0.04    -0.02   0.01  -0.05
  19   1     0.03  -0.09  -0.07     0.01  -0.04  -0.03     0.00  -0.06  -0.05
  20   1     0.19   0.09   0.00     0.09   0.05  -0.00     0.12   0.06   0.00
  21   1    -0.00   0.02   0.13    -0.00  -0.01   0.10     0.05   0.06  -0.01
  22   1    -0.02  -0.03   0.05     0.04  -0.04  -0.00    -0.09   0.04   0.09
  23   1     0.02   0.02  -0.02     0.03  -0.02   0.04     0.06   0.13   0.09
  24   1    -0.02  -0.02   0.10    -0.10  -0.06  -0.12    -0.05   0.02  -0.03
  25   1    -0.07  -0.11  -0.08     0.13   0.01   0.17    -0.02   0.02   0.06
  26   1    -0.06   0.06  -0.09     0.03   0.05   0.08     0.02  -0.06  -0.13
  27   1    -0.03  -0.04  -0.06     0.13   0.02   0.14    -0.02   0.05   0.08
  28   1    -0.00   0.08  -0.05    -0.02   0.03  -0.04    -0.04  -0.06  -0.11
  29   1    -0.04  -0.05  -0.10     0.13   0.01   0.13    -0.05   0.04   0.04
                     22                     23                     24
                        a                      a                      a 
 Frequencies --   610.5203               711.6528               715.4813
 Red. masses --    10.7105                11.4299                10.2378
 Frc consts  --     0.0000                 0.0000                 0.0000
 IR Inten    --     4.2088                33.6840                 1.9993
 Raman Activ --     0.0000                 0.0000                 0.0000
 Depolar     --     0.0000                 0.0000                 0.0000
 Atom AN      X      Y      Z        X      Y      Z        X      Y      Z
   1   7     0.00  -0.01   0.04    -0.01  -0.03   0.02    -0.01  -0.01   0.00
   2   6    -0.06  -0.08  -0.02    -0.07  -0.03  -0.02    -0.02  -0.01  -0.00
   3   6     0.09  -0.04  -0.17    -0.07   0.07  -0.03    -0.01   0.01  -0.01
   4   8     0.16   0.22   0.11    -0.05   0.46   0.02     0.00   0.11   0.02
   5   6    -0.40  -0.09  -0.37    -0.02  -0.04   0.06    -0.14  -0.05  -0.19
   6   6     0.11  -0.00   0.19     0.00  -0.26   0.02     0.09  -0.03   0.12
   7   6    -0.02  -0.03  -0.12    -0.03  -0.45   0.18    -0.14  -0.14  -0.14
   8   6     0.09  -0.02   0.02    -0.14  -0.02   0.07     0.03   0.02   0.10
   9   6     0.03   0.05   0.23     0.19   0.03   0.00    -0.27  -0.08  -0.42
  10   6    -0.24   0.10  -0.09     0.27  -0.14  -0.22     0.18   0.02   0.14
  11   6     0.21   0.09   0.12     0.06   0.01   0.01    -0.08  -0.02  -0.14
  12   6    -0.06  -0.04  -0.19    -0.05   0.01  -0.02     0.12   0.03   0.18
  13   6     0.20  -0.11   0.15    -0.08   0.28   0.05    -0.09   0.02  -0.09
  14   6    -0.08  -0.06   0.10    -0.03   0.09  -0.14     0.30   0.11   0.40
  15  17     0.00  -0.00   0.00     0.00  -0.00   0.00    -0.00   0.00   0.00
  16   1     0.01   0.01   0.04     0.02  -0.02   0.05     0.01  -0.00   0.01
  17   1     0.02   0.04  -0.03     0.01   0.03  -0.03     0.00   0.02  -0.02
  18   1     0.01  -0.01   0.05     0.03   0.00   0.02     0.00  -0.00   0.01
  19   1    -0.00   0.08   0.05    -0.02  -0.03  -0.01    -0.00  -0.00   0.00
  20   1    -0.12  -0.06   0.01     0.01  -0.00  -0.00    -0.00  -0.00   0.01
  21   1    -0.02  -0.04  -0.02    -0.09  -0.07   0.15    -0.02  -0.02   0.04
  22   1     0.04  -0.03  -0.06     0.08  -0.09  -0.10     0.02  -0.02  -0.02
  23   1     0.11  -0.01   0.14    -0.01  -0.07   0.00     0.07   0.01   0.09
  24   1     0.00  -0.01  -0.02     0.01  -0.15   0.00     0.08  -0.01   0.11
  25   1     0.03   0.01  -0.01    -0.03   0.01  -0.03     0.14   0.05   0.19
  26   1    -0.15  -0.01  -0.11     0.09  -0.01  -0.09     0.02  -0.00  -0.01
  27   1     0.05  -0.02   0.01    -0.01   0.09  -0.01    -0.07  -0.00  -0.09
  28   1    -0.13  -0.02  -0.13     0.04  -0.01  -0.02    -0.06  -0.02  -0.09
  29   1     0.02  -0.03  -0.03     0.00   0.10   0.02    -0.12  -0.02  -0.17
                     25                     26                     27
                        a                      a                      a 
 Frequencies --   753.0667               774.2916               802.7416
 Red. masses --     4.5372                10.7269                 3.7666
 Frc consts  --     0.0000                 0.0000                 0.0000
 IR Inten    --     0.1546                 0.3447                53.2516
 Raman Activ --     0.0000                 0.0000                 0.0000
 Depolar     --     0.0000                 0.0000                 0.0000
 Atom AN      X      Y      Z        X      Y      Z        X      Y      Z
   1   7     0.02   0.00   0.01    -0.01  -0.01   0.01    -0.01  -0.01  -0.00
   2   6     0.02  -0.01  -0.01    -0.02  -0.01  -0.01    -0.04   0.01   0.01
   3   6     0.01  -0.00  -0.01    -0.01   0.03  -0.02    -0.01   0.00  -0.01
   4   8     0.01   0.03   0.06     0.02   0.08   0.01     0.02   0.01  -0.03
   5   6    -0.16  -0.04  -0.22    -0.14  -0.16   0.09     0.05  -0.01   0.04
   6   6     0.11   0.03   0.11    -0.30  -0.15   0.29    -0.13  -0.05  -0.15
   7   6     0.03  -0.02   0.07     0.10   0.29  -0.13    -0.09  -0.02  -0.14
   8   6     0.08   0.02   0.13     0.18  -0.05  -0.10    -0.11  -0.02  -0.16
   9   6    -0.02  -0.00  -0.03     0.09  -0.11  -0.05     0.13   0.04   0.19
  10   6    -0.07  -0.02  -0.13     0.04  -0.23   0.02    -0.09  -0.02  -0.10
  11   6    -0.08  -0.02  -0.15    -0.30  -0.10   0.23    -0.05  -0.02  -0.05
  12   6    -0.05  -0.03  -0.05     0.10   0.38  -0.15    -0.06  -0.01  -0.10
  13   6    -0.13  -0.03  -0.16     0.13   0.14  -0.12    -0.06  -0.03  -0.11
  14   6     0.16   0.06   0.23     0.07  -0.03  -0.03     0.10   0.02   0.12
  15  17    -0.00  -0.00   0.00     0.00  -0.00   0.00    -0.00  -0.00   0.00
  16   1    -0.01   0.01  -0.02     0.01  -0.01   0.02     0.02  -0.02   0.03
  17   1    -0.00  -0.02   0.02     0.01   0.01  -0.01     0.01   0.02  -0.02
  18   1    -0.01  -0.01   0.01     0.01   0.00   0.01     0.01   0.01  -0.01
  19   1     0.00   0.02   0.00    -0.00  -0.02   0.00    -0.01  -0.04  -0.01
  20   1    -0.03  -0.01  -0.01     0.01   0.00  -0.00     0.05   0.02   0.02
  21   1    -0.01  -0.00  -0.02    -0.02  -0.02   0.05     0.02  -0.01   0.05
  22   1     0.00   0.01   0.01     0.03  -0.04  -0.04    -0.01  -0.04  -0.03
  23   1    -0.14  -0.05  -0.19    -0.07  -0.17   0.05     0.28   0.10   0.39
  24   1    -0.13  -0.05  -0.17     0.07   0.05  -0.09     0.24   0.07   0.31
  25   1    -0.18  -0.05  -0.24    -0.00  -0.06  -0.01     0.20   0.07   0.27
  26   1     0.21   0.06   0.29     0.06  -0.01  -0.03     0.09   0.03   0.13
  27   1     0.22   0.07   0.30    -0.06  -0.09   0.07     0.14   0.03   0.20
  28   1     0.20   0.06   0.29     0.12   0.07  -0.10     0.17   0.05   0.23
  29   1     0.16   0.05   0.22     0.01   0.01  -0.00     0.12   0.02   0.16
                     28                     29                     30
                        a                      a                      a 
 Frequencies --   820.8500               857.0300               863.6049
 Red. masses --     4.6370                 9.9252                 3.6433
 Frc consts  --     0.0000                 0.0000                 0.0000
 IR Inten    --    17.6323                 1.2069                 0.1824
 Raman Activ --     0.0000                 0.0000                 0.0000
 Depolar     --     0.0000                 0.0000                 0.0000
 Atom AN      X      Y      Z        X      Y      Z        X      Y      Z
   1   7     0.08   0.06  -0.06    -0.03  -0.02   0.04    -0.01   0.01   0.01
   2   6     0.29  -0.07  -0.03    -0.05   0.05   0.02    -0.01  -0.00   0.00
   3   6     0.12  -0.12   0.03     0.05   0.01  -0.11     0.00   0.00   0.02
   4   8    -0.25  -0.01   0.03     0.06  -0.13   0.00     0.02   0.00   0.01
   5   6    -0.10   0.05   0.09    -0.10  -0.01   0.06    -0.03  -0.01  -0.05
   6   6    -0.04  -0.02   0.02    -0.14   0.05   0.09     0.18   0.06   0.22
   7   6    -0.01  -0.04  -0.02    -0.01   0.17  -0.04    -0.04  -0.01  -0.05
   8   6     0.03  -0.17  -0.05     0.20  -0.48  -0.04    -0.14  -0.03  -0.17
   9   6     0.05  -0.05   0.02    -0.03  -0.13   0.04     0.02   0.01   0.03
  10   6     0.09  -0.04  -0.06     0.02   0.11  -0.04     0.10   0.03   0.14
  11   6     0.04   0.01  -0.03     0.25   0.05  -0.18     0.06   0.02   0.08
  12   6     0.00   0.01  -0.02    -0.01  -0.19   0.04    -0.09  -0.03  -0.13
  13   6    -0.05   0.14  -0.00    -0.21   0.40   0.06    -0.09  -0.04  -0.13
  14   6    -0.06   0.06   0.03    -0.10   0.17   0.04     0.02  -0.00   0.01
  15  17     0.00   0.00  -0.01    -0.00   0.00   0.00    -0.00   0.00  -0.00
  16   1    -0.13   0.23  -0.27     0.05  -0.09   0.10     0.01  -0.03   0.02
  17   1    -0.08  -0.06   0.13     0.04  -0.00  -0.03     0.01  -0.02   0.01
  18   1    -0.14  -0.09   0.16     0.04   0.04  -0.08     0.01   0.02  -0.05
  19   1     0.04   0.42   0.05     0.02  -0.11   0.03     0.00  -0.04   0.00
  20   1    -0.33  -0.18   0.10     0.09   0.06  -0.05     0.00   0.02  -0.06
  21   1    -0.09   0.01  -0.23     0.07   0.01   0.02    -0.01   0.01  -0.02
  22   1    -0.01   0.17   0.15    -0.01  -0.05  -0.05     0.02   0.02   0.02
  23   1     0.01  -0.01   0.04    -0.02  -0.05   0.03    -0.29  -0.11  -0.40
  24   1     0.02   0.01   0.07    -0.10   0.09   0.06     0.07   0.02   0.10
  25   1     0.06  -0.04   0.08    -0.00  -0.20   0.04     0.22   0.07   0.31
  26   1     0.03   0.00  -0.04    -0.01   0.01  -0.00    -0.22  -0.06  -0.30
  27   1     0.01   0.03  -0.00     0.05   0.06  -0.06    -0.06  -0.02  -0.09
  28   1     0.04  -0.00  -0.00     0.04  -0.06  -0.01     0.13   0.04   0.19
  29   1     0.01   0.06  -0.01     0.02   0.20  -0.04     0.20   0.05   0.29
                     31                     32                     33
                        a                      a                      a 
 Frequencies --   873.3762               899.7892               910.3927
 Red. masses --     4.0717                 8.5864                 3.7829
 Frc consts  --     0.0000                 0.0000                 0.0000
 IR Inten    --     0.1129                 2.3030                 0.5337
 Raman Activ --     0.0000                 0.0000                 0.0000
 Depolar     --     0.0000                 0.0000                 0.0000
 Atom AN      X      Y      Z        X      Y      Z        X      Y      Z
   1   7    -0.01   0.00  -0.02     0.14  -0.16   0.38    -0.01   0.04  -0.03
   2   6    -0.02  -0.02   0.00     0.19   0.31  -0.08    -0.03  -0.03   0.02
   3   6     0.01   0.01   0.04    -0.19   0.03  -0.47     0.03  -0.03   0.03
   4   8     0.02  -0.00   0.00    -0.12  -0.12   0.09     0.01   0.03  -0.01
   5   6    -0.01   0.00  -0.01    -0.03   0.03   0.02    -0.01  -0.00  -0.01
   6   6     0.13   0.05   0.17     0.06   0.04  -0.03    -0.05  -0.02  -0.04
   7   6    -0.03  -0.01  -0.03     0.00   0.01   0.03     0.12   0.03   0.16
   8   6    -0.14  -0.04  -0.19    -0.06   0.03  -0.02    -0.04  -0.02  -0.07
   9   6     0.09   0.03   0.12     0.01   0.01  -0.01    -0.03  -0.01  -0.05
  10   6    -0.14  -0.04  -0.19     0.03  -0.03  -0.01     0.13   0.04   0.18
  11   6    -0.08  -0.02  -0.11    -0.04  -0.00  -0.00    -0.13  -0.04  -0.18
  12   6     0.06   0.01   0.09    -0.00   0.03  -0.01    -0.11  -0.03  -0.15
  13   6     0.12   0.04   0.18     0.04  -0.03   0.01     0.13   0.04   0.18
  14   6    -0.05  -0.01  -0.07    -0.01  -0.01   0.00     0.00   0.00   0.01
  15  17    -0.00   0.00  -0.00     0.00   0.01  -0.00    -0.00  -0.00   0.00
  16   1     0.01  -0.01   0.02    -0.04   0.01  -0.05     0.01  -0.03   0.01
  17   1     0.01   0.01  -0.02    -0.01  -0.18   0.25     0.01  -0.02   0.00
  18   1     0.00   0.01  -0.02    -0.05  -0.07   0.05     0.00   0.02  -0.06
  19   1    -0.00  -0.03   0.00     0.08   0.11   0.04    -0.00  -0.02   0.01
  20   1    -0.00   0.01  -0.04     0.07   0.06   0.07    -0.01   0.00  -0.03
  21   1    -0.00   0.01  -0.02     0.03  -0.05   0.11    -0.01  -0.00  -0.04
  22   1     0.02   0.03   0.03    -0.18  -0.26  -0.28     0.02   0.04   0.04
  23   1    -0.22  -0.08  -0.30     0.01  -0.02  -0.03     0.08   0.03   0.11
  24   1     0.05   0.02   0.07    -0.05  -0.00  -0.04    -0.22  -0.07  -0.31
  25   1     0.21   0.06   0.29     0.04   0.02   0.08     0.11   0.03   0.14
  26   1     0.26   0.08   0.36     0.01  -0.00  -0.02    -0.21  -0.06  -0.29
  27   1     0.11   0.03   0.15     0.01   0.01   0.03     0.22   0.07   0.31
  28   1    -0.08  -0.02  -0.10     0.00   0.01   0.01     0.20   0.06   0.28
  29   1    -0.24  -0.06  -0.34    -0.03  -0.03  -0.04    -0.21  -0.05  -0.30
                     34                     35                     36
                        a                      a                      a 
 Frequencies --   912.4594               916.3077               924.9866
 Red. masses --     3.6094                 3.5319                 3.3474
 Frc consts  --     0.0000                 0.0000                 0.0000
 IR Inten    --    20.3613                 3.9627                 0.1698
 Raman Activ --     0.0000                 0.0000                 0.0000
 Depolar     --     0.0000                 0.0000                 0.0000
 Atom AN      X      Y      Z        X      Y      Z        X      Y      Z
   1   7     0.01  -0.16  -0.11    -0.02   0.09   0.02    -0.00   0.01  -0.00
   2   6    -0.04  -0.05  -0.08     0.01   0.01   0.05    -0.00  -0.00   0.01
   3   6    -0.10   0.22   0.12     0.06  -0.12  -0.04     0.01  -0.01  -0.00
   4   8     0.12  -0.06  -0.05    -0.06   0.04   0.02    -0.01   0.01   0.00
   5   6     0.05  -0.06  -0.05    -0.06   0.01  -0.02    -0.01  -0.00  -0.01
   6   6    -0.02   0.01   0.00    -0.04  -0.02  -0.05    -0.02  -0.01  -0.02
   7   6     0.08   0.10   0.11     0.16   0.01   0.21     0.04   0.01   0.06
   8   6    -0.06  -0.05  -0.09    -0.10  -0.02  -0.15    -0.01  -0.01  -0.02
   9   6    -0.02  -0.02   0.00     0.00   0.00  -0.01    -0.05  -0.02  -0.07
  10   6    -0.07   0.05   0.01    -0.04  -0.04  -0.09    -0.07  -0.02  -0.10
  11   6     0.05   0.01  -0.01     0.02   0.01   0.05     0.18   0.05   0.25
  12   6     0.02  -0.05   0.05     0.10   0.05   0.12    -0.15  -0.04  -0.21
  13   6    -0.07   0.03  -0.03    -0.09  -0.04  -0.14     0.05   0.01   0.06
  14   6     0.05   0.01  -0.00     0.02   0.01   0.06     0.05   0.02   0.08
  15  17     0.00  -0.01   0.00    -0.00   0.00  -0.00    -0.00   0.00  -0.00
  16   1    -0.05   0.23  -0.06     0.03  -0.11   0.03     0.00  -0.01   0.00
  17   1    -0.08   0.26  -0.16     0.04  -0.11   0.06     0.00  -0.01   0.00
  18   1     0.01  -0.15   0.47     0.00   0.08  -0.23    -0.00   0.01  -0.02
  19   1    -0.10   0.09  -0.16     0.04  -0.04   0.08     0.00  -0.00   0.01
  20   1     0.02  -0.07   0.25    -0.01   0.03  -0.11    -0.00   0.00  -0.01
  21   1     0.08   0.02   0.25    -0.04  -0.01  -0.13    -0.00  -0.00  -0.01
  22   1     0.01  -0.13  -0.10     0.00   0.08   0.06    -0.00   0.01   0.01
  23   1     0.01   0.00   0.02     0.11   0.05   0.15     0.04   0.02   0.05
  24   1    -0.19  -0.03  -0.24    -0.28  -0.10  -0.41    -0.08  -0.03  -0.12
  25   1     0.12   0.02   0.18     0.21   0.07   0.28     0.04   0.01   0.05
  26   1    -0.01   0.01   0.04     0.09   0.02   0.11     0.18   0.05   0.24
  27   1    -0.00  -0.01  -0.03    -0.05  -0.01  -0.06    -0.34  -0.10  -0.47
  28   1    -0.04  -0.03  -0.05    -0.17  -0.05  -0.25     0.29   0.09   0.41
  29   1     0.06   0.03   0.09     0.17   0.04   0.24    -0.13  -0.04  -0.19
                     37                     38                     39
                        a                      a                      a 
 Frequencies --   957.7909              1016.6829              1059.5598
 Red. masses --     7.9746                 8.7709                 9.8519
 Frc consts  --     0.0000                 0.0000                 0.0000
 IR Inten    --    60.3159                79.9679                 6.1520
 Raman Activ --     0.0000                 0.0000                 0.0000
 Depolar     --     0.0000                 0.0000                 0.0000
 Atom AN      X      Y      Z        X      Y      Z        X      Y      Z
   1   7    -0.18  -0.07  -0.15    -0.14  -0.05  -0.02    -0.07  -0.31   0.34
   2   6     0.13   0.03   0.03     0.28   0.09  -0.03    -0.07   0.28  -0.58
   3   6     0.32   0.09  -0.15    -0.09  -0.01   0.01     0.16  -0.04   0.28
   4   8    -0.31  -0.20   0.16    -0.24   0.15   0.07     0.01   0.05  -0.06
   5   6    -0.18   0.11   0.10     0.29  -0.15  -0.16    -0.02   0.01   0.00
   6   6     0.12   0.07  -0.10    -0.15  -0.10   0.13    -0.03   0.01   0.01
   7   6    -0.02  -0.05   0.02     0.03   0.04  -0.03     0.01  -0.04   0.01
   8   6    -0.04   0.01   0.03     0.02   0.05  -0.03     0.04  -0.02  -0.02
   9   6     0.01   0.02  -0.01     0.05  -0.07  -0.02    -0.01   0.02   0.00
  10   6     0.15  -0.11  -0.07    -0.23   0.18   0.13     0.03  -0.02  -0.02
  11   6    -0.06   0.01   0.04     0.06  -0.02  -0.04    -0.02   0.00   0.02
  12   6     0.01   0.11  -0.04    -0.02  -0.17   0.05     0.00   0.00  -0.00
  13   6     0.06  -0.08  -0.03    -0.07   0.08   0.04     0.02  -0.02  -0.01
  14   6    -0.13   0.01   0.10     0.29  -0.03  -0.20    -0.04   0.01   0.03
  15  17    -0.00  -0.01   0.01    -0.00  -0.00   0.00    -0.00  -0.00  -0.00
  16   1     0.11  -0.07   0.26     0.08  -0.09   0.20     0.04  -0.11   0.19
  17   1     0.05   0.29  -0.34     0.04   0.10  -0.16     0.02  -0.00  -0.00
  18   1     0.14   0.02   0.11     0.09   0.04  -0.01     0.05  -0.05   0.10
  19   1     0.15   0.02   0.23     0.18   0.16   0.24    -0.04   0.09  -0.19
  20   1     0.03   0.00   0.03    -0.09  -0.02  -0.04    -0.10   0.06  -0.21
  21   1     0.14   0.04  -0.01    -0.15  -0.05   0.01     0.05   0.06  -0.10
  22   1    -0.04  -0.04  -0.05    -0.10  -0.03   0.00    -0.04   0.11   0.16
  23   1     0.03  -0.01  -0.03    -0.07   0.04   0.02    -0.01   0.08   0.02
  24   1    -0.06   0.01   0.03     0.13  -0.04  -0.08    -0.00  -0.01  -0.00
  25   1    -0.01   0.01   0.00    -0.00   0.01  -0.00     0.03   0.02  -0.03
  26   1     0.06  -0.01  -0.06    -0.09   0.02   0.06     0.02   0.01  -0.01
  27   1    -0.02   0.04   0.02     0.04  -0.09  -0.00    -0.01   0.02   0.01
  28   1     0.01   0.04   0.01     0.03  -0.06   0.00    -0.00   0.00   0.00
  29   1     0.03  -0.01  -0.01    -0.07  -0.04   0.05     0.03   0.02  -0.02
                     40                     41                     42
                        a                      a                      a 
 Frequencies --  1075.9933              1083.7891              1121.8494
 Red. masses --     9.8852                 6.6279                 7.3682
 Frc consts  --     0.0000                 0.0000                 0.0000
 IR Inten    --    84.5451                 0.2637                 8.1237
 Raman Activ --     0.0000                 0.0000                 0.0000
 Depolar     --     0.0000                 0.0000                 0.0000
 Atom AN      X      Y      Z        X      Y      Z        X      Y      Z
   1   7    -0.13   0.01  -0.01    -0.01  -0.01   0.02    -0.02   0.10   0.11
   2   6     0.30   0.02  -0.00     0.00   0.01  -0.04    -0.01  -0.30  -0.24
   3   6    -0.48  -0.07   0.19     0.00   0.01   0.02     0.10   0.46   0.07
   4   8     0.41  -0.06  -0.25     0.00   0.01  -0.01    -0.09  -0.15   0.08
   5   6    -0.09  -0.01   0.06     0.01  -0.02   0.00    -0.00  -0.12   0.04
   6   6     0.09   0.04  -0.07     0.05  -0.01  -0.04     0.18  -0.05  -0.14
   7   6    -0.01   0.02   0.01     0.01   0.04  -0.01     0.01   0.15  -0.04
   8   6    -0.00  -0.04   0.01    -0.01   0.02   0.01    -0.12   0.07   0.07
   9   6    -0.05   0.05   0.02    -0.07   0.01   0.05     0.05  -0.04  -0.02
  10   6     0.11  -0.08  -0.06     0.07  -0.22  -0.00    -0.04   0.05   0.02
  11   6    -0.03   0.02   0.02     0.35  -0.10  -0.23    -0.02   0.01   0.01
  12   6     0.00   0.07  -0.02    -0.07   0.43  -0.04     0.02  -0.04  -0.01
  13   6     0.04  -0.04  -0.02    -0.18   0.09   0.12    -0.02   0.03   0.01
  14   6    -0.15   0.02   0.11    -0.00  -0.09   0.02     0.00  -0.01   0.00
  15  17    -0.00  -0.00   0.00    -0.00  -0.00  -0.00    -0.00   0.00  -0.00
  16   1     0.05  -0.08   0.15     0.00  -0.01   0.01     0.01  -0.10   0.01
  17   1     0.05   0.05  -0.11     0.01  -0.00  -0.00     0.04  -0.13   0.10
  18   1     0.07   0.06  -0.07     0.00   0.00  -0.00    -0.02   0.06  -0.18
  19   1     0.15   0.18   0.20     0.00   0.01  -0.01     0.01   0.09   0.01
  20   1    -0.13  -0.06  -0.01    -0.02  -0.00  -0.01    -0.24  -0.14  -0.14
  21   1    -0.22  -0.07   0.06    -0.01   0.00   0.00    -0.11  -0.03   0.26
  22   1    -0.08  -0.05   0.00     0.01   0.01   0.01     0.23  -0.05  -0.12
  23   1     0.03  -0.01  -0.01     0.02  -0.02  -0.01     0.10  -0.08  -0.00
  24   1    -0.11   0.05   0.06    -0.02   0.02   0.01    -0.03   0.06   0.00
  25   1    -0.00  -0.01   0.01    -0.02  -0.02   0.02    -0.18  -0.14   0.16
  26   1     0.04  -0.02  -0.02    -0.20  -0.32   0.21     0.01   0.04  -0.01
  27   1    -0.02   0.07   0.00     0.15  -0.19  -0.06     0.00  -0.04   0.00
  28   1    -0.03   0.03   0.02    -0.15   0.18   0.07     0.05  -0.03  -0.03
  29   1     0.07   0.06  -0.06    -0.27  -0.22   0.23     0.01   0.02  -0.01
                     43                     44                     45
                        a                      a                      a 
 Frequencies --  1138.3474              1163.7410              1176.4007
 Red. masses --     5.8836                 3.6101                 1.7947
 Frc consts  --     0.0000                 0.0000                 0.0000
 IR Inten    --     1.3182                14.5579                 3.3995
 Raman Activ --     0.0000                 0.0000                 0.0000
 Depolar     --     0.0000                 0.0000                 0.0000
 Atom AN      X      Y      Z        X      Y      Z        X      Y      Z
   1   7    -0.01  -0.07  -0.02     0.01  -0.01  -0.02     0.01   0.01  -0.01
   2   6    -0.01   0.19   0.06    -0.01   0.03   0.02     0.00  -0.03   0.01
   3   6    -0.03  -0.24   0.00     0.03  -0.01  -0.02     0.01   0.03  -0.00
   4   8     0.04   0.11  -0.04    -0.09   0.08   0.04    -0.02   0.01   0.01
   5   6    -0.07  -0.00   0.05     0.17  -0.10  -0.10     0.09   0.00  -0.06
   6   6     0.26  -0.15  -0.16     0.01  -0.10   0.02    -0.01  -0.03   0.01
   7   6     0.03   0.16  -0.06     0.03   0.09  -0.05    -0.02   0.03   0.01
   8   6    -0.22   0.16   0.12    -0.00  -0.07   0.02     0.02   0.04  -0.03
   9   6     0.09  -0.14  -0.03    -0.07   0.05   0.04     0.02  -0.12   0.01
  10   6    -0.06   0.10   0.03     0.03  -0.17   0.01     0.02  -0.04  -0.01
  11   6     0.01  -0.01  -0.00    -0.04   0.09   0.01     0.04  -0.08  -0.01
  12   6     0.02  -0.01  -0.02    -0.06  -0.01   0.05    -0.07   0.05   0.04
  13   6    -0.07   0.10   0.03     0.18  -0.10  -0.11    -0.02   0.02   0.01
  14   6    -0.04  -0.10   0.05    -0.01   0.17  -0.03    -0.10   0.05   0.06
  15  17    -0.00  -0.00   0.00     0.00   0.00   0.00     0.00   0.00   0.00
  16   1     0.00   0.03   0.02    -0.00   0.02  -0.00    -0.00   0.00  -0.00
  17   1    -0.02   0.06  -0.05    -0.01   0.00   0.01    -0.00  -0.01   0.01
  18   1     0.02  -0.03   0.09    -0.00  -0.01   0.02    -0.00   0.00  -0.01
  19   1    -0.02  -0.03  -0.05    -0.01  -0.01  -0.01     0.00  -0.00   0.01
  20   1     0.11   0.08   0.07     0.02   0.02  -0.00    -0.01  -0.01  -0.01
  21   1     0.01   0.02  -0.20    -0.04  -0.02  -0.02     0.01  -0.00   0.03
  22   1    -0.05   0.07   0.09     0.00   0.02   0.01    -0.04  -0.02  -0.01
  23   1     0.16  -0.31  -0.03    -0.00  -0.00  -0.00    -0.04   0.10  -0.01
  24   1     0.11   0.01  -0.08     0.10  -0.01  -0.07     0.09  -0.03  -0.06
  25   1    -0.33  -0.26   0.30    -0.19  -0.23   0.19     0.02   0.02  -0.02
  26   1     0.02   0.08  -0.04    -0.19  -0.28   0.20     0.21   0.22  -0.20
  27   1     0.04  -0.15   0.00    -0.12   0.43  -0.01     0.14  -0.52   0.01
  28   1     0.11  -0.04  -0.07    -0.34   0.13   0.21    -0.47   0.20   0.29
  29   1     0.01   0.07  -0.02     0.20   0.14  -0.17     0.20   0.24  -0.19
                     46                     47                     48
                        a                      a                      a 
 Frequencies --  1194.3727              1213.8057              1222.3137
 Red. masses --     3.5824                 3.6717                 7.4400
 Frc consts  --     0.0000                 0.0000                 0.0000
 IR Inten    --    28.2972                 0.8840                48.5988
 Raman Activ --     0.0000                 0.0000                 0.0000
 Depolar     --     0.0000                 0.0000                 0.0000
 Atom AN      X      Y      Z        X      Y      Z        X      Y      Z
   1   7    -0.00   0.05   0.01    -0.09   0.12   0.06     0.06   0.02  -0.04
   2   6     0.02  -0.13  -0.03     0.07  -0.20  -0.09    -0.05  -0.10   0.02
   3   6    -0.03   0.04   0.05     0.03   0.01   0.10     0.08   0.03   0.07
   4   8     0.11  -0.07  -0.08     0.01   0.05  -0.06    -0.08   0.21  -0.04
   5   6    -0.15   0.26   0.05    -0.06   0.16   0.00     0.28  -0.21  -0.14
   6   6    -0.10   0.14   0.04    -0.03  -0.04   0.03     0.11  -0.18  -0.04
   7   6     0.07  -0.16  -0.01    -0.01   0.04   0.00    -0.07   0.17   0.01
   8   6     0.01  -0.01  -0.00    -0.10   0.04   0.06     0.05   0.09  -0.06
   9   6     0.06  -0.06  -0.03    -0.06  -0.13   0.07    -0.17  -0.11   0.15
  10   6    -0.02   0.00   0.01    -0.02  -0.03   0.02     0.09   0.02  -0.07
  11   6     0.01   0.02  -0.01     0.05   0.00  -0.03     0.05  -0.06  -0.02
  12   6     0.02   0.03  -0.02    -0.03  -0.05   0.03    -0.04   0.11   0.00
  13   6    -0.05   0.01   0.03     0.04   0.05  -0.04     0.01   0.05  -0.02
  14   6    -0.06  -0.03   0.05     0.17   0.01  -0.12    -0.26  -0.18   0.22
  15  17    -0.00   0.00  -0.00    -0.00   0.00   0.00     0.00   0.00   0.00
  16   1    -0.00  -0.03  -0.01     0.01  -0.11   0.05    -0.01   0.03  -0.04
  17   1     0.02  -0.02   0.01     0.06  -0.06   0.01    -0.03  -0.02   0.06
  18   1    -0.01   0.02  -0.05     0.01   0.08  -0.14    -0.03  -0.02   0.01
  19   1     0.02   0.01   0.04    -0.05   0.10  -0.12     0.04  -0.06   0.12
  20   1    -0.06  -0.06  -0.00    -0.01  -0.12   0.20    -0.06  -0.02  -0.10
  21   1     0.21   0.08   0.08     0.34   0.17  -0.05     0.17   0.06   0.04
  22   1    -0.19  -0.10  -0.02    -0.34  -0.14  -0.00    -0.43  -0.13   0.02
  23   1    -0.11   0.29  -0.01     0.12  -0.48   0.02    -0.05   0.23  -0.04
  24   1     0.54  -0.27  -0.33    -0.01   0.02   0.01    -0.08   0.08   0.04
  25   1    -0.13  -0.16   0.13     0.11   0.18  -0.12    -0.00   0.01  -0.00
  26   1    -0.05  -0.05   0.05     0.01   0.01  -0.01     0.06   0.05  -0.06
  27   1     0.00   0.00  -0.00    -0.02   0.14  -0.01    -0.02   0.12  -0.01
  28   1     0.09  -0.03  -0.06    -0.13   0.04   0.09     0.19  -0.05  -0.13
  29   1    -0.01   0.01   0.01     0.01   0.01  -0.01     0.02   0.04  -0.03
                     49                     50                     51
                        a                      a                      a 
 Frequencies --  1224.5544              1236.8729              1246.7284
 Red. masses --     5.6833                 3.7065                 4.7064
 Frc consts  --     0.0000                 0.0000                 0.0000
 IR Inten    --     2.0004                77.1330                 7.1460
 Raman Activ --     0.0000                 0.0000                 0.0000
 Depolar     --     0.0000                 0.0000                 0.0000
 Atom AN      X      Y      Z        X      Y      Z        X      Y      Z
   1   7    -0.00  -0.04   0.00     0.23  -0.11  -0.09     0.00  -0.01   0.00
   2   6     0.00   0.09   0.01    -0.22   0.05  -0.03    -0.00   0.02   0.00
   3   6    -0.04   0.02  -0.05    -0.02   0.08   0.12    -0.00   0.02  -0.02
   4   8     0.00  -0.11   0.05     0.06  -0.04  -0.06    -0.01  -0.07   0.03
   5   6     0.07   0.11  -0.07    -0.12   0.09   0.06    -0.04   0.08   0.01
   6   6     0.02  -0.03  -0.01    -0.02   0.03  -0.00     0.03   0.04  -0.03
   7   6    -0.03   0.15  -0.01     0.02  -0.01  -0.01    -0.06  -0.01   0.05
   8   6    -0.08   0.07   0.05    -0.07  -0.00   0.05    -0.03   0.12  -0.00
   9   6    -0.29  -0.33   0.28     0.02  -0.03  -0.01     0.16  -0.23  -0.06
  10   6     0.06  -0.08  -0.02    -0.04  -0.02   0.03    -0.02   0.07   0.00
  11   6     0.14  -0.05  -0.09     0.01   0.02  -0.01    -0.00   0.05  -0.01
  12   6    -0.03   0.03   0.01     0.01  -0.05   0.00    -0.09   0.11   0.04
  13   6     0.04   0.09  -0.05     0.00   0.02  -0.01    -0.08   0.11   0.03
  14   6    -0.05  -0.05   0.05     0.14   0.04  -0.10     0.04  -0.39   0.06
  15  17    -0.00  -0.00  -0.00     0.00  -0.00  -0.00     0.00  -0.00  -0.00
  16   1     0.00   0.02   0.01    -0.02   0.15  -0.14    -0.00   0.01  -0.00
  17   1    -0.01   0.03  -0.02    -0.10   0.04   0.07    -0.00   0.01  -0.00
  18   1     0.01  -0.01   0.03    -0.08  -0.12   0.17     0.00  -0.00   0.01
  19   1    -0.00   0.00  -0.01     0.22  -0.18   0.51    -0.00  -0.00  -0.00
  20   1     0.02   0.04  -0.02    -0.13   0.10  -0.44     0.00   0.01  -0.01
  21   1    -0.20  -0.08   0.01     0.04   0.05   0.02    -0.07  -0.03   0.01
  22   1     0.31   0.10  -0.02    -0.11  -0.05   0.01     0.11   0.03  -0.01
  23   1     0.03  -0.07   0.01     0.08  -0.22   0.04     0.02  -0.02  -0.00
  24   1     0.32  -0.09  -0.21     0.01  -0.00  -0.01     0.00  -0.01  -0.00
  25   1     0.11   0.18  -0.12     0.03   0.06  -0.04     0.16   0.22  -0.16
  26   1     0.19   0.17  -0.17    -0.01  -0.00   0.00    -0.25  -0.26   0.23
  27   1    -0.05   0.32  -0.03    -0.01   0.03  -0.00     0.01  -0.02  -0.00
  28   1     0.00   0.01  -0.00    -0.09   0.03   0.06     0.12  -0.03  -0.08
  29   1    -0.07  -0.06   0.06    -0.01  -0.01   0.01     0.30   0.41  -0.29
                     52                     53                     54
                        a                      a                      a 
 Frequencies --  1304.3232              1325.2519              1335.2162
 Red. masses --     4.0247                 4.2352                 7.7664
 Frc consts  --     0.0000                 0.0000                 0.0000
 IR Inten    --     6.3448                24.4078                 0.0518
 Raman Activ --     0.0000                 0.0000                 0.0000
 Depolar     --     0.0000                 0.0000                 0.0000
 Atom AN      X      Y      Z        X      Y      Z        X      Y      Z
   1   7    -0.02  -0.09   0.04    -0.03  -0.12   0.06     0.02   0.00   0.01
   2   6     0.09   0.04   0.30     0.22   0.01   0.26    -0.06   0.01  -0.03
   3   6     0.25   0.12  -0.01    -0.25  -0.02  -0.09     0.12   0.10   0.06
   4   8     0.05  -0.03  -0.07    -0.04   0.01   0.06     0.02  -0.12  -0.01
   5   6    -0.11  -0.06   0.09     0.09   0.13  -0.08     0.25   0.33  -0.25
   6   6     0.02   0.09  -0.04    -0.03  -0.10   0.04    -0.12  -0.05   0.10
   7   6     0.05   0.01  -0.03    -0.05  -0.02   0.04    -0.16  -0.06   0.13
   8   6    -0.07  -0.02   0.06     0.07   0.03  -0.06     0.15  -0.08  -0.09
   9   6     0.03  -0.03  -0.01    -0.02   0.01   0.01    -0.10   0.13   0.04
  10   6    -0.04  -0.05   0.04     0.04   0.07  -0.04     0.18   0.15  -0.16
  11   6     0.01   0.04  -0.02    -0.01  -0.04   0.02    -0.06  -0.04   0.05
  12   6     0.05  -0.01  -0.03    -0.06  -0.00   0.04    -0.17   0.02   0.12
  13   6    -0.04   0.01   0.02     0.05  -0.00  -0.04     0.11  -0.11  -0.05
  14   6     0.07   0.01  -0.05    -0.04  -0.00   0.03    -0.14   0.06   0.09
  15  17    -0.00  -0.00   0.00    -0.00  -0.00   0.00     0.00  -0.00   0.00
  16   1    -0.04   0.05  -0.05    -0.06   0.05  -0.08    -0.01  -0.01  -0.03
  17   1     0.01   0.12  -0.11     0.04   0.13  -0.15     0.01   0.01  -0.01
  18   1     0.00  -0.00  -0.06     0.02   0.00  -0.07    -0.02  -0.01  -0.00
  19   1    -0.19  -0.02  -0.37    -0.11   0.04  -0.25     0.00  -0.00   0.03
  20   1    -0.15   0.05  -0.29    -0.26   0.03  -0.48     0.04   0.01   0.04
  21   1    -0.41  -0.17  -0.02     0.41   0.17   0.03    -0.29  -0.09  -0.05
  22   1    -0.42  -0.16  -0.03     0.24   0.03  -0.06    -0.10  -0.07  -0.02
  23   1     0.02   0.01  -0.00     0.03  -0.08   0.04     0.07  -0.38   0.04
  24   1     0.04  -0.01  -0.03    -0.04   0.00   0.02     0.07  -0.07  -0.04
  25   1     0.03   0.06  -0.03    -0.03  -0.05   0.03    -0.02  -0.10   0.04
  26   1     0.01   0.01  -0.01    -0.02  -0.02   0.02    -0.07  -0.09   0.07
  27   1    -0.00   0.04  -0.00     0.00  -0.04   0.01     0.04  -0.23   0.02
  28   1    -0.03   0.02   0.02     0.02  -0.01  -0.01     0.14  -0.07  -0.08
  29   1    -0.01   0.01   0.00    -0.00  -0.02   0.01     0.01  -0.05   0.00
                     55                     56                     57
                        a                      a                      a 
 Frequencies --  1360.1865              1370.0577              1384.6029
 Red. masses --     3.6796                 7.8099                 1.5381
 Frc consts  --     0.0000                 0.0000                 0.0000
 IR Inten    --   103.3390                75.3420                66.0274
 Raman Activ --     0.0000                 0.0000                 0.0000
 Depolar     --     0.0000                 0.0000                 0.0000
 Atom AN      X      Y      Z        X      Y      Z        X      Y      Z
   1   7    -0.06   0.02  -0.28     0.03  -0.02   0.14    -0.17   0.09  -0.04
   2   6     0.08  -0.00   0.09    -0.02  -0.00  -0.04    -0.03   0.03   0.04
   3   6    -0.03   0.01  -0.02    -0.05  -0.03   0.01     0.01   0.00  -0.01
   4   8    -0.02   0.03   0.02    -0.06   0.10   0.02     0.00  -0.00  -0.01
   5   6     0.06  -0.11  -0.02     0.13  -0.30  -0.02    -0.01   0.01   0.00
   6   6    -0.01   0.13  -0.02     0.02   0.19  -0.06     0.00  -0.01  -0.00
   7   6     0.01   0.04  -0.01     0.04   0.13  -0.06    -0.00   0.00  -0.00
   8   6    -0.08  -0.14   0.09    -0.18  -0.27   0.19    -0.00   0.00   0.00
   9   6    -0.04   0.09   0.01    -0.09   0.15   0.04    -0.00  -0.01   0.00
  10   6     0.05  -0.06  -0.03     0.09  -0.16  -0.03     0.00   0.00  -0.00
  11   6    -0.01   0.11  -0.02    -0.02   0.26  -0.04    -0.00   0.00   0.00
  12   6     0.00   0.03  -0.01     0.01   0.05  -0.02    -0.00  -0.00   0.00
  13   6    -0.05  -0.12   0.06    -0.12  -0.25   0.14     0.01   0.00  -0.00
  14   6    -0.02   0.07   0.00    -0.02   0.16  -0.02     0.00   0.00  -0.00
  15  17     0.00   0.00  -0.01    -0.00  -0.00   0.00    -0.01   0.01   0.00
  16   1     0.21   0.14   0.47    -0.11  -0.06  -0.24    -0.11  -0.06  -0.22
  17   1    -0.27  -0.28   0.38     0.14   0.14  -0.19     0.51  -0.50  -0.15
  18   1     0.17   0.02   0.22    -0.07  -0.01  -0.11     0.40   0.08   0.42
  19   1    -0.06  -0.01  -0.13     0.03   0.01   0.06     0.00  -0.05   0.02
  20   1    -0.10  -0.01  -0.12     0.03   0.01   0.02    -0.04   0.02  -0.08
  21   1     0.07   0.03  -0.00     0.09   0.04  -0.02    -0.02  -0.01   0.03
  22   1     0.01  -0.00  -0.01     0.05   0.01   0.00    -0.03   0.02   0.02
  23   1     0.05  -0.11   0.01     0.06  -0.12  -0.01     0.00  -0.00   0.00
  24   1     0.11  -0.03  -0.07     0.18  -0.04  -0.13     0.00   0.00   0.00
  25   1     0.05   0.05  -0.04     0.10   0.11  -0.10     0.00   0.00   0.00
  26   1     0.01  -0.03  -0.00     0.03  -0.05  -0.01    -0.00  -0.00   0.01
  27   1     0.03  -0.10  -0.01     0.06  -0.17  -0.01     0.00  -0.00   0.00
  28   1     0.09  -0.03  -0.07     0.18  -0.06  -0.11    -0.00  -0.00   0.00
  29   1     0.04   0.03  -0.04     0.10   0.09  -0.09    -0.00  -0.00  -0.00
                     58                     59                     60
                        a                      a                      a 
 Frequencies --  1405.3392              1419.6848              1445.8662
 Red. masses --    10.3428                 9.3693                 9.6055
 Frc consts  --     0.0000                 0.0000                 0.0000
 IR Inten    --     1.0223                 7.9944                34.0439
 Raman Activ --     0.0000                 0.0000                 0.0000
 Depolar     --     0.0000                 0.0000                 0.0000
 Atom AN      X      Y      Z        X      Y      Z        X      Y      Z
   1   7    -0.00  -0.00   0.00     0.00   0.01  -0.01    -0.00  -0.02   0.02
   2   6    -0.00  -0.00   0.00     0.01   0.01  -0.00    -0.01  -0.00  -0.01
   3   6     0.01   0.00  -0.00     0.00  -0.03  -0.02    -0.02   0.01   0.03
   4   8    -0.02  -0.00   0.02     0.02   0.04  -0.02    -0.04   0.05   0.02
   5   6    -0.06  -0.05   0.06    -0.20  -0.14   0.17     0.13  -0.21  -0.04
   6   6    -0.10   0.21   0.02     0.15  -0.11  -0.08     0.03   0.28  -0.09
   7   6     0.19  -0.14  -0.11    -0.05   0.20  -0.01    -0.17   0.01   0.12
   8   6    -0.01  -0.04   0.02    -0.10  -0.13   0.10     0.00  -0.20   0.04
   9   6    -0.34   0.38   0.16    -0.16  -0.02   0.12     0.17   0.27  -0.18
  10   6     0.06   0.04  -0.05     0.27   0.28  -0.25    -0.06   0.16   0.01
  11   6     0.11  -0.24  -0.03    -0.15  -0.00   0.11    -0.07  -0.26   0.10
  12   6    -0.21   0.15   0.12    -0.14  -0.18   0.14     0.20  -0.04  -0.13
  13   6     0.03   0.05  -0.04     0.26   0.18  -0.23     0.01   0.25  -0.06
  14   6     0.31  -0.38  -0.14     0.13  -0.01  -0.09    -0.19  -0.30   0.20
  15  17    -0.00   0.00   0.00     0.00  -0.00  -0.00    -0.00   0.00   0.00
  16   1    -0.00   0.00  -0.00     0.01  -0.01   0.01    -0.02   0.04  -0.03
  17   1     0.00  -0.00  -0.00    -0.01   0.01   0.01     0.02   0.01  -0.02
  18   1     0.00   0.00   0.00    -0.01  -0.00   0.00     0.03   0.02  -0.03
  19   1    -0.00   0.00  -0.00     0.00  -0.02  -0.01     0.01   0.00   0.01
  20   1     0.00   0.00  -0.00    -0.01  -0.01   0.02     0.01   0.00  -0.00
  21   1     0.00   0.00  -0.00     0.03  -0.01   0.03     0.01   0.03  -0.06
  22   1     0.01  -0.00  -0.00    -0.02   0.03   0.03     0.03  -0.04  -0.03
  23   1    -0.00  -0.02   0.01    -0.02   0.19  -0.03     0.09  -0.18  -0.02
  24   1    -0.05   0.00   0.03     0.10   0.01  -0.08     0.17  -0.09  -0.10
  25   1    -0.12  -0.14   0.12     0.08   0.09  -0.08     0.08   0.03  -0.07
  26   1     0.12   0.13  -0.11    -0.14  -0.16   0.13    -0.02   0.05   0.01
  27   1     0.00   0.05  -0.01     0.02  -0.23   0.04    -0.08   0.14   0.03
  28   1     0.05  -0.01  -0.04    -0.08  -0.04   0.06    -0.19   0.09   0.12
  29   1     0.12   0.14  -0.12    -0.08  -0.13   0.08    -0.10  -0.05   0.08
                     61                     62                     63
                        a                      a                      a 
 Frequencies --  1450.2915              1468.6889              1485.4786
 Red. masses --     2.0642                 1.8178                 1.9243
 Frc consts  --     0.0000                 0.0000                 0.0000
 IR Inten    --    90.1202                 9.6600                 9.5344
 Raman Activ --     0.0000                 0.0000                 0.0000
 Depolar     --     0.0000                 0.0000                 0.0000
 Atom AN      X      Y      Z        X      Y      Z        X      Y      Z
   1   7    -0.07  -0.21   0.10    -0.01  -0.05   0.04    -0.01   0.00  -0.01
   2   6    -0.09  -0.11  -0.05     0.11   0.22  -0.07    -0.03  -0.02   0.02
   3   6     0.02   0.00   0.00     0.00   0.01   0.02    -0.01   0.07   0.25
   4   8     0.01  -0.00  -0.00    -0.01  -0.00   0.01    -0.02   0.01   0.02
   5   6    -0.02   0.01   0.01     0.00   0.00  -0.00    -0.02  -0.04   0.02
   6   6     0.00  -0.02   0.00    -0.00  -0.01   0.00     0.00  -0.02   0.00
   7   6     0.01   0.00  -0.01    -0.01  -0.00   0.01     0.02   0.00  -0.01
   8   6    -0.00   0.01   0.00     0.01   0.01  -0.01     0.01   0.03  -0.01
   9   6    -0.01  -0.02   0.01     0.00  -0.00  -0.00    -0.03  -0.05   0.03
  10   6     0.01  -0.00  -0.01    -0.01  -0.01   0.01     0.02  -0.01  -0.01
  11   6     0.00   0.01  -0.00     0.01  -0.00  -0.01    -0.00   0.03  -0.00
  12   6    -0.01  -0.00   0.01    -0.01   0.01   0.01    -0.01  -0.01   0.01
  13   6     0.01  -0.01  -0.00    -0.00  -0.01   0.01     0.01   0.00  -0.01
  14   6     0.01   0.02  -0.01     0.01   0.01  -0.01     0.02   0.02  -0.02
  15  17     0.00  -0.00   0.00     0.00  -0.00   0.00    -0.00   0.00   0.00
  16   1    -0.11   0.64  -0.02    -0.04   0.20  -0.03     0.00   0.01   0.00
  17   1    -0.03   0.00   0.01    -0.00   0.03  -0.01     0.01  -0.03   0.00
  18   1     0.47   0.25  -0.34     0.13   0.08  -0.14     0.02   0.01   0.03
  19   1     0.01   0.19   0.09     0.08  -0.64  -0.03    -0.01   0.06   0.02
  20   1     0.20   0.06  -0.01    -0.50  -0.24   0.32     0.07   0.03  -0.02
  21   1     0.01  -0.01   0.03    -0.01   0.02  -0.07    -0.07   0.20  -0.62
  22   1    -0.02   0.02   0.02     0.03  -0.04  -0.04     0.23  -0.51  -0.38
  23   1    -0.01   0.02  -0.00     0.00   0.00   0.00    -0.03   0.13   0.00
  24   1    -0.01   0.01   0.01    -0.00  -0.00   0.00    -0.01   0.01   0.01
  25   1    -0.00   0.00   0.00    -0.00  -0.00   0.00    -0.00  -0.00   0.01
  26   1    -0.00  -0.01   0.00     0.00   0.00  -0.00    -0.00  -0.01   0.01
  27   1     0.01  -0.01  -0.00     0.00   0.00  -0.00     0.01  -0.02  -0.00
  28   1     0.01  -0.01  -0.00     0.01  -0.00  -0.00     0.01  -0.01  -0.00
  29   1    -0.00  -0.00  -0.00     0.00   0.00  -0.01     0.00  -0.00  -0.00
                     64                     65                     66
                        a                      a                      a 
 Frequencies --  1516.2425              1571.3668              1591.4427
 Red. masses --    10.8942                11.6245                11.4747
 Frc consts  --     0.0000                 0.0000                 0.0000
 IR Inten    --    15.1331                37.8751                 3.8993
 Raman Activ --     0.0000                 0.0000                 0.0000
 Depolar     --     0.0000                 0.0000                 0.0000
 Atom AN      X      Y      Z        X      Y      Z        X      Y      Z
   1   7    -0.00   0.00  -0.00    -0.00  -0.00  -0.00    -0.00  -0.00   0.00
   2   6    -0.00  -0.00   0.00    -0.00   0.00   0.00    -0.00  -0.00   0.00
   3   6     0.01  -0.01   0.00     0.01   0.02   0.00     0.00  -0.01  -0.01
   4   8     0.02   0.01  -0.01     0.01  -0.05   0.00    -0.00   0.04  -0.00
   5   6    -0.14   0.04   0.09     0.02   0.36  -0.09    -0.12  -0.20   0.13
   6   6     0.19  -0.28  -0.07     0.09  -0.45   0.04     0.11   0.12  -0.11
   7   6    -0.32   0.22   0.18    -0.06   0.19  -0.00    -0.43  -0.00   0.32
   8   6     0.06  -0.19   0.00    -0.06  -0.19   0.09     0.40   0.20  -0.33
   9   6     0.18   0.19  -0.17    -0.13   0.35   0.02    -0.21  -0.03   0.16
  10   6    -0.16   0.05   0.11     0.03  -0.13   0.01     0.04  -0.10  -0.01
  11   6     0.18  -0.35  -0.05    -0.11   0.22   0.03    -0.06   0.19   0.00
  12   6    -0.25   0.23   0.13     0.30  -0.11  -0.19     0.15  -0.07  -0.09
  13   6     0.02  -0.20   0.03    -0.19   0.04   0.13    -0.11  -0.03   0.09
  14   6     0.11   0.19  -0.12     0.13  -0.31  -0.03     0.20  -0.03  -0.14
  15  17    -0.00  -0.00  -0.00    -0.00  -0.00  -0.00     0.00   0.00   0.00
  16   1     0.00  -0.00   0.01     0.00   0.01   0.01    -0.00  -0.00  -0.00
  17   1    -0.00  -0.00   0.00    -0.00  -0.00   0.00     0.00   0.00  -0.00
  18   1     0.00  -0.00   0.01     0.01   0.00   0.00    -0.00  -0.00  -0.00
  19   1    -0.00   0.01  -0.00    -0.00  -0.00  -0.00    -0.00   0.00   0.00
  20   1     0.01   0.01  -0.00    -0.00  -0.00  -0.00     0.00   0.00  -0.00
  21   1     0.00   0.00  -0.02    -0.02  -0.00  -0.00     0.02   0.00   0.01
  22   1    -0.00  -0.01  -0.01     0.00  -0.01  -0.01    -0.01   0.02   0.01
  23   1     0.00   0.09  -0.02    -0.05   0.12   0.01     0.06  -0.08  -0.02
  24   1     0.12  -0.02  -0.08     0.01   0.04  -0.02     0.08  -0.09  -0.04
  25   1     0.09   0.03  -0.07     0.03   0.02  -0.03    -0.03  -0.12   0.05
  26   1     0.03   0.11  -0.05     0.03  -0.00  -0.02     0.02  -0.02  -0.01
  27   1    -0.01   0.13  -0.02    -0.00  -0.03   0.01     0.01  -0.04   0.00
  28   1     0.10  -0.01  -0.07    -0.06   0.04   0.04    -0.02   0.01   0.01
  29   1     0.08   0.04  -0.07    -0.01   0.06  -0.00     0.01   0.04  -0.02
                     67                     68                     69
                        a                      a                      a 
 Frequencies --  1617.4783              2887.7398              2930.8998
 Red. masses --    11.4554                 2.0151                 1.9350
 Frc consts  --     0.0000                 0.0000                 0.0000
 IR Inten    --     0.8746              1995.4118                 4.1208
 Raman Activ --     0.0000                 0.0000                 0.0000
 Depolar     --     0.0000                 0.0000                 0.0000
 Atom AN      X      Y      Z        X      Y      Z        X      Y      Z
   1   7    -0.00   0.00   0.00    -0.17  -0.13  -0.17     0.00   0.01   0.00
   2   6     0.00   0.00  -0.00     0.00   0.01  -0.00    -0.00   0.01   0.01
   3   6     0.00  -0.00   0.00     0.00  -0.01   0.01     0.09  -0.24   0.13
   4   8     0.00   0.00  -0.00     0.00  -0.00   0.00    -0.00  -0.01   0.01
   5   6    -0.00   0.01  -0.00    -0.00   0.00   0.00    -0.00  -0.00  -0.00
   6   6    -0.02  -0.01   0.02     0.00  -0.00  -0.00     0.00   0.00  -0.00
   7   6     0.08  -0.01  -0.05    -0.00  -0.00   0.00     0.00   0.00   0.00
   8   6    -0.04   0.02   0.03     0.00  -0.00  -0.00     0.00  -0.00  -0.00
   9   6    -0.11  -0.14   0.11    -0.00   0.00  -0.00     0.00  -0.00   0.00
  10   6     0.20   0.41  -0.23     0.00  -0.00  -0.00    -0.00   0.00   0.00
  11   6    -0.07  -0.41   0.14     0.00   0.00  -0.00    -0.00  -0.00   0.00
  12   6     0.29   0.10  -0.23     0.00   0.00  -0.00     0.00   0.00   0.00
  13   6    -0.32  -0.24   0.28     0.00  -0.00   0.00    -0.00   0.00   0.00
  14   6     0.06   0.20  -0.09     0.00  -0.00  -0.00    -0.00  -0.00   0.00
  15  17    -0.00   0.00   0.00     0.01   0.01   0.01    -0.00   0.00  -0.00
  16   1    -0.00   0.00  -0.00     0.02  -0.01  -0.03    -0.00  -0.00   0.00
  17   1     0.00  -0.00  -0.00     0.58   0.44   0.63    -0.01  -0.01  -0.02
  18   1     0.00   0.00  -0.00    -0.02   0.01  -0.00    -0.00  -0.00  -0.00
  19   1     0.00  -0.00   0.00    -0.01   0.00   0.00    -0.00   0.00   0.00
  20   1    -0.00  -0.00   0.00     0.01  -0.01  -0.01     0.02  -0.07  -0.02
  21   1     0.00   0.00  -0.00     0.00  -0.00  -0.00    -0.19   0.44   0.18
  22   1     0.00  -0.00  -0.00    -0.00   0.02  -0.02    -0.14   0.44  -0.66
  23   1    -0.01   0.01   0.01    -0.00   0.00   0.00    -0.01  -0.00   0.01
  24   1    -0.02   0.02   0.01     0.00   0.00  -0.00     0.00   0.00  -0.00
  25   1    -0.01   0.01   0.01    -0.00   0.00   0.00    -0.00   0.00  -0.00
  26   1    -0.08  -0.04   0.07    -0.00   0.00   0.00     0.00  -0.00  -0.00
  27   1    -0.07   0.09   0.03    -0.00  -0.00   0.00     0.00   0.00  -0.00
  28   1    -0.06   0.09   0.03    -0.00  -0.00   0.00     0.00  -0.00   0.00
  29   1     0.04   0.09  -0.04    -0.00   0.00   0.00     0.00  -0.00  -0.00
                     70                     71                     72
                        a                      a                      a 
 Frequencies --  2959.7551              2970.9336              2995.7076
 Red. masses --     1.5789                 1.8735                 1.5747
 Frc consts  --     0.0000                 0.0000                 0.0000
 IR Inten    --    25.6849                 7.4125                 1.0199
 Raman Activ --     0.0000                 0.0000                 0.0000
 Depolar     --     0.0000                 0.0000                 0.0000
 Atom AN      X      Y      Z        X      Y      Z        X      Y      Z
   1   7     0.00   0.00   0.00    -0.00  -0.00  -0.00     0.00   0.00   0.00
   2   6     0.10  -0.05  -0.05     0.22  -0.07  -0.12     0.03   0.22   0.00
   3   6    -0.04   0.10   0.16     0.03  -0.06  -0.07    -0.01   0.03   0.01
   4   8    -0.01  -0.00   0.01     0.00  -0.00  -0.00    -0.00   0.00   0.00
   5   6     0.00  -0.00  -0.00    -0.00   0.00   0.00     0.00  -0.00  -0.00
   6   6     0.00   0.00  -0.00    -0.00  -0.00   0.00     0.00   0.00  -0.00
   7   6     0.00  -0.00   0.00    -0.00  -0.00  -0.00     0.00   0.00  -0.00
   8   6     0.00  -0.00  -0.00     0.00  -0.00  -0.00    -0.00   0.00   0.00
   9   6     0.00  -0.00  -0.00    -0.00   0.00  -0.00    -0.00   0.00   0.00
  10   6    -0.00   0.00   0.00    -0.00   0.00   0.00    -0.00  -0.00   0.00
  11   6    -0.00  -0.00   0.00     0.00   0.00  -0.00    -0.00   0.00   0.00
  12   6    -0.00  -0.00   0.00     0.00   0.00  -0.00     0.00  -0.00   0.00
  13   6    -0.00   0.00   0.00     0.00  -0.00  -0.00    -0.00  -0.00   0.00
  14   6     0.00  -0.00  -0.00    -0.00  -0.00   0.00     0.00   0.00  -0.00
  15  17    -0.00  -0.00  -0.00     0.00   0.00   0.00    -0.00  -0.00   0.00
  16   1     0.01   0.00  -0.00     0.02   0.00  -0.01     0.01   0.00  -0.01
  17   1    -0.01  -0.01  -0.01     0.00   0.00   0.00    -0.01  -0.01  -0.02
  18   1     0.00  -0.01  -0.00     0.00  -0.01  -0.00    -0.01   0.02   0.00
  19   1    -0.28  -0.04   0.14    -0.70  -0.09   0.35    -0.41  -0.02   0.21
  20   1    -0.08   0.25   0.06    -0.10   0.34   0.08     0.29  -0.77  -0.21
  21   1     0.27  -0.65  -0.20    -0.13   0.32   0.10     0.04  -0.10  -0.04
  22   1    -0.09   0.30  -0.39     0.04  -0.12   0.15    -0.00   0.00   0.00
  23   1    -0.01  -0.00   0.01     0.00   0.00  -0.00    -0.00  -0.00   0.00
  24   1     0.00   0.00  -0.00     0.00   0.00  -0.00    -0.00  -0.00   0.00
  25   1    -0.00  -0.00  -0.00    -0.00   0.00   0.00     0.00  -0.00  -0.00
  26   1     0.00  -0.00  -0.00     0.00  -0.00  -0.00     0.00  -0.00   0.00
  27   1     0.00   0.00  -0.00    -0.00   0.00   0.00     0.00  -0.00  -0.00
  28   1     0.00   0.00  -0.00    -0.00  -0.00   0.00     0.00   0.00  -0.00
  29   1     0.00  -0.00  -0.00    -0.00   0.00   0.00     0.00  -0.00  -0.00
                     73                     74                     75
                        a                      a                      a 
 Frequencies --  3101.6682              3104.6346              3109.9655
 Red. masses --     1.7632                 1.7918                 1.8204
 Frc consts  --     0.0000                 0.0000                 0.0000
 IR Inten    --     4.7511                17.5136                29.5847
 Raman Activ --     0.0000                 0.0000                 0.0000
 Depolar     --     0.0000                 0.0000                 0.0000
 Atom AN      X      Y      Z        X      Y      Z        X      Y      Z
   1   7    -0.00   0.00   0.00     0.00   0.00   0.00    -0.00   0.00   0.00
   2   6    -0.00   0.00   0.00    -0.00   0.00   0.00    -0.00   0.00   0.00
   3   6     0.00   0.00  -0.00    -0.00   0.00  -0.00    -0.00   0.00   0.00
   4   8    -0.00   0.00   0.00     0.00  -0.00   0.00    -0.00   0.00   0.00
   5   6     0.00   0.00  -0.00     0.00   0.00  -0.00     0.00   0.00  -0.00
   6   6     0.00   0.00  -0.00     0.02   0.00  -0.02     0.00   0.00  -0.00
   7   6    -0.00  -0.01   0.00    -0.04  -0.23   0.08    -0.00  -0.02   0.01
   8   6    -0.01   0.01   0.00    -0.05   0.06   0.02     0.01  -0.01  -0.00
   9   6     0.00  -0.00  -0.00    -0.00   0.00   0.00    -0.00   0.00   0.00
  10   6     0.03  -0.04  -0.01     0.01  -0.01  -0.00    -0.07   0.08   0.03
  11   6    -0.15  -0.04   0.11     0.00   0.00  -0.00     0.12   0.03  -0.09
  12   6     0.03   0.16  -0.06    -0.00  -0.02   0.01     0.04   0.17  -0.06
  13   6     0.02  -0.02  -0.01    -0.00   0.00   0.00     0.05  -0.06  -0.02
  14   6     0.00  -0.00  -0.00    -0.00   0.00  -0.00     0.00  -0.00  -0.00
  15  17     0.00  -0.00  -0.00    -0.00   0.00  -0.00     0.00  -0.00   0.00
  16   1     0.00   0.00  -0.00    -0.00  -0.00   0.00     0.00   0.00  -0.00
  17   1    -0.00  -0.00  -0.00    -0.00  -0.00  -0.00    -0.00  -0.00  -0.00
  18   1     0.00  -0.00  -0.00     0.00  -0.00  -0.00     0.00  -0.00  -0.00
  19   1     0.00   0.00  -0.00    -0.00  -0.00   0.00     0.00   0.00  -0.00
  20   1     0.00  -0.00  -0.00     0.00  -0.00  -0.00     0.00  -0.00  -0.00
  21   1     0.00  -0.00  -0.00    -0.00   0.00   0.00     0.00  -0.00  -0.00
  22   1     0.00  -0.00   0.00     0.00  -0.00   0.00    -0.00   0.00  -0.00
  23   1    -0.00  -0.00   0.00    -0.10  -0.03   0.08    -0.02  -0.00   0.01
  24   1     0.01   0.04  -0.02     0.16   0.83  -0.30     0.02   0.08  -0.03
  25   1     0.02  -0.02  -0.01     0.19  -0.23  -0.08    -0.02   0.02   0.01
  26   1    -0.13   0.17   0.06    -0.02   0.03   0.01     0.24  -0.30  -0.11
  27   1     0.53   0.13  -0.41    -0.01  -0.00   0.00    -0.40  -0.10   0.31
  28   1    -0.11  -0.58   0.20     0.02   0.08  -0.03    -0.12  -0.59   0.21
  29   1    -0.09   0.11   0.04     0.02  -0.02  -0.01    -0.18   0.22   0.08
                     76                     77                     78
                        a                      a                      a 
 Frequencies --  3120.9854              3125.1081              3127.0108
 Red. masses --     1.8768                 1.8546                 1.8743
 Frc consts  --     0.0000                 0.0000                 0.0000
 IR Inten    --    17.6226                77.1486                15.0165
 Raman Activ --     0.0000                 0.0000                 0.0000
 Depolar     --     0.0000                 0.0000                 0.0000
 Atom AN      X      Y      Z        X      Y      Z        X      Y      Z
   1   7    -0.00   0.00   0.00    -0.00   0.00   0.00    -0.00  -0.00   0.00
   2   6     0.00  -0.00  -0.00    -0.00   0.00   0.00    -0.00  -0.00   0.00
   3   6    -0.00  -0.00   0.00    -0.00   0.00  -0.00     0.00   0.00   0.00
   4   8     0.00   0.00  -0.00    -0.00   0.00  -0.00    -0.00   0.00  -0.00
   5   6    -0.00  -0.00   0.00     0.00  -0.00  -0.00     0.00  -0.00  -0.00
   6   6    -0.01  -0.00   0.01     0.02   0.01  -0.02    -0.01  -0.00   0.01
   7   6     0.01   0.05  -0.02    -0.01  -0.06   0.02     0.00   0.02  -0.01
   8   6    -0.08   0.10   0.04     0.13  -0.16  -0.06    -0.04   0.05   0.02
   9   6    -0.00  -0.01   0.00     0.00  -0.00  -0.00    -0.00   0.00   0.00
  10   6     0.12  -0.16  -0.05     0.07  -0.09  -0.03    -0.04   0.05   0.02
  11   6     0.09   0.02  -0.07     0.03   0.01  -0.02    -0.05  -0.01   0.04
  12   6     0.00   0.03  -0.01    -0.01  -0.02   0.01    -0.02  -0.10   0.03
  13   6     0.03  -0.04  -0.01     0.06  -0.07  -0.03     0.14  -0.17  -0.07
  14   6     0.00   0.00  -0.00     0.00   0.00  -0.00     0.01  -0.00  -0.00
  15  17    -0.00  -0.00   0.00    -0.00   0.00   0.00    -0.00   0.00  -0.00
  16   1     0.00   0.00  -0.00     0.00   0.00  -0.00     0.01   0.00  -0.00
  17   1    -0.00  -0.00  -0.00    -0.00  -0.00  -0.00     0.00   0.00   0.00
  18   1     0.00  -0.00  -0.00     0.00  -0.00  -0.00    -0.00   0.00   0.00
  19   1     0.00   0.00   0.00     0.00  -0.00  -0.00     0.00   0.00  -0.00
  20   1    -0.00   0.00   0.00    -0.00  -0.00  -0.00     0.00  -0.00   0.00
  21   1     0.00  -0.00  -0.00     0.00  -0.00  -0.00    -0.00   0.00  -0.00
  22   1    -0.00   0.00  -0.00     0.00  -0.00   0.00    -0.00   0.00  -0.00
  23   1     0.04   0.01  -0.03    -0.09  -0.02   0.07     0.04   0.01  -0.04
  24   1    -0.03  -0.16   0.06     0.04   0.20  -0.07    -0.01  -0.05   0.02
  25   1     0.28  -0.35  -0.13    -0.45   0.56   0.20     0.13  -0.16  -0.06
  26   1    -0.43   0.53   0.19    -0.25   0.31   0.11     0.13  -0.16  -0.06
  27   1    -0.28  -0.07   0.22    -0.10  -0.02   0.07     0.15   0.04  -0.12
  28   1    -0.02  -0.09   0.03     0.01   0.06  -0.02     0.06   0.31  -0.11
  29   1    -0.11   0.14   0.05    -0.20   0.25   0.09    -0.50   0.61   0.23
                     79                     80                     81
                        a                      a                      a 
 Frequencies --  3142.2251              3209.2543              3243.4501
 Red. masses --     1.8340                 1.8504                 1.6857
 Frc consts  --     0.0000                 0.0000                 0.0000
 IR Inten    --    32.5785                49.9103                33.5611
 Raman Activ --     0.0000                 0.0000                 0.0000
 Depolar     --     0.0000                 0.0000                 0.0000
 Atom AN      X      Y      Z        X      Y      Z        X      Y      Z
   1   7     0.00   0.00  -0.00    -0.23   0.01   0.12    -0.06   0.22   0.03
   2   6    -0.00  -0.00   0.00    -0.01  -0.00   0.01    -0.00   0.01  -0.00
   3   6     0.00   0.00  -0.00     0.00  -0.00  -0.00    -0.00  -0.00  -0.00
   4   8     0.00   0.00  -0.00     0.00  -0.00   0.00     0.00   0.00   0.00
   5   6     0.01  -0.01  -0.00     0.00   0.00  -0.00    -0.00   0.00   0.00
   6   6     0.20   0.06  -0.16     0.00   0.00  -0.00    -0.00  -0.00   0.00
   7   6     0.01   0.05  -0.02     0.00   0.00  -0.00     0.00   0.00  -0.00
   8   6    -0.02   0.02   0.01    -0.00   0.00   0.00    -0.00   0.00   0.00
   9   6    -0.00  -0.00   0.00    -0.00   0.00  -0.00     0.00  -0.00   0.00
  10   6    -0.00   0.01   0.00    -0.00   0.00   0.00    -0.00   0.00   0.00
  11   6    -0.00  -0.00   0.00    -0.00  -0.00   0.00    -0.00  -0.00   0.00
  12   6    -0.00  -0.00   0.00    -0.00  -0.00   0.00    -0.00  -0.00   0.00
  13   6     0.00  -0.00  -0.00    -0.00   0.00   0.00     0.00  -0.00  -0.00
  14   6    -0.00   0.00   0.00    -0.00   0.00   0.00     0.00  -0.00  -0.00
  15  17    -0.00  -0.00   0.00     0.00   0.00   0.00    -0.00  -0.00  -0.00
  16   1    -0.01  -0.00   0.01     0.86   0.11  -0.40    -0.14   0.01   0.07
  17   1     0.00   0.00  -0.00    -0.04  -0.02  -0.02     0.02   0.03   0.03
  18   1     0.00   0.00   0.00     0.03  -0.13  -0.02     0.36  -0.86  -0.21
  19   1     0.00  -0.00  -0.00     0.02   0.00  -0.01    -0.00  -0.00   0.00
  20   1    -0.00   0.00  -0.00     0.00  -0.00  -0.00     0.01  -0.02  -0.01
  21   1    -0.00   0.00   0.00    -0.00   0.00   0.00    -0.00   0.00  -0.00
  22   1     0.00  -0.01   0.01    -0.00  -0.00  -0.00     0.00  -0.00   0.00
  23   1    -0.72  -0.19   0.58    -0.01  -0.00   0.01     0.00   0.00  -0.00
  24   1    -0.03  -0.15   0.06    -0.00  -0.00   0.00    -0.00  -0.00   0.00
  25   1     0.05  -0.06  -0.02     0.00  -0.00  -0.00     0.00  -0.00  -0.00
  26   1     0.01  -0.02  -0.01     0.00  -0.00  -0.00     0.00  -0.00  -0.00
  27   1     0.01   0.00  -0.01     0.00   0.00  -0.00     0.00   0.00  -0.00
  28   1     0.00   0.01  -0.00     0.00   0.00  -0.00     0.00   0.00  -0.00
  29   1    -0.01   0.01   0.00     0.01  -0.01  -0.00    -0.00   0.00   0.00
