 Entering Gaussian System
 *********************************************
 Gaussian 98:
 frequency output generated by the xtb code
 *********************************************
                         Standard orientation:
 --------------------------------------------------------------------
  Center     Atomic     Atomic              Coordinates (Angstroms)
  Number     Number      Type              X           Y           Z
 --------------------------------------------------------------------
    1          7             0       -6.838537   -2.966815   -0.236301
    2          6             0       -7.702139   -2.025719    0.535250
    3          6             0       -7.805784   -0.641239   -0.109402
    4          6             0       -6.541840    0.146984   -0.053387
    5          6             0       -6.443463    1.506104    0.042940
    6          6             0       -5.116230    1.992967    0.064954
    7          6             0       -4.159275    1.006382   -0.016847
    8          6             0       -2.742294    1.168404   -0.014362
    9          6             0       -2.031588    2.349651    0.083783
   10          6             0       -0.637618    2.195154    0.075848
   11          6             0        0.280728    3.361469    0.179293
   12          6             0       -0.229676    0.860381   -0.027771
   13          6             0        1.105942    0.368024   -0.038465
   14          6             0        1.495114   -0.968708   -0.168234
   15          6             0        0.588408   -2.022584   -0.305619
   16          7             0       -0.205386   -2.865440   -0.419404
   17          6             0        2.904954   -1.172256   -0.129578
   18          6             0        3.450777   -2.458949   -0.163548
   19          7             0        3.928821   -3.519221   -0.197678
   20          6             0        3.636230    0.010811    0.015487
   21          6             0        5.053182    0.223144    0.100022
   22          6             0        6.123896   -0.534513   -0.365900
   23          6             0        6.035287   -1.777254   -1.180408
   24          6             0        7.383181    0.021481   -0.018646
   25          6             0        7.310859    1.192243    0.664002
   26         16             0        5.679312    1.646962    0.892017
   27         16             0        2.531968    1.337837    0.124569
   28         16             0       -1.644011   -0.155302   -0.136784
   29         16             0       -4.959334   -0.533994   -0.122662
   30          1             0       -6.760440   -3.887275    0.223400
   31          1             0       -5.888695   -2.586010   -0.338135
   32          1             0       -7.212221   -3.120785   -1.185059
   33          1             0       -7.309445   -1.924109    1.553939
   34          1             0       -8.699651   -2.470444    0.643235
   35          1             0       -8.602610   -0.061394    0.371580
   36          1             0       -8.107129   -0.749490   -1.156790
   37          1             0       -7.308249    2.151189    0.095022
   38          1             0       -4.874734    3.042376    0.138932
   39          1             0       -2.508702    3.313294    0.166373
   40          1             0        0.882481    3.301038    1.086681
   41          1             0       -0.273807    4.299982    0.208483
   42          1             0        0.955356    3.400234   -0.676559
   43          1             0        5.171515   -1.752290   -1.844615
   44          1             0        5.948995   -2.655642   -0.538896
   45          1             0        6.922794   -1.903370   -1.801531
   46          1             0        8.318307   -0.449484   -0.285718
   47          1             0        8.148894    1.767269    1.013629
 --------------------------------------------------------------------
     1 basis functions        1 primitive gaussians
     1 alpha electrons        1 beta electrons

 Harmonic frequencies (cm**-1), IR intensities (km*mol⁻¹),
 Raman scattering activities (A**4/amu), Raman depolarization ratios,
 reduced masses (AMU), force constants (mDyne/A) and normal coordinates:
                      1                      2                      3
                        a                      a                      a 
 Frequencies --   -51.8738               -33.2381                12.7467
 Red. masses --    19.1447                16.1737                15.3631
 Frc consts  --     0.0000                 0.0000                 0.0000
 IR Inten    --     3.0407                 1.6866                 7.5136
 Raman Activ --     0.0000                 0.0000                 0.0000
 Depolar     --     0.0000                 0.0000                 0.0000
 Atom AN      X      Y      Z        X      Y      Z        X      Y      Z
   1   7     0.02  -0.01   0.12     0.00   0.01  -0.00    -0.03  -0.00   0.34
   2   6    -0.06   0.00   0.00     0.03   0.01   0.03     0.00   0.07   0.26
   3   6     0.01  -0.00  -0.03     0.01   0.01   0.03    -0.01   0.01   0.15
   4   6     0.01  -0.01   0.09     0.01   0.01   0.01    -0.00   0.01   0.05
   5   6     0.01  -0.03   0.44     0.01   0.02  -0.08     0.01   0.01  -0.00
   6   6     0.01  -0.03   0.41     0.01   0.02  -0.07     0.01   0.01  -0.07
   7   6     0.00   0.00   0.04     0.01   0.01   0.02     0.00  -0.00  -0.07
   8   6     0.00   0.01  -0.03     0.01   0.00   0.04     0.00  -0.01  -0.11
   9   6     0.01   0.01  -0.04     0.02  -0.00   0.10     0.01  -0.00  -0.19
  10   6     0.01   0.00  -0.05     0.02  -0.01   0.08     0.01  -0.01  -0.18
  11   6     0.01   0.00  -0.07     0.02  -0.02   0.14     0.01  -0.00  -0.26
  12   6     0.00   0.00  -0.05     0.01  -0.01   0.01     0.00  -0.01  -0.09
  13   6     0.00   0.00  -0.03     0.01  -0.01  -0.03     0.00  -0.01  -0.07
  14   6    -0.00  -0.00  -0.00    -0.01  -0.01  -0.09     0.01  -0.00  -0.14
  15   6    -0.00  -0.00   0.01    -0.01   0.00  -0.12     0.02   0.00  -0.22
  16   7    -0.00  -0.00   0.02    -0.02   0.01  -0.15     0.02   0.00  -0.24
  17   6    -0.00  -0.01   0.01    -0.01  -0.03  -0.11     0.01  -0.00  -0.11
  18   6    -0.02  -0.02   0.02    -0.08  -0.06  -0.18     0.01  -0.00  -0.19
  19   7    -0.04  -0.03   0.03    -0.16  -0.10  -0.23     0.01  -0.00  -0.23
  20   6     0.00  -0.01   0.00     0.01  -0.05  -0.04     0.00  -0.01   0.02
  21   6     0.00  -0.01   0.02     0.00  -0.02   0.00    -0.00  -0.00   0.09
  22   6     0.02  -0.03   0.09     0.07  -0.06   0.21     0.03   0.06   0.05
  23   6     0.05  -0.07   0.15     0.19  -0.19   0.40     0.07   0.09   0.00
  24   6     0.01  -0.00   0.08     0.02   0.04   0.21     0.01   0.07   0.11
  25   6    -0.01   0.04   0.00    -0.06   0.16  -0.00    -0.04   0.01   0.21
  26  16    -0.04   0.08  -0.11    -0.16   0.25  -0.35    -0.09  -0.11   0.38
  27  16     0.01  -0.01  -0.06     0.03  -0.07   0.04    -0.01  -0.05   0.16
  28  16     0.00   0.01  -0.08     0.01   0.01  -0.08     0.00  -0.03  -0.03
  29  16     0.01   0.05  -0.62     0.02   0.00   0.20    -0.02   0.00  -0.01
  30   1    -0.03  -0.01   0.02     0.01   0.01   0.00    -0.00   0.01   0.11
  31   1     0.02  -0.02   0.09    -0.00   0.01  -0.02    -0.01  -0.00   0.07
  32   1     0.05   0.02   0.01    -0.01  -0.00   0.01    -0.02  -0.02   0.10
  33   1    -0.05   0.00   0.01     0.02   0.00   0.00     0.01   0.04   0.07
  34   1    -0.02   0.00  -0.03     0.01   0.00   0.02     0.00   0.02   0.10
  35   1    -0.01   0.00  -0.03     0.01   0.00   0.02     0.00   0.02   0.04
  36   1     0.03  -0.01  -0.02    -0.01   0.00   0.01    -0.01  -0.02   0.05
  37   1     0.00  -0.02   0.21     0.00   0.01  -0.04     0.00   0.01   0.00
  38   1     0.00  -0.01   0.19     0.00   0.01  -0.04     0.01   0.00  -0.03
  39   1     0.00   0.00  -0.01     0.01  -0.00   0.05     0.00   0.00  -0.08
  40   1     0.00   0.00  -0.02     0.01  -0.02   0.04    -0.01   0.03  -0.07
  41   1     0.00   0.00  -0.02     0.01  -0.01   0.05     0.00   0.00  -0.12
  42   1     0.00  -0.00  -0.02     0.01   0.00   0.04     0.02  -0.03  -0.07
  43   1     0.02  -0.03   0.03     0.09  -0.08   0.07     0.03   0.03  -0.01
  44   1     0.01  -0.01   0.06     0.02  -0.03   0.15     0.01   0.02  -0.01
  45   1     0.02  -0.03   0.06     0.08  -0.09   0.17     0.03   0.03   0.01
  46   1     0.00  -0.00   0.04     0.02   0.01   0.10     0.01   0.03   0.02
  47   1    -0.01   0.02  -0.01    -0.03   0.08  -0.02    -0.02  -0.00   0.08
                      4                      5                      6
                        a                      a                      a 
 Frequencies --    33.5873                37.4952                52.0467
 Red. masses --    16.0822                16.7858                19.3592
 Frc consts  --     0.0000                 0.0000                 0.0000
 IR Inten    --     6.5138                 8.0734                 5.1061
 Raman Activ --     0.0000                 0.0000                 0.0000
 Depolar     --     0.0000                 0.0000                 0.0000
 Atom AN      X      Y      Z        X      Y      Z        X      Y      Z
   1   7    -0.29   0.14  -0.18     0.24  -0.08  -0.20     0.08  -0.04   0.30
   2   6    -0.25   0.14  -0.16     0.14  -0.16  -0.16    -0.01   0.08   0.05
   3   6    -0.11   0.19  -0.08     0.09  -0.13  -0.07     0.03  -0.03  -0.19
   4   6    -0.05   0.09   0.01     0.05  -0.06   0.03     0.01  -0.00  -0.20
   5   6     0.04   0.08   0.04    -0.02  -0.06   0.05    -0.01  -0.00  -0.18
   6   6     0.06  -0.01   0.08    -0.04   0.01   0.09    -0.01   0.01  -0.14
   7   6     0.01  -0.07   0.08     0.00   0.05   0.10     0.00   0.02  -0.11
   8   6     0.01  -0.11   0.07    -0.00   0.09   0.08     0.00   0.02  -0.01
   9   6     0.02  -0.10  -0.07     0.00   0.11  -0.14     0.01   0.01  -0.01
  10   6     0.01  -0.10  -0.08     0.00   0.10  -0.15     0.00  -0.00   0.11
  11   6     0.01  -0.08  -0.23     0.02   0.10  -0.37     0.01  -0.01   0.12
  12   6     0.02  -0.11   0.05    -0.01   0.08   0.04    -0.00  -0.01   0.18
  13   6     0.03  -0.09   0.05    -0.02   0.06   0.03    -0.01  -0.02   0.20
  14   6     0.07  -0.07   0.03    -0.06   0.05  -0.00    -0.01  -0.01   0.09
  15   6     0.09  -0.09   0.02    -0.08   0.07  -0.03    -0.02  -0.00   0.07
  16   7     0.10  -0.10   0.02    -0.09   0.08  -0.04    -0.03  -0.00   0.10
  17   6     0.07  -0.03  -0.01    -0.06   0.01  -0.03    -0.01  -0.02  -0.00
  18   6     0.11  -0.01  -0.05    -0.11  -0.01  -0.08    -0.03  -0.02  -0.13
  19   7     0.13  -0.01  -0.08    -0.15  -0.02  -0.10    -0.06  -0.04  -0.19
  20   6     0.04  -0.01  -0.01    -0.03  -0.01  -0.00    -0.00  -0.03   0.06
  21   6     0.03   0.05  -0.02    -0.02  -0.04  -0.00    -0.00  -0.01  -0.03
  22   6     0.06   0.09  -0.01    -0.03  -0.07   0.02    -0.01   0.02  -0.09
  23   6     0.11   0.08   0.00    -0.03  -0.09   0.05    -0.02   0.00  -0.06
  24   6     0.04   0.14  -0.02    -0.03  -0.08   0.03    -0.00   0.06  -0.18
  25   6    -0.00   0.14  -0.03    -0.01  -0.07   0.00     0.01   0.07  -0.18
  26  16    -0.04   0.14  -0.06    -0.01  -0.06  -0.04     0.02   0.03  -0.14
  27  16    -0.00  -0.07   0.05     0.01   0.02   0.08    -0.00  -0.07   0.44
  28  16     0.02  -0.21   0.38    -0.02   0.11   0.48    -0.01  -0.01   0.26
  29  16    -0.15  -0.03   0.08     0.13   0.03   0.13     0.03   0.03  -0.32
  30   1    -0.12   0.02  -0.07     0.07  -0.03  -0.07    -0.01   0.00   0.11
  31   1    -0.06   0.01  -0.01     0.06  -0.01  -0.03     0.03  -0.02   0.11
  32   1    -0.05   0.07  -0.06     0.08  -0.01  -0.06     0.06  -0.03   0.07
  33   1    -0.09   0.01  -0.04     0.03  -0.06  -0.04    -0.03   0.07   0.02
  34   1    -0.08   0.06  -0.07     0.05  -0.06  -0.06    -0.00   0.02   0.01
  35   1    -0.02   0.06  -0.02     0.01  -0.06  -0.02    -0.01   0.01  -0.10
  36   1    -0.02   0.08  -0.03     0.04  -0.02  -0.03     0.03  -0.06  -0.06
  37   1     0.02   0.04   0.01    -0.02  -0.03   0.01    -0.00  -0.00  -0.06
  38   1     0.04  -0.01   0.03    -0.03   0.01   0.03    -0.01   0.00  -0.03
  39   1     0.01  -0.03  -0.05     0.00   0.04  -0.08     0.00   0.01  -0.03
  40   1     0.01   0.01  -0.07     0.01   0.07  -0.11    -0.01   0.00   0.05
  41   1    -0.00  -0.02  -0.09     0.01   0.03  -0.15     0.01  -0.00   0.01
  42   1    -0.00  -0.05  -0.07     0.00  -0.01  -0.11     0.02  -0.01   0.05
  43   1     0.03   0.01  -0.00    -0.00  -0.02   0.00    -0.01  -0.00  -0.02
  44   1     0.04   0.02   0.00    -0.02  -0.02   0.02    -0.01   0.01  -0.01
  45   1     0.03   0.03   0.00    -0.00  -0.04   0.02    -0.01  -0.01  -0.02
  46   1     0.02   0.05  -0.00    -0.01  -0.03   0.01    -0.00   0.02  -0.07
  47   1    -0.01   0.05  -0.01    -0.00  -0.02  -0.00     0.00   0.03  -0.07
                      7                      8                      9
                        a                      a                      a 
 Frequencies --    69.5079                72.1328                81.8215
 Red. masses --    15.2857                15.3858                14.5035
 Frc consts  --     0.0000                 0.0000                 0.0000
 IR Inten    --     2.5319                 2.2841                 3.1542
 Raman Activ --     0.0000                 0.0000                 0.0000
 Depolar     --     0.0000                 0.0000                 0.0000
 Atom AN      X      Y      Z        X      Y      Z        X      Y      Z
   1   7     0.15   0.05  -0.17     0.07  -0.04   0.30     0.25   0.04   0.13
   2   6     0.24  -0.03   0.04    -0.18   0.05  -0.10     0.03   0.03  -0.10
   3   6     0.06   0.01   0.14     0.02  -0.02  -0.29     0.09   0.00  -0.17
   4   6     0.03   0.06   0.03     0.01  -0.03  -0.10     0.05   0.05  -0.02
   5   6     0.01   0.06   0.03    -0.00  -0.03  -0.09     0.01   0.05  -0.00
   6   6     0.01   0.08  -0.02    -0.01  -0.02   0.03     0.01   0.08   0.07
   7   6     0.02   0.09  -0.06     0.00  -0.01   0.11     0.02   0.09   0.11
   8   6     0.02   0.06  -0.06     0.00   0.00   0.15     0.02   0.06   0.09
   9   6     0.06   0.03  -0.05    -0.00   0.00   0.15     0.07   0.02   0.10
  10   6     0.05  -0.04  -0.01    -0.00   0.02   0.07     0.07  -0.05   0.01
  11   6     0.09  -0.07   0.02    -0.00   0.02   0.03     0.11  -0.08  -0.02
  12   6    -0.01  -0.06   0.01     0.00   0.02   0.01    -0.01  -0.07  -0.05
  13   6    -0.03  -0.10   0.03     0.01   0.03  -0.08    -0.03  -0.11  -0.07
  14   6    -0.03  -0.11   0.09    -0.00   0.02  -0.03    -0.02  -0.11  -0.07
  15   6    -0.05  -0.12   0.27    -0.01   0.01   0.12    -0.03  -0.09  -0.21
  16   7    -0.07  -0.13   0.42    -0.02   0.00   0.21    -0.05  -0.07  -0.33
  17   6    -0.02  -0.09  -0.01    -0.00   0.02  -0.10    -0.02  -0.10   0.05
  18   6     0.02  -0.07  -0.12     0.00   0.02  -0.12     0.05  -0.08   0.19
  19   7     0.06  -0.06  -0.23     0.01   0.03  -0.17     0.14  -0.05   0.31
  20   6    -0.04  -0.08  -0.06     0.00   0.02  -0.16    -0.05  -0.09   0.05
  21   6    -0.05  -0.01  -0.03     0.00   0.00  -0.07    -0.07  -0.02   0.03
  22   6     0.01   0.09  -0.04     0.03  -0.00   0.01    -0.04   0.07  -0.04
  23   6     0.09   0.10  -0.06     0.08   0.02  -0.04    -0.04   0.06  -0.03
  24   6    -0.04   0.17   0.01     0.01  -0.04   0.15    -0.07   0.17  -0.12
  25   6    -0.14   0.13   0.07    -0.03  -0.07   0.20    -0.12   0.16  -0.10
  26  16    -0.29  -0.02   0.12    -0.07  -0.09   0.12    -0.23   0.03   0.03
  27  16    -0.05  -0.14  -0.15     0.03   0.07  -0.45    -0.09  -0.17  -0.00
  28  16    -0.07   0.01  -0.04     0.01   0.03   0.10    -0.09   0.01  -0.04
  29  16     0.06   0.14  -0.08     0.04  -0.03   0.10     0.10   0.13   0.14
  30   1     0.10   0.02  -0.04    -0.08  -0.02   0.08     0.01  -0.00   0.02
  31   1     0.02   0.04  -0.12     0.05  -0.05   0.21     0.08  -0.00   0.13
  32   1    -0.03  -0.01  -0.02     0.14   0.02   0.03     0.15   0.03  -0.00
  33   1     0.12  -0.02  -0.01    -0.14   0.05   0.00    -0.05   0.02  -0.01
  34   1     0.08  -0.02   0.06    -0.06   0.02  -0.11     0.01  -0.00  -0.08
  35   1     0.03  -0.02   0.08    -0.02   0.02  -0.16    -0.00  -0.00  -0.09
  36   1    -0.02   0.02   0.05     0.08  -0.04  -0.10     0.07  -0.01  -0.06
  37   1     0.00   0.01   0.02    -0.00  -0.01  -0.05    -0.00   0.01  -0.01
  38   1     0.00   0.02  -0.00    -0.01  -0.00   0.01    -0.00   0.02   0.02
  39   1     0.03   0.01  -0.02    -0.00  -0.00   0.06     0.03   0.01   0.05
  40   1     0.03  -0.04   0.00     0.03  -0.00  -0.01     0.04  -0.03  -0.01
  41   1     0.03  -0.02   0.02    -0.00   0.00   0.04     0.04  -0.02  -0.01
  42   1     0.02  -0.02   0.00    -0.03   0.02  -0.01     0.03  -0.03  -0.01
  43   1     0.03   0.02  -0.02     0.03   0.01  -0.02    -0.02   0.01   0.01
  44   1     0.03   0.03  -0.02     0.02   0.00  -0.02     0.01   0.02  -0.00
  45   1     0.03   0.04  -0.01     0.03   0.01   0.00    -0.02   0.02  -0.02
  46   1     0.00   0.07  -0.00     0.01  -0.01   0.06    -0.01   0.07  -0.05
  47   1    -0.06   0.05   0.03    -0.02  -0.03   0.09    -0.04   0.06  -0.04
                     10                     11                     12
                        a                      a                      a 
 Frequencies --   100.6008               123.4026               133.8801
 Red. masses --    18.7306                14.3809                11.2253
 Frc consts  --     0.0000                 0.0000                 0.0000
 IR Inten    --     0.7199                 5.7076                 0.1640
 Raman Activ --     0.0000                 0.0000                 0.0000
 Depolar     --     0.0000                 0.0000                 0.0000
 Atom AN      X      Y      Z        X      Y      Z        X      Y      Z
   1   7     0.02   0.01  -0.00     0.28   0.10   0.03    -0.01  -0.08   0.03
   2   6    -0.20  -0.05  -0.17     0.02  -0.07  -0.05     0.12   0.08  -0.01
   3   6     0.00   0.01  -0.06    -0.04  -0.00   0.09     0.03  -0.05  -0.27
   4   6     0.03  -0.04   0.14    -0.07   0.05   0.09    -0.05   0.06  -0.11
   5   6     0.02  -0.04   0.10    -0.08   0.05   0.03    -0.06   0.05   0.01
   6   6     0.02  -0.03   0.05    -0.08   0.07  -0.05    -0.06   0.04   0.18
   7   6     0.02  -0.02   0.02    -0.07   0.08  -0.06    -0.05   0.05   0.18
   8   6     0.02   0.01  -0.10    -0.07   0.02  -0.10    -0.04   0.01   0.14
   9   6     0.01   0.02  -0.07    -0.02  -0.01  -0.11    -0.01  -0.02   0.16
  10   6     0.01   0.03  -0.10    -0.03  -0.06  -0.03    -0.01  -0.04  -0.02
  11   6     0.01   0.03  -0.10    -0.02  -0.08   0.03    -0.00  -0.03  -0.21
  12   6     0.02   0.04  -0.12    -0.06  -0.07   0.01    -0.04  -0.04  -0.09
  13   6     0.02   0.02   0.01    -0.05  -0.07   0.06    -0.03  -0.03  -0.05
  14   6    -0.00   0.01   0.04     0.02  -0.04   0.01     0.02  -0.02  -0.04
  15   6    -0.02   0.02   0.14     0.08  -0.09   0.01     0.09  -0.08   0.03
  16   7    -0.03   0.01   0.26     0.12  -0.13   0.02     0.14  -0.15   0.13
  17   6    -0.01  -0.01   0.05     0.04   0.04  -0.04     0.03   0.03  -0.02
  18   6    -0.07  -0.04  -0.07     0.14   0.09  -0.05     0.03   0.03  -0.05
  19   7    -0.15  -0.07  -0.17     0.24   0.13  -0.03     0.02   0.03  -0.07
  20   6     0.01  -0.03   0.12    -0.01   0.07  -0.04     0.01   0.04   0.04
  21   6     0.01  -0.02   0.08    -0.00   0.05  -0.07     0.01   0.04   0.02
  22   6    -0.00   0.03  -0.02    -0.02  -0.07   0.06    -0.02  -0.01   0.03
  23   6    -0.03  -0.00   0.03     0.03   0.04  -0.11    -0.03   0.02  -0.01
  24   6     0.01   0.09  -0.15    -0.00  -0.22   0.24     0.01  -0.07   0.04
  25   6     0.03   0.08  -0.13     0.05  -0.17   0.16     0.07  -0.05   0.01
  26  16     0.05  -0.01   0.09     0.11   0.12  -0.26     0.15   0.07  -0.05
  27  16     0.04  -0.03   0.29    -0.14  -0.01   0.19    -0.09  -0.01   0.19
  28  16     0.05   0.07  -0.47    -0.17  -0.04  -0.05    -0.12   0.00  -0.24
  29  16     0.05  -0.06   0.29    -0.10   0.13   0.05    -0.07   0.09   0.12
  30   1    -0.12  -0.04  -0.07    -0.05  -0.03  -0.08     0.22   0.08   0.18
  31   1     0.04  -0.05   0.18     0.11  -0.01   0.20    -0.08   0.09  -0.27
  32   1     0.14   0.11  -0.07     0.21   0.16  -0.07    -0.18  -0.27   0.12
  33   1    -0.15  -0.05  -0.01    -0.06  -0.04   0.01     0.09   0.09  -0.03
  34   1    -0.07  -0.01  -0.15     0.01  -0.05  -0.09     0.04   0.02   0.08
  35   1    -0.01   0.00  -0.03    -0.01  -0.02   0.05    -0.04  -0.01  -0.15
  36   1     0.04   0.04  -0.03    -0.02   0.02   0.03     0.07  -0.07  -0.09
  37   1     0.01  -0.01   0.02    -0.02   0.01   0.01    -0.02   0.01  -0.01
  38   1     0.00  -0.01  -0.00    -0.03   0.02  -0.03    -0.02   0.01   0.07
  39   1     0.00   0.00   0.00     0.00   0.00  -0.04     0.00  -0.00   0.08
  40   1    -0.02   0.03  -0.01    -0.03  -0.02   0.02     0.01   0.03  -0.06
  41   1     0.00   0.01  -0.06    -0.00  -0.02  -0.00     0.00  -0.01  -0.10
  42   1     0.02  -0.01  -0.01     0.01  -0.02   0.02    -0.01  -0.05  -0.07
  43   1    -0.01  -0.00   0.01     0.01   0.03  -0.03    -0.01   0.01   0.00
  44   1    -0.02   0.01   0.02     0.02  -0.02  -0.07    -0.00  -0.00  -0.01
  45   1    -0.01  -0.02   0.01     0.01   0.05  -0.04    -0.01   0.01  -0.01
  46   1     0.00   0.04  -0.07    -0.01  -0.10   0.12    -0.00  -0.04   0.02
  47   1     0.01   0.03  -0.06     0.02  -0.07   0.06     0.03  -0.02  -0.00
                     13                     14                     15
                        a                      a                      a 
 Frequencies --   140.6292               149.8133               164.1654
 Red. masses --    16.1081                16.0725                14.1640
 Frc consts  --     0.0000                 0.0000                 0.0000
 IR Inten    --     8.6633                 0.8148                10.8844
 Raman Activ --     0.0000                 0.0000                 0.0000
 Depolar     --     0.0000                 0.0000                 0.0000
 Atom AN      X      Y      Z        X      Y      Z        X      Y      Z
   1   7     0.22   0.10   0.01     0.12  -0.00  -0.01    -0.19  -0.14   0.01
   2   6     0.11   0.01   0.01     0.01  -0.08  -0.01    -0.16  -0.07  -0.04
   3   6    -0.02   0.02   0.06    -0.12  -0.07   0.02     0.01  -0.06  -0.05
   4   6    -0.04   0.06  -0.02    -0.18   0.03  -0.00     0.01  -0.06   0.10
   5   6    -0.02   0.06  -0.04    -0.19   0.03  -0.01    -0.07  -0.05   0.08
   6   6    -0.00   0.03  -0.03    -0.19   0.05  -0.01    -0.09   0.04  -0.01
   7   6    -0.03   0.00  -0.00    -0.15   0.07   0.00    -0.03   0.11  -0.07
   8   6    -0.02  -0.06   0.03    -0.13   0.04   0.02    -0.02   0.17  -0.14
   9   6    -0.03  -0.06   0.03    -0.07   0.01   0.03     0.01   0.16  -0.20
  10   6    -0.03  -0.06   0.01    -0.07  -0.03   0.01     0.02   0.13  -0.04
  11   6    -0.04  -0.05   0.02    -0.06  -0.03  -0.00     0.02   0.11   0.19
  12   6    -0.03  -0.05  -0.01    -0.04  -0.02  -0.00     0.00   0.11   0.04
  13   6    -0.01  -0.01  -0.05     0.01   0.01  -0.02    -0.02   0.01   0.04
  14   6     0.04   0.01   0.00     0.04   0.01  -0.01    -0.03   0.01   0.02
  15   6     0.17  -0.11  -0.02    -0.02   0.06  -0.00     0.16  -0.15  -0.02
  16   7     0.32  -0.24  -0.05    -0.11   0.15   0.01     0.44  -0.41  -0.07
  17   6     0.04   0.05   0.05     0.04  -0.01  -0.00    -0.03   0.00  -0.01
  18   6    -0.15  -0.04  -0.01     0.09   0.01  -0.01    -0.01   0.01   0.00
  19   7    -0.43  -0.15  -0.12     0.19   0.05   0.01     0.03   0.03   0.03
  20   6     0.02   0.06   0.06     0.09  -0.04   0.01    -0.01  -0.02  -0.04
  21   6     0.01   0.10   0.11     0.12  -0.09   0.02    -0.00  -0.06  -0.05
  22   6    -0.04   0.07   0.03     0.17  -0.01  -0.04     0.02  -0.03  -0.04
  23   6    -0.20   0.02   0.13     0.31  -0.15   0.16     0.09  -0.08   0.03
  24   6     0.01   0.04  -0.11     0.16   0.12  -0.20    -0.00   0.03  -0.06
  25   6     0.10   0.03  -0.08     0.13   0.09  -0.15    -0.04   0.01  -0.03
  26  16     0.22   0.08   0.20     0.19  -0.20   0.18    -0.10  -0.13   0.03
  27  16    -0.06   0.07  -0.25     0.11  -0.04  -0.08     0.01  -0.01  -0.03
  28  16    -0.04  -0.12   0.09    -0.19   0.04   0.01    -0.04   0.24   0.10
  29  16    -0.10   0.06  -0.06    -0.27   0.12  -0.02     0.08   0.07   0.08
  30   1     0.00  -0.00  -0.05     0.04  -0.00  -0.01     0.00  -0.01   0.05
  31   1     0.08   0.01   0.09     0.03   0.02   0.02    -0.07  -0.01  -0.06
  32   1     0.12   0.09  -0.03     0.05   0.00  -0.01    -0.08  -0.10   0.03
  33   1     0.02   0.00   0.01    -0.00  -0.02  -0.00    -0.07  -0.03  -0.00
  34   1     0.04  -0.02  -0.01     0.01  -0.05  -0.01    -0.06   0.00  -0.03
  35   1    -0.00  -0.01   0.04    -0.05  -0.04   0.02    -0.01  -0.01  -0.05
  36   1    -0.03   0.01   0.02    -0.04  -0.02   0.01     0.04  -0.01  -0.03
  37   1    -0.00   0.02  -0.01    -0.06   0.01  -0.00    -0.03  -0.03   0.03
  38   1     0.00   0.01  -0.01    -0.06   0.02  -0.00    -0.05   0.02  -0.01
  39   1    -0.01  -0.02   0.01    -0.01   0.01   0.01     0.01   0.05  -0.09
  40   1     0.01  -0.03  -0.01    -0.01  -0.01  -0.01    -0.03  -0.00   0.08
  41   1    -0.02  -0.02   0.03    -0.01  -0.01   0.00     0.01   0.03   0.06
  42   1    -0.03   0.01  -0.01    -0.02  -0.01  -0.01     0.04   0.05   0.08
  43   1    -0.07   0.01   0.06     0.12  -0.09   0.01     0.04  -0.04  -0.01
  44   1    -0.06   0.02   0.06     0.07  -0.01   0.09     0.02  -0.01   0.03
  45   1    -0.08  -0.03   0.02     0.12  -0.07   0.09     0.04  -0.03   0.03
  46   1    -0.01   0.01  -0.06     0.05   0.06  -0.09     0.00   0.02  -0.02
  47   1     0.04  -0.00  -0.04     0.03   0.04  -0.06    -0.02   0.01  -0.00
                     16                     17                     18
                        a                      a                      a 
 Frequencies --   170.9422               181.6932               202.1698
 Red. masses --    13.5152                13.8050                13.8958
 Frc consts  --     0.0000                 0.0000                 0.0000
 IR Inten    --     2.4583                16.1133                 6.4674
 Raman Activ --     0.0000                 0.0000                 0.0000
 Depolar     --     0.0000                 0.0000                 0.0000
 Atom AN      X      Y      Z        X      Y      Z        X      Y      Z
   1   7    -0.03  -0.08   0.06    -0.30  -0.18  -0.04     0.11   0.06   0.05
   2   6    -0.09  -0.02  -0.08    -0.10  -0.11   0.09    -0.01   0.01  -0.00
   3   6     0.03  -0.04  -0.13    -0.00  -0.09   0.13    -0.06   0.00  -0.00
   4   6    -0.00  -0.01   0.10     0.03  -0.10  -0.04    -0.07   0.02  -0.00
   5   6    -0.03  -0.01   0.12    -0.08  -0.09  -0.11    -0.03   0.01  -0.00
   6   6    -0.04   0.03   0.04    -0.13   0.04  -0.09    -0.01  -0.03  -0.01
   7   6    -0.02   0.06  -0.07    -0.04   0.13   0.01    -0.02  -0.04  -0.01
   8   6    -0.01   0.04  -0.21    -0.03   0.19   0.14    -0.01  -0.03  -0.01
   9   6     0.05   0.02  -0.33     0.09   0.12   0.23    -0.05  -0.01   0.03
  10   6     0.04  -0.08  -0.11     0.08   0.00   0.08    -0.04   0.07   0.03
  11   6     0.12  -0.18   0.24     0.23  -0.09  -0.19    -0.13   0.16  -0.13
  12   6    -0.01  -0.11  -0.01    -0.01  -0.03   0.01     0.04   0.08   0.08
  13   6     0.00  -0.07   0.04    -0.02  -0.07  -0.01     0.03   0.02   0.21
  14   6     0.05  -0.06   0.09     0.02  -0.07   0.03    -0.03  -0.02   0.38
  15   6    -0.06   0.05   0.01     0.01  -0.05  -0.00    -0.01  -0.00   0.07
  16   7    -0.24   0.23  -0.10    -0.04  -0.01  -0.04     0.07  -0.03  -0.31
  17   6     0.05  -0.03   0.10     0.04  -0.05   0.08    -0.04  -0.10   0.37
  18   6     0.00  -0.05   0.01     0.03  -0.05   0.00    -0.00  -0.08   0.07
  19   7    -0.09  -0.09  -0.12     0.02  -0.06  -0.10     0.09  -0.04  -0.27
  20   6     0.04   0.00   0.06     0.03  -0.03   0.08     0.01  -0.11   0.17
  21   6     0.04   0.08   0.07     0.03   0.04   0.09     0.01  -0.10   0.08
  22   6     0.01   0.06   0.06     0.01   0.03   0.07     0.03  -0.06   0.06
  23   6    -0.09   0.12  -0.02    -0.06   0.10  -0.03     0.03   0.07  -0.14
  24   6     0.04  -0.01   0.05     0.04  -0.02   0.05     0.01  -0.02   0.08
  25   6     0.10   0.01   0.03     0.09   0.01   0.01    -0.03   0.03  -0.00
  26  16     0.20   0.17   0.00     0.17   0.14  -0.02    -0.08   0.01  -0.13
  27  16    -0.01  -0.04  -0.19    -0.03  -0.10  -0.08     0.15  -0.03  -0.18
  28  16    -0.13  -0.07   0.09    -0.19   0.20  -0.02     0.13   0.07  -0.12
  29  16     0.03   0.05   0.16     0.15   0.07  -0.14    -0.13  -0.03   0.01
  30   1     0.11   0.04   0.11    -0.21  -0.10  -0.10     0.09   0.04   0.05
  31   1    -0.05   0.05  -0.10    -0.03  -0.14   0.09     0.01   0.06  -0.02
  32   1    -0.07  -0.16   0.06    -0.04   0.09  -0.05     0.01  -0.04   0.03
  33   1    -0.05   0.00  -0.01    -0.00  -0.06   0.02    -0.02   0.01   0.00
  34   1    -0.03  -0.00  -0.04    -0.04   0.00   0.04     0.00  -0.02  -0.02
  35   1    -0.03  -0.01  -0.09     0.03  -0.01   0.06    -0.02  -0.00   0.00
  36   1     0.08  -0.02  -0.06    -0.04  -0.02   0.05    -0.02   0.00  -0.00
  37   1    -0.01  -0.01   0.04    -0.04  -0.05  -0.04    -0.00   0.01   0.00
  38   1    -0.02   0.01   0.01    -0.06   0.02  -0.03     0.00  -0.01  -0.00
  39   1     0.03   0.02  -0.14     0.05   0.04   0.10    -0.03  -0.01   0.02
  40   1    -0.01  -0.13   0.09     0.14  -0.03  -0.10     0.07   0.03  -0.11
  41   1     0.06  -0.04   0.10     0.10  -0.01  -0.02    -0.06   0.03   0.05
  42   1     0.07  -0.01   0.10    -0.01  -0.06  -0.11    -0.13   0.09  -0.11
  43   1    -0.04   0.06   0.02    -0.03   0.05   0.01     0.01   0.06  -0.04
  44   1    -0.02   0.02  -0.02    -0.01   0.01  -0.03     0.01  -0.02  -0.09
  45   1    -0.04   0.04  -0.03    -0.03   0.04  -0.03     0.01   0.06  -0.05
  46   1     0.00  -0.02   0.02     0.00  -0.02   0.02     0.01  -0.00   0.03
  47   1     0.04  -0.01   0.00     0.03  -0.00  -0.01    -0.02   0.02  -0.01
                     19                     20                     21
                        a                      a                      a 
 Frequencies --   213.1076               219.0031               223.4986
 Red. masses --    13.2893                10.2114                10.2134
 Frc consts  --     0.0000                 0.0000                 0.0000
 IR Inten    --    11.2781                 2.9573                18.6124
 Raman Activ --     0.0000                 0.0000                 0.0000
 Depolar     --     0.0000                 0.0000                 0.0000
 Atom AN      X      Y      Z        X      Y      Z        X      Y      Z
   1   7    -0.10  -0.04  -0.02     0.05   0.09   0.02     0.16   0.24   0.04
   2   6     0.15   0.11   0.07    -0.13  -0.01  -0.07    -0.25  -0.06  -0.08
   3   6     0.12   0.03  -0.07     0.04   0.06   0.05    -0.13   0.05   0.15
   4   6     0.11   0.03  -0.08     0.10  -0.05   0.12    -0.00  -0.11   0.05
   5   6     0.09   0.03  -0.02     0.08  -0.04   0.06    -0.01  -0.11  -0.04
   6   6     0.09   0.01   0.07     0.05   0.00  -0.09    -0.03  -0.06  -0.10
   7   6     0.04  -0.03   0.07     0.05   0.01  -0.12     0.02  -0.02  -0.04
   8   6     0.01  -0.02   0.01     0.03  -0.00  -0.07     0.02   0.03   0.07
   9   6    -0.03  -0.00  -0.09     0.02  -0.02   0.06     0.02   0.03   0.10
  10   6    -0.04   0.01  -0.10     0.01  -0.07   0.13     0.02   0.05   0.00
  11   6    -0.10   0.04   0.10     0.09  -0.12  -0.14     0.00   0.07   0.03
  12   6    -0.06   0.00  -0.10    -0.06  -0.08   0.15     0.03   0.06  -0.10
  13   6    -0.08  -0.02  -0.07    -0.06  -0.02   0.15     0.00  -0.01  -0.21
  14   6    -0.08  -0.03   0.03    -0.03   0.00   0.09    -0.02  -0.02  -0.21
  15   6    -0.06  -0.05   0.00    -0.00  -0.00   0.02    -0.03  -0.04  -0.06
  16   7    -0.05  -0.06  -0.02    -0.01   0.02  -0.08    -0.04  -0.07   0.15
  17   6    -0.07   0.03   0.14    -0.02   0.11  -0.02    -0.02  -0.05  -0.05
  18   6     0.11   0.12  -0.05     0.03   0.14  -0.04     0.05  -0.02  -0.04
  19   7     0.32   0.23  -0.27     0.03   0.15  -0.02     0.18   0.04  -0.06
  20   6    -0.10   0.04   0.19    -0.07   0.13  -0.06    -0.02  -0.06   0.13
  21   6    -0.08  -0.06   0.20    -0.05   0.06  -0.09    -0.03  -0.06   0.22
  22   6    -0.13  -0.11   0.15    -0.07   0.00  -0.07    -0.06  -0.07   0.16
  23   6     0.00  -0.11   0.13     0.05  -0.15   0.15    -0.11   0.04   0.01
  24   6    -0.08  -0.07  -0.08    -0.06  -0.01  -0.10    -0.04  -0.04   0.01
  25   6     0.03   0.01  -0.22    -0.01  -0.05  -0.04     0.02   0.04  -0.13
  26  16     0.10  -0.03   0.07     0.02  -0.08   0.09     0.06   0.07   0.01
  27  16    -0.23   0.07  -0.13    -0.21   0.14   0.01    -0.01  -0.07  -0.04
  28  16    -0.04  -0.05   0.05    -0.08  -0.09  -0.07     0.06   0.08   0.14
  29  16     0.14  -0.03   0.04     0.20  -0.03  -0.02     0.08  -0.08  -0.11
  30   1    -0.15  -0.05  -0.07     0.13   0.07   0.07     0.26   0.13   0.10
  31   1     0.02  -0.12   0.06    -0.03   0.12  -0.07    -0.04   0.25  -0.11
  32   1    -0.01   0.10  -0.03    -0.02  -0.08   0.04     0.00  -0.11   0.06
  33   1     0.10   0.05  -0.00    -0.10  -0.03   0.01    -0.18  -0.06   0.02
  34   1     0.04   0.06   0.09    -0.04  -0.00  -0.09    -0.07  -0.05  -0.14
  35   1     0.03   0.02  -0.05     0.02   0.03   0.02     0.01   0.03   0.11
  36   1     0.05  -0.03  -0.02     0.02   0.05   0.01    -0.09   0.08   0.05
  37   1     0.02   0.00  -0.01     0.02  -0.02   0.03    -0.01  -0.04  -0.01
  38   1     0.03  -0.00   0.03     0.01   0.00  -0.04    -0.02  -0.01  -0.04
  39   1    -0.01  -0.00  -0.03     0.01  -0.00   0.02     0.00   0.01   0.05
  40   1    -0.08   0.00   0.06     0.28  -0.15  -0.22    -0.06   0.05   0.05
  41   1    -0.04   0.00   0.01     0.03  -0.04   0.23    -0.00   0.02  -0.06
  42   1     0.02   0.04   0.07    -0.21   0.08  -0.23     0.05  -0.01   0.05
  43   1     0.01  -0.06   0.03     0.03  -0.10   0.02    -0.05   0.04   0.02
  44   1     0.03  -0.04   0.03     0.03  -0.01   0.10    -0.01  -0.02  -0.04
  45   1     0.01   0.01   0.04     0.03  -0.06   0.07    -0.05   0.05  -0.03
  46   1    -0.04  -0.03  -0.05    -0.02  -0.01  -0.04    -0.02  -0.02  -0.01
  47   1     0.02   0.01  -0.12     0.00  -0.03  -0.00     0.01   0.03  -0.08
                     22                     23                     24
                        a                      a                      a 
 Frequencies --   231.9595               252.6804               256.8175
 Red. masses --     6.5466                15.1832                12.5492
 Frc consts  --     0.0000                 0.0000                 0.0000
 IR Inten    --     4.2925                 0.9516                19.0084
 Raman Activ --     0.0000                 0.0000                 0.0000
 Depolar     --     0.0000                 0.0000                 0.0000
 Atom AN      X      Y      Z        X      Y      Z        X      Y      Z
   1   7    -0.02  -0.08  -0.00     0.02  -0.06   0.01    -0.05  -0.36   0.02
   2   6     0.08   0.00   0.01    -0.00  -0.05  -0.00     0.01  -0.13  -0.13
   3   6    -0.01  -0.03  -0.06    -0.08  -0.04   0.01     0.12  -0.03  -0.00
   4   6    -0.06   0.05  -0.02    -0.11   0.03  -0.03    -0.02   0.18   0.32
   5   6    -0.03   0.05   0.01    -0.06   0.02  -0.03     0.04   0.19   0.13
   6   6    -0.01   0.00   0.04    -0.03  -0.02   0.01     0.08   0.13  -0.22
   7   6    -0.02  -0.01   0.01    -0.01  -0.01   0.03     0.02   0.06  -0.23
   8   6    -0.01  -0.01  -0.05     0.02  -0.01   0.03     0.04  -0.07  -0.07
   9   6    -0.01   0.00  -0.11     0.07  -0.02  -0.01     0.01  -0.08   0.16
  10   6    -0.01   0.04  -0.06     0.07  -0.06  -0.05     0.01  -0.03   0.19
  11   6    -0.05   0.06   0.08     0.39  -0.33   0.00    -0.11   0.09  -0.09
  12   6     0.04   0.05  -0.10     0.03  -0.04  -0.07     0.04  -0.01   0.15
  13   6     0.04   0.03  -0.16     0.09   0.16  -0.03     0.04  -0.01   0.01
  14   6     0.01   0.02  -0.23     0.04   0.16   0.02     0.02  -0.01  -0.08
  15   6    -0.01   0.01  -0.07     0.08   0.15   0.02    -0.00   0.01  -0.03
  16   7     0.00  -0.03   0.17     0.19   0.08   0.02    -0.03   0.02   0.04
  17   6     0.00  -0.05  -0.11    -0.00   0.08   0.08     0.02  -0.01  -0.09
  18   6     0.00  -0.05  -0.02    -0.00   0.10   0.01     0.05  -0.01  -0.06
  19   7     0.05  -0.04   0.07     0.03   0.13  -0.09     0.10   0.01  -0.01
  20   6     0.02  -0.07   0.05    -0.02   0.05   0.10    -0.01  -0.01   0.00
  21   6     0.01  -0.06   0.13    -0.04  -0.11   0.10    -0.03  -0.01   0.09
  22   6     0.00  -0.04   0.10    -0.08  -0.14   0.07    -0.06  -0.04   0.08
  23   6    -0.08   0.07  -0.05    -0.09  -0.07  -0.03    -0.13  -0.00   0.04
  24   6     0.00  -0.01   0.04    -0.11  -0.05   0.00    -0.05  -0.03   0.00
  25   6    -0.00   0.05  -0.05    -0.15   0.02  -0.11    -0.02   0.02  -0.08
  26  16    -0.01   0.05  -0.03    -0.26  -0.10  -0.03    -0.02   0.02   0.04
  27  16     0.11  -0.08   0.12     0.21   0.24   0.01     0.03   0.01  -0.08
  28  16     0.08   0.03   0.11     0.04  -0.07   0.01     0.13  -0.09   0.02
  29  16    -0.14   0.02   0.04    -0.19   0.02  -0.01    -0.16   0.21  -0.03
  30   1    -0.06  -0.04  -0.02     0.00  -0.01   0.01    -0.04  -0.07   0.06
  31   1     0.02  -0.07   0.03     0.01  -0.01   0.01    -0.00  -0.13  -0.01
  32   1     0.01   0.02  -0.01     0.01  -0.02   0.00    -0.01  -0.14   0.01
  33   1     0.05   0.02  -0.01     0.00  -0.01  -0.00    -0.03  -0.06  -0.02
  34   1     0.02   0.00   0.04     0.00  -0.02   0.00    -0.02  -0.00  -0.07
  35   1    -0.02  -0.02  -0.04    -0.03  -0.03   0.01    -0.03  -0.06  -0.04
  36   1     0.02  -0.03  -0.02    -0.03  -0.01   0.01     0.12   0.02  -0.03
  37   1    -0.00   0.02   0.00    -0.01   0.02  -0.01     0.02   0.07   0.06
  38   1     0.00  -0.00   0.02    -0.01  -0.01   0.01     0.04   0.04  -0.11
  39   1    -0.01   0.00  -0.05     0.03   0.00   0.00    -0.01  -0.03   0.06
  40   1     0.29  -0.22  -0.20     0.08  -0.15   0.02    -0.05   0.14  -0.00
  41   1    -0.04  -0.01   0.47     0.20  -0.04  -0.01    -0.06   0.01  -0.14
  42   1    -0.30   0.29  -0.19     0.14  -0.16   0.02    -0.01  -0.04  -0.01
  43   1    -0.04   0.06   0.00    -0.03  -0.00  -0.01    -0.06   0.00   0.04
  44   1    -0.02  -0.01  -0.05    -0.02  -0.04  -0.04    -0.00  -0.01  -0.00
  45   1    -0.04   0.04  -0.04    -0.03   0.00  -0.02    -0.06   0.02  -0.02
  46   1     0.00  -0.00   0.01    -0.03   0.00  -0.00    -0.02  -0.01  -0.01
  47   1    -0.00   0.03  -0.04    -0.05   0.03  -0.06    -0.00   0.01  -0.05
                     25                     26                     27
                        a                      a                      a 
 Frequencies --   283.7980               294.3336               301.4622
 Red. masses --    14.2678                12.6032                15.0423
 Frc consts  --     0.0000                 0.0000                 0.0000
 IR Inten    --     0.7737                11.6559                 0.1708
 Raman Activ --     0.0000                 0.0000                 0.0000
 Depolar     --     0.0000                 0.0000                 0.0000
 Atom AN      X      Y      Z        X      Y      Z        X      Y      Z
   1   7     0.04   0.05  -0.01    -0.01   0.25  -0.05     0.06  -0.06   0.01
   2   6     0.04   0.00   0.04     0.07   0.15   0.11     0.07   0.01  -0.04
   3   6    -0.13  -0.04  -0.04     0.03  -0.01  -0.14    -0.03   0.03  -0.03
   4   6    -0.14  -0.01  -0.11     0.04  -0.09   0.01    -0.08   0.08   0.06
   5   6    -0.06  -0.02  -0.01    -0.03  -0.11   0.13     0.07   0.07   0.06
   6   6    -0.02  -0.10   0.09    -0.06  -0.05   0.02     0.14  -0.10  -0.04
   7   6     0.01  -0.08   0.04    -0.05  -0.01  -0.14     0.05  -0.17  -0.08
   8   6     0.04   0.05  -0.05    -0.07   0.03  -0.18     0.05   0.02  -0.04
   9   6     0.08   0.06  -0.09    -0.07   0.02  -0.03     0.01   0.07   0.03
  10   6     0.10   0.09   0.05    -0.08  -0.04   0.22     0.02   0.11   0.06
  11   6     0.15   0.08  -0.01    -0.02  -0.07  -0.09     0.28  -0.08  -0.02
  12   6     0.10   0.07   0.16    -0.06  -0.04   0.33    -0.02   0.11   0.05
  13   6     0.04  -0.09   0.16    -0.01   0.04   0.18    -0.10  -0.01  -0.01
  14   6     0.04  -0.09   0.05    -0.02   0.07  -0.09    -0.20  -0.04  -0.04
  15   6    -0.00  -0.06   0.02    -0.00   0.05  -0.03    -0.19  -0.09  -0.03
  16   7    -0.07   0.01  -0.05     0.07  -0.02   0.04    -0.10  -0.21  -0.01
  17   6     0.06  -0.05  -0.15    -0.02   0.01  -0.23    -0.18   0.04  -0.01
  18   6     0.14  -0.04  -0.12    -0.05  -0.01  -0.10    -0.17   0.07   0.02
  19   7     0.22  -0.02  -0.02     0.03   0.02   0.13    -0.08   0.12   0.07
  20   6    -0.02   0.01  -0.15     0.04  -0.05  -0.06    -0.07  -0.01   0.03
  21   6    -0.06   0.16  -0.08     0.03  -0.11   0.18    -0.01  -0.01   0.04
  22   6    -0.13   0.08  -0.05     0.05  -0.10   0.20     0.04   0.04   0.02
  23   6    -0.27  -0.09   0.25    -0.08   0.09  -0.06     0.20   0.10  -0.08
  24   6    -0.09  -0.02  -0.07     0.04  -0.02   0.08     0.07   0.02   0.02
  25   6    -0.01  -0.07   0.02     0.02   0.12  -0.16     0.12   0.02   0.01
  26  16     0.03   0.10   0.11     0.00  -0.02   0.04     0.20   0.04  -0.00
  27  16    -0.02  -0.08  -0.05     0.16  -0.01  -0.12    -0.18  -0.07  -0.03
  28  16     0.22   0.20  -0.07    -0.16   0.01  -0.08     0.15   0.14   0.03
  29  16    -0.25  -0.11   0.05     0.12  -0.12   0.10    -0.28  -0.19   0.01
  30   1    -0.00  -0.00  -0.02    -0.02   0.03  -0.08    -0.00  -0.01   0.02
  31   1     0.02   0.00   0.02     0.01   0.05   0.01     0.02  -0.04   0.00
  32   1     0.02   0.04  -0.01    -0.01   0.14  -0.02     0.02  -0.03   0.00
  33   1     0.04   0.03  -0.00     0.08   0.08   0.00     0.03   0.02  -0.02
  34   1     0.03  -0.02   0.05     0.04   0.03   0.10     0.02  -0.00   0.00
  35   1    -0.04  -0.02  -0.01    -0.02   0.03  -0.12    -0.03  -0.02  -0.02
  36   1    -0.05  -0.04  -0.01     0.07  -0.07  -0.05     0.01   0.01  -0.02
  37   1    -0.00   0.01  -0.01    -0.02  -0.05   0.05     0.05   0.05   0.03
  38   1    -0.00  -0.03   0.05    -0.03  -0.01   0.00     0.07  -0.04  -0.02
  39   1     0.03   0.02  -0.05    -0.02   0.01  -0.04    -0.01   0.02   0.01
  40   1     0.04   0.03  -0.00     0.00   0.05  -0.03     0.08  -0.05  -0.00
  41   1     0.05   0.03  -0.02     0.01  -0.01  -0.11     0.15   0.02  -0.03
  42   1     0.04  -0.00  -0.01    -0.01  -0.11  -0.03     0.08  -0.09  -0.01
  43   1    -0.17  -0.13   0.19    -0.03   0.11  -0.01     0.16   0.10  -0.16
  44   1     0.09   0.01   0.15    -0.06  -0.02  -0.09    -0.11   0.02  -0.05
  45   1    -0.16  -0.00  -0.05    -0.03   0.04  -0.03     0.15  -0.02   0.12
  46   1    -0.04  -0.02  -0.03     0.02   0.00   0.02     0.01  -0.01   0.00
  47   1     0.01  -0.05   0.02     0.00   0.07  -0.10     0.04   0.01  -0.00
                     28                     29                     30
                        a                      a                      a 
 Frequencies --   325.5904               342.7484               353.1994
 Red. masses --    10.7780                10.5349                10.9409
 Frc consts  --     0.0000                 0.0000                 0.0000
 IR Inten    --     4.6841                 2.9613                 2.1469
 Raman Activ --     0.0000                 0.0000                 0.0000
 Depolar     --     0.0000                 0.0000                 0.0000
 Atom AN      X      Y      Z        X      Y      Z        X      Y      Z
   1   7     0.01  -0.23   0.06    -0.03   0.11  -0.03     0.03  -0.03   0.01
   2   6    -0.07  -0.11  -0.11    -0.03  -0.04   0.10     0.03   0.02  -0.03
   3   6    -0.04   0.07   0.18    -0.08  -0.13  -0.07    -0.02   0.03  -0.00
   4   6     0.02   0.06  -0.27    -0.10  -0.07  -0.02    -0.02   0.02   0.00
   5   6     0.04   0.07  -0.20    -0.11  -0.07   0.02     0.04   0.02   0.02
   6   6     0.04   0.06   0.22    -0.11  -0.01   0.01     0.06  -0.05  -0.01
   7   6     0.03   0.04   0.27     0.00   0.08  -0.03     0.02  -0.07  -0.03
   8   6     0.03  -0.03   0.04     0.06   0.01  -0.05     0.01   0.07  -0.01
   9   6     0.03  -0.02  -0.19     0.16  -0.04  -0.01     0.05   0.06   0.01
  10   6     0.02  -0.02  -0.02     0.17  -0.02   0.05     0.06   0.02   0.01
  11   6    -0.04   0.03   0.00    -0.01   0.15   0.00     0.03   0.06   0.00
  12   6     0.00  -0.04   0.18     0.12  -0.05   0.05     0.00  -0.01   0.00
  13   6    -0.01  -0.04   0.23     0.07  -0.14  -0.01    -0.03  -0.09  -0.01
  14   6    -0.03  -0.02   0.05     0.16  -0.11  -0.04     0.10  -0.06  -0.01
  15   6    -0.03  -0.02   0.03     0.15  -0.09  -0.02     0.13  -0.07  -0.01
  16   7    -0.03  -0.02  -0.04    -0.08   0.13   0.03    -0.05   0.10   0.01
  17   6    -0.02   0.04  -0.21     0.17   0.04   0.02     0.12   0.08   0.01
  18   6    -0.04   0.05  -0.11     0.14   0.03   0.04     0.13   0.07   0.03
  19   7    -0.04   0.05   0.13    -0.13  -0.09  -0.00    -0.29  -0.12   0.03
  20   6     0.00   0.02  -0.12    -0.02   0.13   0.06    -0.00   0.13  -0.01
  21   6     0.01  -0.05   0.09    -0.05   0.02   0.03     0.03  -0.09   0.03
  22   6     0.02  -0.08   0.15    -0.11  -0.08   0.03     0.06  -0.12   0.12
  23   6    -0.02   0.06  -0.05     0.08  -0.03  -0.09     0.23   0.01  -0.13
  24   6     0.02  -0.03   0.07    -0.12  -0.07  -0.00     0.04  -0.04   0.11
  25   6     0.03   0.10  -0.16    -0.08  -0.01  -0.11    -0.01   0.11  -0.16
  26  16     0.03  -0.03   0.06    -0.07   0.00   0.05    -0.07  -0.15   0.00
  27  16    -0.02   0.01  -0.06    -0.22   0.09  -0.02    -0.28   0.09   0.01
  28  16     0.03  -0.07  -0.15     0.21  -0.00   0.00    -0.06   0.13   0.02
  29  16     0.05   0.14  -0.01    -0.04   0.10   0.03    -0.10  -0.12   0.00
  30   1     0.01  -0.03   0.08     0.01   0.00  -0.06    -0.00  -0.00   0.02
  31   1    -0.00  -0.05   0.00    -0.01   0.05   0.01     0.01  -0.02   0.00
  32   1     0.02  -0.13   0.02    -0.01   0.08  -0.02     0.01  -0.02   0.00
  33   1    -0.08  -0.08  -0.01     0.02   0.01   0.02     0.01   0.01  -0.01
  34   1    -0.04  -0.01  -0.10     0.00  -0.03   0.06     0.01   0.00  -0.00
  35   1     0.07   0.00   0.22    -0.05  -0.02  -0.08    -0.01  -0.00   0.01
  36   1    -0.18   0.11   0.09     0.02  -0.09  -0.03    -0.01   0.02  -0.00
  37   1     0.01   0.02  -0.10    -0.03  -0.02   0.01     0.02   0.02   0.01
  38   1     0.01   0.01   0.11    -0.06   0.00   0.00     0.03  -0.02  -0.00
  39   1     0.00  -0.00  -0.10     0.05  -0.01  -0.01     0.03   0.02   0.00
  40   1    -0.01   0.01   0.00     0.00   0.10  -0.00     0.01   0.03   0.00
  41   1    -0.03  -0.00   0.00    -0.06   0.01  -0.01    -0.01   0.01  -0.00
  42   1    -0.01   0.03   0.00    -0.01   0.07  -0.00     0.01   0.03   0.00
  43   1     0.04   0.10  -0.07     0.21   0.11  -0.27    -0.10  -0.13   0.19
  44   1    -0.10  -0.01  -0.07    -0.26  -0.01  -0.07     0.41  -0.07  -0.08
  45   1     0.03  -0.00   0.04     0.18  -0.11   0.23    -0.07   0.25  -0.28
  46   1     0.01  -0.01   0.02    -0.04  -0.02  -0.00     0.02  -0.00   0.04
  47   1     0.01   0.06  -0.09    -0.01  -0.00  -0.06    -0.01   0.07  -0.08
                     31                     32                     33
                        a                      a                      a 
 Frequencies --   364.0057               373.8358               405.9163
 Red. masses --    16.4411                11.8144                12.9836
 Frc consts  --     0.0000                 0.0000                 0.0000
 IR Inten    --     6.1586                 0.4506                 2.5528
 Raman Activ --     0.0000                 0.0000                 0.0000
 Depolar     --     0.0000                 0.0000                 0.0000
 Atom AN      X      Y      Z        X      Y      Z        X      Y      Z
   1   7     0.07  -0.13   0.04     0.00  -0.06   0.02    -0.01   0.04  -0.02
   2   6     0.09   0.09  -0.14    -0.01  -0.00  -0.04    -0.01  -0.01   0.03
   3   6     0.03   0.18   0.05    -0.05   0.03   0.03     0.06  -0.02   0.01
   4   6     0.07   0.08  -0.02    -0.00  -0.01  -0.25     0.02   0.01   0.17
   5   6     0.13   0.06   0.02    -0.02  -0.02  -0.01     0.01   0.03  -0.07
   6   6     0.15  -0.07   0.01    -0.03   0.01   0.17     0.02   0.01  -0.07
   7   6     0.00  -0.16  -0.04    -0.00   0.05  -0.05    -0.01  -0.03   0.14
   8   6    -0.07   0.15  -0.03     0.01  -0.01  -0.24    -0.03  -0.03   0.17
   9   6    -0.05   0.13   0.01     0.00  -0.02  -0.09    -0.07   0.01  -0.06
  10   6    -0.06   0.00   0.04    -0.00  -0.03   0.27    -0.07   0.02  -0.10
  11   6    -0.05   0.00  -0.01     0.00  -0.01  -0.04    -0.01  -0.06   0.01
  12   6    -0.07  -0.02   0.03     0.00  -0.02   0.30    -0.02   0.03   0.02
  13   6    -0.01  -0.02  -0.02     0.01   0.03  -0.09     0.01   0.06   0.14
  14   6     0.17   0.02  -0.04    -0.01   0.05  -0.28     0.01   0.06   0.04
  15   6     0.21   0.05  -0.03    -0.02   0.05  -0.23    -0.02   0.12   0.05
  16   7     0.09   0.18   0.05     0.01  -0.03   0.17     0.11   0.02  -0.02
  17   6     0.16  -0.05   0.03    -0.03  -0.03   0.15     0.00  -0.11  -0.16
  18   6     0.13  -0.10   0.03    -0.02  -0.03   0.13     0.02  -0.16  -0.15
  19   7     0.08  -0.13  -0.04    -0.04  -0.03  -0.08    -0.00  -0.21   0.15
  20   6     0.05  -0.00   0.05    -0.04  -0.04   0.30    -0.08  -0.07   0.04
  21   6     0.00   0.03  -0.01    -0.04  -0.03   0.09    -0.15   0.08   0.12
  22   6    -0.05  -0.02  -0.04    -0.07   0.07  -0.14    -0.29   0.01  -0.02
  23   6    -0.09  -0.05   0.01     0.17  -0.03  -0.03     0.32  -0.01  -0.10
  24   6    -0.06  -0.02  -0.04    -0.06   0.04  -0.13    -0.26  -0.10  -0.07
  25   6    -0.07  -0.04   0.01    -0.02  -0.15   0.20    -0.04  -0.12  -0.05
  26  16    -0.08   0.02   0.01     0.01   0.10  -0.11     0.10   0.28   0.13
  27  16     0.01  -0.04  -0.02     0.01   0.05  -0.08     0.12   0.00  -0.05
  28  16    -0.38   0.24   0.02     0.06  -0.05  -0.02    -0.02   0.02  -0.06
  29  16    -0.10  -0.31   0.00     0.05   0.07   0.11     0.00  -0.01  -0.09
  30   1    -0.02  -0.00   0.08    -0.01  -0.01   0.02     0.01   0.01  -0.02
  31   1     0.03  -0.08  -0.00     0.01  -0.03   0.01    -0.01   0.02  -0.01
  32   1     0.03  -0.10   0.02     0.01  -0.03   0.00    -0.01   0.02  -0.00
  33   1     0.01   0.02  -0.04    -0.01  -0.00  -0.01    -0.01  -0.01   0.01
  34   1     0.02   0.04  -0.05    -0.00   0.00  -0.02    -0.01   0.00  -0.00
  35   1     0.04   0.03   0.10     0.04   0.01   0.09    -0.01  -0.01  -0.05
  36   1    -0.06   0.12   0.03    -0.11   0.04   0.03     0.08  -0.02  -0.02
  37   1     0.05   0.03   0.01    -0.01  -0.01  -0.00     0.00   0.01  -0.04
  38   1     0.09  -0.03   0.01    -0.02   0.00   0.09     0.01   0.00  -0.04
  39   1     0.01   0.05  -0.00    -0.00  -0.00  -0.07    -0.02   0.00  -0.03
  40   1    -0.01   0.01  -0.01     0.03   0.07  -0.03    -0.01  -0.06   0.01
  41   1    -0.01   0.00  -0.01    -0.00  -0.00  -0.07     0.02  -0.00   0.02
  42   1    -0.02  -0.01  -0.01    -0.03  -0.07  -0.04     0.01  -0.01   0.01
  43   1     0.08   0.07  -0.13     0.02  -0.12   0.03     0.12  -0.14  -0.07
  44   1    -0.22   0.01   0.00     0.16   0.01   0.03     0.20  -0.02  -0.04
  45   1     0.06  -0.13   0.14     0.03   0.06  -0.04     0.15   0.15   0.01
  46   1    -0.02  -0.00  -0.01    -0.02   0.01  -0.05    -0.10  -0.06  -0.04
  47   1    -0.01  -0.02   0.01     0.00  -0.08   0.10     0.03  -0.08  -0.04
                     34                     35                     36
                        a                      a                      a 
 Frequencies --   418.9847               436.7326               448.1883
 Red. masses --    12.9127                12.8018                17.5070
 Frc consts  --     0.0000                 0.0000                 0.0000
 IR Inten    --     5.8297                 0.4858                 1.2210
 Raman Activ --     0.0000                 0.0000                 0.0000
 Depolar     --     0.0000                 0.0000                 0.0000
 Atom AN      X      Y      Z        X      Y      Z        X      Y      Z
   1   7     0.02  -0.09   0.04    -0.02   0.04  -0.02    -0.00  -0.02   0.01
   2   6     0.05   0.08  -0.09    -0.03  -0.04   0.04     0.02   0.03  -0.03
   3   6    -0.09   0.10  -0.01     0.07  -0.04   0.02     0.03   0.04   0.01
   4   6     0.01  -0.03  -0.32     0.03   0.02   0.11     0.05  -0.01  -0.03
   5   6    -0.05  -0.07   0.20     0.01   0.04  -0.12    -0.05  -0.01   0.03
   6   6    -0.08   0.02   0.07     0.02   0.02   0.03    -0.08   0.05  -0.01
   7   6    -0.04   0.08  -0.32    -0.01  -0.02   0.14    -0.07   0.03  -0.02
   8   6    -0.02  -0.01  -0.24    -0.03  -0.06   0.01    -0.07  -0.14   0.00
   9   6    -0.04  -0.04   0.20    -0.15   0.02  -0.12    -0.30  -0.01   0.03
  10   6    -0.03   0.00   0.03    -0.14   0.06   0.11    -0.28   0.15  -0.02
  11   6     0.01  -0.03  -0.02     0.03  -0.09  -0.01     0.06  -0.16  -0.01
  12   6     0.02   0.04  -0.22    -0.05   0.08   0.16    -0.08   0.19  -0.02
  13   6     0.02   0.05  -0.14    -0.05   0.05  -0.08    -0.13  -0.01   0.03
  14   6    -0.02   0.01   0.13     0.02   0.06  -0.12     0.09   0.03   0.05
  15   6    -0.06   0.04   0.16     0.02   0.09  -0.20     0.23  -0.01   0.08
  16   7     0.03  -0.02  -0.10     0.06   0.03   0.13     0.05   0.20  -0.02
  17   6    -0.02  -0.06  -0.01     0.01  -0.09   0.22     0.09  -0.01  -0.09
  18   6    -0.01  -0.08  -0.01    -0.02  -0.15   0.29     0.08  -0.05  -0.14
  19   7     0.03  -0.08   0.02     0.10  -0.10  -0.19     0.03  -0.09   0.08
  20   6    -0.03  -0.01  -0.19    -0.01  -0.00  -0.16     0.01  -0.00   0.08
  21   6    -0.06   0.14  -0.13    -0.02   0.19  -0.34     0.03  -0.10   0.14
  22   6    -0.12  -0.01   0.04    -0.00   0.01   0.01     0.06  -0.01   0.02
  23   6     0.10   0.01  -0.02    -0.00   0.02   0.01    -0.04   0.01   0.01
  24   6    -0.10  -0.11   0.10     0.01  -0.13   0.23     0.06   0.08  -0.09
  25   6     0.00   0.05  -0.19     0.02   0.15  -0.26     0.01  -0.04   0.12
  26  16     0.06   0.08   0.17     0.02  -0.08   0.17    -0.03  -0.07  -0.12
  27  16     0.07  -0.02   0.08    -0.10  -0.07   0.04    -0.33  -0.15  -0.05
  28  16     0.08  -0.05   0.13     0.12   0.03  -0.04     0.37   0.06   0.02
  29  16     0.09   0.03   0.17     0.02   0.05  -0.06     0.12   0.09   0.02
  30   1    -0.04  -0.01   0.05     0.02   0.00  -0.02    -0.01   0.00   0.02
  31   1     0.02  -0.07   0.02    -0.01   0.03  -0.01     0.00  -0.02  -0.00
  32   1     0.02  -0.05   0.01    -0.01   0.02  -0.00     0.00  -0.01   0.00
  33   1     0.03   0.05  -0.03    -0.03  -0.03   0.02     0.00   0.01  -0.01
  34   1     0.02   0.02   0.00    -0.02  -0.00  -0.01     0.00   0.02  -0.01
  35   1     0.05   0.03   0.12    -0.01  -0.01  -0.04     0.03   0.01   0.03
  36   1    -0.16   0.08   0.03     0.07  -0.03  -0.01    -0.02   0.03   0.01
  37   1    -0.03  -0.04   0.12     0.00   0.01  -0.07    -0.03  -0.02   0.02
  38   1    -0.04   0.01   0.04     0.01   0.01   0.01    -0.04   0.02  -0.00
  39   1    -0.02  -0.02   0.12    -0.06  -0.00  -0.08    -0.13  -0.03   0.02
  40   1     0.01  -0.01  -0.01     0.02  -0.04  -0.01     0.01  -0.13  -0.00
  41   1     0.02  -0.00  -0.01     0.07   0.01  -0.01     0.14   0.02   0.00
  42   1    -0.00  -0.03  -0.01    -0.01  -0.09  -0.02     0.02  -0.13  -0.00
  43   1     0.05  -0.03  -0.03     0.00   0.01  -0.00    -0.01   0.04   0.00
  44   1     0.05  -0.01  -0.02    -0.01   0.01   0.00    -0.04   0.00  -0.00
  45   1     0.05   0.06   0.02     0.00  -0.01   0.01    -0.02  -0.03   0.00
  46   1    -0.04  -0.06   0.05    -0.00  -0.08   0.12     0.02   0.04  -0.05
  47   1     0.02   0.01  -0.09     0.01   0.06  -0.11    -0.01  -0.01   0.05
                     37                     38                     39
                        a                      a                      a 
 Frequencies --   464.2385               474.1947               488.8931
 Red. masses --    13.1667                15.0299                15.8353
 Frc consts  --     0.0000                 0.0000                 0.0000
 IR Inten    --     1.8607                 6.0040                 1.4505
 Raman Activ --     0.0000                 0.0000                 0.0000
 Depolar     --     0.0000                 0.0000                 0.0000
 Atom AN      X      Y      Z        X      Y      Z        X      Y      Z
   1   7     0.04  -0.08   0.02    -0.02   0.04  -0.01     0.02  -0.02   0.01
   2   6     0.13   0.20  -0.16    -0.06  -0.09   0.08     0.07   0.11  -0.08
   3   6    -0.05   0.21  -0.02     0.12  -0.08   0.04     0.00   0.11   0.01
   4   6     0.05  -0.08   0.11     0.04   0.06   0.05     0.03  -0.04   0.24
   5   6    -0.14  -0.09   0.13     0.05   0.09  -0.19    -0.09  -0.03  -0.13
   6   6    -0.20   0.03  -0.18     0.07   0.02   0.17    -0.12   0.00   0.03
   7   6    -0.13   0.05   0.06    -0.02  -0.04   0.04    -0.08   0.01   0.17
   8   6    -0.09  -0.05   0.25    -0.06   0.01  -0.23    -0.06   0.01  -0.08
   9   6    -0.07  -0.05  -0.07    -0.14   0.02   0.01     0.00  -0.03  -0.11
  10   6    -0.06  -0.02  -0.12    -0.15  -0.01   0.16     0.00  -0.07   0.20
  11   6    -0.03  -0.08   0.00    -0.07  -0.11  -0.02    -0.02  -0.06  -0.00
  12   6     0.08   0.01   0.08     0.01   0.04  -0.02     0.07  -0.04   0.09
  13   6     0.07  -0.07   0.15     0.02  -0.03  -0.24     0.10   0.04  -0.35
  14   6    -0.03  -0.11  -0.08    -0.01  -0.10   0.04    -0.02  -0.06   0.02
  15   6    -0.01  -0.20  -0.21     0.10  -0.29   0.19    -0.22   0.01   0.30
  16   7    -0.19  -0.12   0.09    -0.18  -0.01  -0.13    -0.03  -0.14  -0.18
  17   6     0.01   0.08   0.06     0.02   0.13   0.00     0.03  -0.08  -0.03
  18   6     0.11   0.19   0.11     0.11   0.26   0.02     0.18  -0.11  -0.05
  19   7    -0.14   0.10  -0.06    -0.18   0.16  -0.00     0.04  -0.21   0.01
  20   6     0.05   0.04   0.01     0.11   0.03  -0.02    -0.09   0.04  -0.04
  21   6     0.03   0.04  -0.04     0.07   0.02   0.03    -0.06  -0.04   0.04
  22   6    -0.03  -0.03  -0.03    -0.04  -0.07  -0.03     0.02   0.05   0.06
  23   6    -0.00  -0.05  -0.03     0.00  -0.10  -0.06    -0.02   0.09   0.06
  24   6    -0.04  -0.04   0.02    -0.07  -0.03  -0.03     0.04   0.05  -0.02
  25   6    -0.04  -0.00  -0.04    -0.08  -0.04  -0.02     0.05   0.01   0.04
  26  16    -0.04   0.08   0.07    -0.06   0.17   0.09     0.03  -0.13  -0.10
  27  16     0.24  -0.00  -0.02     0.29  -0.19   0.04    -0.04   0.38   0.10
  28  16     0.15   0.09  -0.06     0.02   0.13   0.06     0.07   0.08   0.00
  29  16     0.10  -0.08  -0.04    -0.01   0.01  -0.02     0.03  -0.08  -0.07
  30   1    -0.07   0.01   0.08     0.04  -0.00  -0.04    -0.03   0.01   0.04
  31   1     0.04  -0.10  -0.00    -0.02   0.05  -0.01     0.02  -0.05  -0.01
  32   1     0.02  -0.07   0.01    -0.02   0.03  -0.00     0.01  -0.04   0.01
  33   1     0.08   0.10  -0.07    -0.06  -0.07   0.04     0.04   0.05  -0.03
  34   1     0.05   0.05   0.02    -0.03  -0.01  -0.03     0.02   0.03   0.01
  35   1     0.03   0.04   0.08     0.00  -0.01  -0.05    -0.00   0.02   0.02
  36   1    -0.07   0.15   0.00     0.08  -0.06   0.00     0.02   0.08  -0.01
  37   1    -0.07  -0.07   0.07     0.02   0.04  -0.11    -0.04  -0.03  -0.09
  38   1    -0.08   0.02  -0.10     0.04  -0.00   0.09    -0.04   0.00   0.00
  39   1    -0.02  -0.01  -0.04    -0.04   0.00   0.01     0.01   0.00  -0.07
  40   1    -0.02  -0.07   0.01     0.00  -0.02  -0.02     0.02   0.03  -0.02
  41   1     0.01  -0.01   0.02     0.02  -0.01  -0.03    -0.01  -0.02  -0.03
  42   1     0.01  -0.01   0.01    -0.04  -0.10  -0.03    -0.03  -0.05  -0.03
  43   1     0.00  -0.02  -0.02     0.01  -0.04  -0.02     0.00   0.05   0.00
  44   1     0.00  -0.01  -0.01     0.01  -0.03  -0.02    -0.03   0.02   0.01
  45   1     0.00  -0.01  -0.00     0.01  -0.01  -0.01    -0.00   0.00   0.03
  46   1    -0.01  -0.01   0.02    -0.01   0.00  -0.00     0.01   0.01  -0.02
  47   1    -0.00  -0.01  -0.02    -0.01  -0.03  -0.01     0.00   0.01   0.02
                     40                     41                     42
                        a                      a                      a 
 Frequencies --   496.7991               510.5827               514.1904
 Red. masses --    15.3784                12.1003                11.5513
 Frc consts  --     0.0000                 0.0000                 0.0000
 IR Inten    --     3.0936                 3.7111                 0.3275
 Raman Activ --     0.0000                 0.0000                 0.0000
 Depolar     --     0.0000                 0.0000                 0.0000
 Atom AN      X      Y      Z        X      Y      Z        X      Y      Z
   1   7    -0.02   0.04  -0.01    -0.01   0.01   0.00     0.02  -0.02   0.01
   2   6    -0.07  -0.11   0.09    -0.03  -0.04   0.03     0.06   0.10  -0.07
   3   6     0.10  -0.10   0.03    -0.01  -0.04  -0.01    -0.01   0.10   0.01
   4   6     0.03   0.07  -0.16    -0.01   0.02  -0.15     0.02  -0.05   0.33
   5   6     0.08   0.08  -0.00     0.04   0.00   0.15    -0.10  -0.02  -0.30
   6   6     0.10   0.03   0.08     0.05   0.01  -0.11    -0.11  -0.03   0.21
   7   6     0.00  -0.03  -0.15     0.03  -0.01  -0.04    -0.05   0.02   0.06
   8   6    -0.05   0.01  -0.06     0.02  -0.02   0.19    -0.01   0.02  -0.38
   9   6    -0.13   0.02   0.14    -0.02   0.02  -0.09     0.05  -0.05   0.18
  10   6    -0.14  -0.04  -0.15    -0.02   0.02  -0.00     0.07   0.02  -0.04
  11   6    -0.09  -0.17  -0.02    -0.00  -0.00  -0.01     0.05   0.07  -0.00
  12   6     0.04   0.01  -0.13    -0.02   0.00   0.11     0.01   0.02  -0.21
  13   6     0.07  -0.04   0.30    -0.01   0.02  -0.09    -0.02  -0.03   0.26
  14   6    -0.03  -0.09  -0.01     0.00   0.01  -0.05     0.01   0.02   0.04
  15   6    -0.19  -0.04  -0.26    -0.01   0.02   0.13     0.04   0.07  -0.20
  16   7    -0.12  -0.21   0.11     0.02   0.01  -0.06     0.04   0.03   0.11
  17   6     0.06  -0.06  -0.01     0.01  -0.01  -0.07    -0.01   0.00  -0.02
  18   6     0.31  -0.03   0.03     0.03  -0.02   0.47    -0.08  -0.02   0.19
  19   7    -0.03  -0.21  -0.02    -0.01  -0.02  -0.25     0.02   0.04  -0.09
  20   6    -0.06   0.05  -0.03     0.01   0.05  -0.51     0.00   0.02  -0.26
  21   6    -0.03  -0.02   0.02    -0.02  -0.12   0.24    -0.01  -0.06   0.12
  22   6     0.01   0.02   0.04    -0.04  -0.10   0.18    -0.02  -0.05   0.10
  23   6    -0.03   0.05   0.04     0.03   0.00   0.01     0.02   0.00   0.00
  24   6     0.03   0.03  -0.02    -0.03   0.10  -0.21    -0.02   0.05  -0.11
  25   6     0.03   0.00   0.03    -0.00  -0.10   0.13     0.00  -0.05   0.07
  26  16     0.01  -0.09  -0.06     0.03   0.10  -0.03     0.02   0.06  -0.01
  27  16     0.09   0.37  -0.00    -0.01  -0.03   0.10    -0.05  -0.06  -0.01
  28  16     0.03   0.18   0.05    -0.02  -0.00  -0.05     0.03  -0.07   0.09
  29  16    -0.02   0.03   0.05    -0.01   0.04   0.03     0.01  -0.07  -0.06
  30   1     0.04  -0.01  -0.05     0.01  -0.01  -0.01    -0.03   0.01   0.04
  31   1    -0.03   0.06  -0.00    -0.01   0.02   0.00     0.02  -0.05  -0.00
  32   1    -0.01   0.04  -0.00    -0.00   0.01  -0.00     0.01  -0.03   0.00
  33   1    -0.07  -0.08   0.05    -0.02  -0.02   0.01     0.04   0.05  -0.03
  34   1    -0.04  -0.01  -0.04    -0.01  -0.01  -0.00     0.02   0.02   0.01
  35   1     0.02  -0.01  -0.03     0.01  -0.00  -0.00    -0.02   0.01   0.01
  36   1     0.04  -0.08   0.01    -0.02  -0.03   0.00     0.04   0.07  -0.01
  37   1     0.03   0.03   0.01     0.02   0.01   0.10    -0.04  -0.02  -0.19
  38   1     0.05   0.00   0.05     0.02   0.00  -0.05    -0.04  -0.01   0.10
  39   1    -0.03   0.00   0.10    -0.01   0.01  -0.07     0.01  -0.02   0.15
  40   1    -0.05  -0.10   0.01    -0.00  -0.01   0.00     0.01   0.03   0.00
  41   1     0.01  -0.03   0.01     0.01   0.00   0.00     0.00   0.01  -0.00
  42   1    -0.01  -0.04   0.01     0.00  -0.00   0.00     0.02   0.03   0.00
  43   1     0.01   0.04  -0.01     0.02   0.02  -0.01     0.01   0.01   0.00
  44   1    -0.04   0.01   0.01     0.01  -0.04  -0.05     0.01  -0.02  -0.03
  45   1     0.00  -0.01   0.03     0.02   0.05   0.01     0.01   0.03  -0.00
  46   1     0.00   0.01  -0.02    -0.01   0.07  -0.14    -0.01   0.03  -0.07
  47   1     0.00   0.01   0.01     0.01  -0.03   0.03     0.00  -0.02   0.01
                     43                     44                     45
                        a                      a                      a 
 Frequencies --   538.5032               553.4228               556.1484
 Red. masses --    14.7544                17.0633                11.9202
 Frc consts  --     0.0000                 0.0000                 0.0000
 IR Inten    --     5.1344                 2.0671                 1.0883
 Raman Activ --     0.0000                 0.0000                 0.0000
 Depolar     --     0.0000                 0.0000                 0.0000
 Atom AN      X      Y      Z        X      Y      Z        X      Y      Z
   1   7    -0.00   0.00   0.00    -0.00   0.01   0.00    -0.00  -0.00  -0.01
   2   6    -0.01  -0.01   0.01    -0.00   0.00   0.01    -0.01  -0.02   0.01
   3   6     0.03  -0.00   0.01     0.05   0.01   0.02    -0.06  -0.03  -0.03
   4   6     0.01   0.02  -0.02     0.02   0.02   0.03    -0.04  -0.00  -0.14
   5   6    -0.00   0.02  -0.00    -0.03   0.03  -0.07     0.05  -0.03   0.23
   6   6    -0.00   0.01   0.01    -0.03   0.01   0.11     0.05   0.01  -0.32
   7   6    -0.02  -0.00  -0.03    -0.04   0.02  -0.20     0.05  -0.06   0.59
   8   6    -0.02   0.03   0.02    -0.04   0.06   0.12     0.01   0.06  -0.37
   9   6     0.01  -0.00   0.00     0.09  -0.05   0.00     0.00   0.02   0.02
  10   6    -0.01  -0.09  -0.02     0.03  -0.27  -0.09    -0.03  -0.10   0.13
  11   6    -0.08  -0.10  -0.01    -0.23  -0.26  -0.03    -0.10  -0.11  -0.00
  12   6     0.06  -0.06   0.00     0.13  -0.17   0.03     0.03  -0.04  -0.12
  13   6     0.05  -0.02   0.01     0.09  -0.08   0.01     0.02  -0.02   0.00
  14   6     0.01  -0.04  -0.02     0.05   0.00  -0.05     0.01  -0.02   0.11
  15   6     0.40  -0.41  -0.01    -0.20   0.26   0.09    -0.04   0.06  -0.13
  16   7    -0.18   0.13  -0.00     0.15  -0.02  -0.03     0.02  -0.02   0.06
  17   6    -0.06  -0.03  -0.02     0.02   0.04  -0.04     0.01   0.00   0.07
  18   6    -0.53  -0.25   0.02    -0.22  -0.03   0.05    -0.08  -0.03  -0.10
  19   7     0.20   0.08  -0.00     0.04   0.11  -0.02     0.03   0.02   0.05
  20   6    -0.07   0.00  -0.04     0.06   0.01   0.05     0.03   0.02  -0.07
  21   6    -0.08  -0.01   0.01     0.10  -0.02  -0.01     0.05  -0.01  -0.01
  22   6    -0.05   0.06   0.03     0.07  -0.10  -0.05     0.04  -0.10   0.04
  23   6     0.06   0.09   0.04    -0.01  -0.16  -0.09    -0.01  -0.08  -0.05
  24   6    -0.02   0.00   0.00     0.03   0.01   0.00     0.01   0.03  -0.05
  25   6     0.03  -0.00  -0.00    -0.04   0.01   0.01    -0.02  -0.01   0.04
  26  16     0.03  -0.09  -0.05    -0.02   0.15   0.09    -0.01   0.10   0.05
  27  16     0.07   0.30   0.04    -0.22  -0.09  -0.02    -0.06   0.02   0.00
  28  16     0.05   0.14   0.01     0.22   0.38   0.02     0.06   0.13   0.07
  29  16    -0.01  -0.02   0.00    -0.01  -0.05   0.02     0.02   0.06  -0.05
  30   1     0.00  -0.00  -0.00     0.00   0.00  -0.00     0.01  -0.00  -0.00
  31   1    -0.00   0.01  -0.00    -0.00   0.00  -0.00    -0.00   0.01   0.00
  32   1    -0.00   0.00   0.00    -0.00   0.00   0.00     0.00  -0.00  -0.00
  33   1    -0.01  -0.01   0.01    -0.01  -0.01   0.01     0.01   0.01  -0.00
  34   1    -0.01   0.00  -0.01    -0.01   0.01  -0.02     0.00  -0.02   0.02
  35   1     0.01   0.00  -0.00     0.01   0.00  -0.00    -0.01  -0.00   0.00
  36   1     0.01  -0.01   0.00     0.02  -0.00   0.00    -0.04  -0.02  -0.00
  37   1    -0.00   0.00   0.00    -0.01   0.00  -0.03     0.03   0.00   0.12
  38   1     0.01   0.00   0.01     0.00  -0.00   0.08     0.01   0.01  -0.24
  39   1     0.02   0.01   0.00     0.09   0.02  -0.01     0.02   0.01   0.06
  40   1    -0.03  -0.02   0.00    -0.08  -0.05   0.00    -0.01   0.01  -0.01
  41   1    -0.03  -0.03  -0.00    -0.12  -0.11   0.00    -0.04  -0.04  -0.03
  42   1    -0.02  -0.01  -0.00    -0.05  -0.01   0.00    -0.05  -0.06  -0.02
  43   1     0.01  -0.01   0.03    -0.02  -0.03   0.00    -0.01   0.00  -0.00
  44   1     0.05   0.03   0.02     0.00  -0.05  -0.03    -0.00  -0.04  -0.04
  45   1     0.01   0.06   0.00    -0.02  -0.05  -0.05    -0.01  -0.01  -0.03
  46   1    -0.02  -0.02  -0.01     0.03   0.03   0.02     0.01   0.04  -0.02
  47   1     0.01   0.00   0.00    -0.00  -0.00  -0.00    -0.00  -0.00  -0.00
                     46                     47                     48
                        a                      a                      a 
 Frequencies --   561.2837               565.6932               577.1310
 Red. masses --    17.2924                12.3235                13.1679
 Frc consts  --     0.0000                 0.0000                 0.0000
 IR Inten    --     2.6834                 9.7245                 3.4118
 Raman Activ --     0.0000                 0.0000                 0.0000
 Depolar     --     0.0000                 0.0000                 0.0000
 Atom AN      X      Y      Z        X      Y      Z        X      Y      Z
   1   7     0.00  -0.00  -0.00     0.00  -0.00   0.01    -0.02   0.07  -0.00
   2   6     0.00   0.01  -0.00     0.00   0.00   0.00    -0.01  -0.01   0.05
   3   6     0.00   0.01   0.00    -0.01  -0.00  -0.01     0.47   0.03   0.11
   4   6     0.00  -0.01   0.03    -0.00  -0.00  -0.02     0.23   0.15  -0.22
   5   6    -0.00  -0.00  -0.04     0.01  -0.01   0.03    -0.20   0.15   0.10
   6   6    -0.01  -0.01   0.06     0.00   0.00  -0.07    -0.22   0.14  -0.06
   7   6    -0.00   0.01  -0.12     0.01  -0.01   0.16    -0.24   0.04   0.09
   8   6     0.01  -0.05   0.11     0.01   0.00  -0.21    -0.15  -0.06  -0.04
   9   6    -0.05   0.02  -0.05    -0.03   0.00   0.15     0.06  -0.15  -0.02
  10   6    -0.01   0.13   0.06    -0.01   0.08  -0.21     0.13   0.04   0.03
  11   6     0.12   0.11   0.02     0.06   0.05  -0.02     0.14   0.14   0.01
  12   6    -0.05   0.08   0.00    -0.03   0.03   0.08     0.06   0.02  -0.02
  13   6    -0.04   0.02  -0.07    -0.03  -0.01   0.19     0.03  -0.02   0.00
  14   6    -0.03  -0.04   0.07     0.00   0.02  -0.31     0.01  -0.01   0.01
  15   6    -0.03  -0.11  -0.11    -0.04  -0.08   0.35    -0.02   0.04  -0.00
  16   7    -0.11  -0.09   0.03    -0.04  -0.03  -0.17     0.02   0.00   0.01
  17   6     0.04  -0.03   0.09     0.04   0.01  -0.29     0.00   0.01   0.00
  18   6    -0.09  -0.17  -0.16    -0.02  -0.08   0.33    -0.04  -0.00  -0.01
  19   7     0.13  -0.12   0.06     0.05  -0.05  -0.16     0.00   0.03   0.01
  20   6     0.10   0.04  -0.05     0.03  -0.02   0.23     0.00   0.01   0.00
  21   6     0.19  -0.04  -0.07     0.07  -0.06   0.05    -0.00   0.01  -0.01
  22   6     0.16  -0.29   0.01     0.07   0.04  -0.25    -0.00  -0.01   0.02
  23   6    -0.05  -0.34  -0.20    -0.02  -0.13  -0.08     0.00   0.01   0.00
  24   6     0.07   0.07  -0.06     0.04  -0.06   0.15    -0.00   0.01  -0.01
  25   6    -0.07   0.02   0.08    -0.02   0.07  -0.07     0.00  -0.00   0.00
  26  16    -0.02   0.37   0.20    -0.02   0.10   0.07    -0.00  -0.01  -0.00
  27  16    -0.08   0.30   0.04    -0.04   0.14  -0.02    -0.03  -0.02  -0.00
  28  16    -0.08  -0.16  -0.03    -0.03  -0.08   0.01     0.02  -0.05  -0.00
  29  16     0.00   0.00   0.01     0.00   0.01  -0.02    -0.16  -0.34  -0.01
  30   1    -0.00   0.00   0.00     0.00  -0.00   0.00     0.04   0.01  -0.03
  31   1     0.00  -0.00   0.00    -0.00  -0.00  -0.00    -0.02   0.04  -0.03
  32   1     0.00  -0.00  -0.00    -0.00  -0.00   0.00    -0.04   0.03   0.01
  33   1     0.00   0.00  -0.00     0.00   0.00  -0.00    -0.13  -0.13   0.08
  34   1     0.00   0.00   0.00     0.00  -0.00   0.00    -0.06   0.08  -0.16
  35   1    -0.00   0.00   0.00    -0.00   0.00   0.00     0.14   0.04  -0.00
  36   1     0.00   0.01  -0.00    -0.01  -0.00  -0.00     0.12  -0.03   0.03
  37   1    -0.00  -0.00  -0.02     0.00  -0.00   0.02    -0.10  -0.03   0.07
  38   1    -0.01  -0.00   0.05    -0.00   0.00  -0.06    -0.03   0.04  -0.03
  39   1    -0.05  -0.01  -0.05    -0.03  -0.02   0.13     0.02  -0.04   0.00
  40   1     0.04   0.02   0.00    -0.01  -0.05   0.01     0.04   0.06   0.00
  41   1     0.07   0.05  -0.00     0.04   0.03   0.03     0.03   0.03  -0.00
  42   1     0.03   0.00  -0.00     0.04   0.04   0.02     0.04   0.04   0.00
  43   1    -0.04  -0.02  -0.02    -0.02  -0.06  -0.00     0.00   0.00   0.00
  44   1    -0.04  -0.13  -0.10    -0.01   0.01   0.04     0.00  -0.00  -0.00
  45   1    -0.05  -0.11  -0.10    -0.02  -0.10  -0.03     0.00   0.01  -0.00
  46   1     0.06   0.10  -0.01     0.03  -0.03   0.11    -0.00   0.00  -0.01
  47   1    -0.00  -0.00   0.00    -0.00   0.00   0.01    -0.00   0.00  -0.00
                     49                     50                     51
                        a                      a                      a 
 Frequencies --   588.4783               596.2441               643.8065
 Red. masses --    10.9406                11.3715                12.0783
 Frc consts  --     0.0000                 0.0000                 0.0000
 IR Inten    --     0.5180                 0.6878                 0.1569
 Raman Activ --     0.0000                 0.0000                 0.0000
 Depolar     --     0.0000                 0.0000                 0.0000
 Atom AN      X      Y      Z        X      Y      Z        X      Y      Z
   1   7    -0.00   0.00  -0.00    -0.00   0.00  -0.00    -0.00  -0.00  -0.00
   2   6    -0.00  -0.00   0.00    -0.00  -0.00  -0.00    -0.00  -0.00  -0.00
   3   6     0.01  -0.00   0.00     0.02   0.00   0.00    -0.00  -0.00  -0.00
   4   6     0.00   0.00  -0.01     0.01   0.00  -0.00    -0.00  -0.00   0.00
   5   6    -0.00   0.00   0.01    -0.01   0.01  -0.00     0.00   0.00  -0.00
   6   6    -0.00   0.00  -0.00    -0.01   0.00   0.01     0.00   0.00   0.00
   7   6    -0.00   0.00  -0.04    -0.01   0.00   0.02    -0.00  -0.00  -0.00
   8   6    -0.00  -0.01   0.13    -0.00   0.01  -0.13    -0.00  -0.00  -0.00
   9   6     0.00   0.01  -0.17     0.01  -0.02   0.19    -0.01  -0.00   0.00
  10   6    -0.00  -0.03   0.35     0.01   0.03  -0.41    -0.00   0.01  -0.02
  11   6    -0.00  -0.01   0.02    -0.00  -0.00  -0.02     0.00   0.01  -0.00
  12   6     0.01   0.02  -0.34    -0.01  -0.04   0.48     0.00  -0.00   0.08
  13   6    -0.01  -0.01   0.08     0.01   0.03  -0.30     0.01   0.02  -0.27
  14   6    -0.00  -0.01   0.13    -0.01  -0.01   0.17    -0.01  -0.06   0.57
  15   6     0.01   0.02  -0.11     0.02   0.01  -0.14     0.00   0.03  -0.28
  16   7     0.00  -0.00   0.05     0.00   0.00   0.06    -0.01  -0.02   0.11
  17   6     0.00   0.00  -0.05    -0.02  -0.01   0.19     0.04   0.04  -0.56
  18   6     0.01  -0.01   0.05     0.02   0.01  -0.16    -0.03  -0.02   0.28
  19   7     0.01  -0.00  -0.03     0.00  -0.00   0.07     0.01   0.01  -0.11
  20   6     0.01   0.01  -0.16     0.01   0.02  -0.25    -0.01  -0.03   0.27
  21   6     0.03  -0.23   0.39     0.02  -0.17   0.28    -0.01   0.04  -0.07
  22   6     0.02   0.23  -0.41     0.01   0.13  -0.23    -0.00  -0.02   0.01
  23   6    -0.02  -0.03  -0.04    -0.01  -0.01  -0.02     0.00  -0.02  -0.01
  24   6     0.02  -0.13   0.21     0.01  -0.07   0.10    -0.02   0.02   0.01
  25   6    -0.00   0.07  -0.13    -0.00   0.03  -0.07     0.01   0.02   0.02
  26  16    -0.01   0.06   0.01    -0.01   0.05   0.01     0.01  -0.03  -0.01
  27  16    -0.05   0.04   0.01    -0.03   0.01   0.05    -0.00   0.01  -0.00
  28  16     0.01   0.01   0.01     0.01   0.01  -0.02    -0.01  -0.00  -0.01
  29  16    -0.00  -0.01   0.01    -0.01  -0.01  -0.00     0.00   0.00   0.00
  30   1     0.00   0.00  -0.00     0.00   0.00  -0.00     0.00  -0.00  -0.00
  31   1    -0.00   0.00  -0.00    -0.00   0.00  -0.00    -0.00   0.00   0.00
  32   1    -0.00   0.00  -0.00    -0.00   0.00  -0.00     0.00  -0.00  -0.00
  33   1    -0.00  -0.00   0.00    -0.00  -0.00   0.00     0.00   0.00  -0.00
  34   1    -0.00   0.00  -0.00    -0.00   0.00  -0.01     0.00  -0.00   0.00
  35   1     0.00   0.00   0.00     0.00   0.00  -0.00    -0.00  -0.00  -0.00
  36   1     0.00  -0.00   0.00     0.00  -0.00   0.00    -0.00  -0.00  -0.00
  37   1    -0.00  -0.00   0.01    -0.00  -0.00  -0.01     0.00   0.00   0.00
  38   1    -0.00  -0.00   0.01    -0.00   0.00  -0.01     0.00  -0.00   0.00
  39   1     0.00   0.01  -0.12     0.01  -0.01   0.12    -0.00  -0.00  -0.00
  40   1     0.05   0.09  -0.03    -0.06  -0.10   0.03    -0.00  -0.01   0.00
  41   1    -0.00  -0.00  -0.05    -0.00  -0.00   0.06     0.00   0.00   0.01
  42   1    -0.05  -0.08  -0.04     0.06   0.09   0.05     0.00   0.01   0.00
  43   1    -0.01  -0.10  -0.01    -0.00  -0.06  -0.01    -0.00   0.00   0.00
  44   1    -0.00   0.09   0.13    -0.00   0.05   0.07     0.00  -0.01  -0.01
  45   1    -0.01  -0.11   0.00    -0.00  -0.06   0.01    -0.00   0.00  -0.01
  46   1     0.01  -0.08   0.14     0.00  -0.04   0.07    -0.00   0.01   0.01
  47   1    -0.00  -0.02   0.02     0.00  -0.01   0.01     0.00   0.01  -0.00
                     52                     53                     54
                        a                      a                      a 
 Frequencies --   661.9906               686.8040               692.8662
 Red. masses --    13.8694                15.0591                18.3092
 Frc consts  --     0.0000                 0.0000                 0.0000
 IR Inten    --     0.1951                 5.0537                42.5864
 Raman Activ --     0.0000                 0.0000                 0.0000
 Depolar     --     0.0000                 0.0000                 0.0000
 Atom AN      X      Y      Z        X      Y      Z        X      Y      Z
   1   7     0.00  -0.00  -0.00     0.02  -0.04  -0.01    -0.02   0.04   0.01
   2   6    -0.00  -0.00   0.00    -0.06  -0.09   0.03     0.05   0.09  -0.04
   3   6    -0.02  -0.00  -0.01    -0.29  -0.04  -0.05     0.23   0.02   0.03
   4   6    -0.01  -0.00   0.00    -0.12   0.10   0.02     0.11  -0.15  -0.00
   5   6     0.02   0.00  -0.00     0.11   0.15   0.01     0.00  -0.19  -0.02
   6   6     0.02   0.00   0.00     0.10   0.26   0.02    -0.01  -0.35  -0.02
   7   6    -0.01  -0.02  -0.00    -0.17   0.02   0.00     0.03  -0.26  -0.02
   8   6    -0.02  -0.04  -0.00    -0.20  -0.26  -0.02    -0.03  -0.18  -0.02
   9   6    -0.06  -0.02  -0.00    -0.06  -0.35  -0.03    -0.07  -0.18  -0.01
  10   6    -0.03   0.05   0.00     0.03   0.07   0.00     0.00   0.05   0.00
  11   6     0.04   0.04   0.00     0.15   0.13   0.01     0.09   0.08   0.01
  12   6     0.02   0.03   0.01     0.10   0.06   0.01     0.06   0.04   0.01
  13   6     0.02  -0.07  -0.02     0.07  -0.10  -0.01     0.06  -0.11  -0.01
  14   6     0.08  -0.07   0.02     0.11  -0.09  -0.01     0.12  -0.09  -0.01
  15   6    -0.14   0.04  -0.01    -0.10   0.07   0.01    -0.11   0.06   0.00
  16   7    -0.03  -0.09  -0.01     0.01  -0.04  -0.00     0.01  -0.05  -0.01
  17   6     0.15   0.07  -0.01     0.12   0.05   0.03     0.14   0.06   0.03
  18   6    -0.16  -0.06   0.00    -0.13  -0.02  -0.02    -0.15  -0.03  -0.02
  19   7     0.04   0.03   0.01     0.02   0.05   0.01     0.02   0.05   0.01
  20   6     0.17   0.07   0.04     0.04   0.09  -0.01     0.06   0.10  -0.01
  21   6     0.15   0.12   0.07    -0.00   0.02   0.04     0.01   0.03   0.05
[...]
  14   6     0.00   0.00   0.00    -0.00   0.00  -0.00     0.00  -0.00  -0.00
  15   6    -0.00  -0.00   0.00     0.00  -0.00  -0.00     0.00   0.00  -0.00
  16   7     0.00   0.00  -0.00    -0.00   0.00   0.00    -0.00  -0.00   0.00
  17   6    -0.00   0.00  -0.00     0.00  -0.00  -0.00    -0.00   0.00  -0.00
  18   6     0.00  -0.00   0.00    -0.00   0.00   0.00     0.00   0.00  -0.00
  19   7    -0.00   0.00  -0.00     0.00  -0.00   0.00     0.00  -0.00   0.00
  20   6     0.00   0.00   0.00     0.00   0.00   0.00     0.00  -0.00   0.00
  21   6    -0.00  -0.00   0.00    -0.00   0.00   0.00    -0.00   0.00  -0.00
  22   6     0.00  -0.00   0.00    -0.00  -0.01   0.00     0.00   0.00  -0.00
  23   6     0.00  -0.00   0.00    -0.06  -0.18   0.20     0.00   0.00  -0.00
  24   6    -0.00   0.00   0.00     0.00   0.00   0.00    -0.00  -0.00  -0.00
  25   6     0.00   0.00   0.00     0.00  -0.00  -0.00    -0.00   0.00  -0.00
  26  16     0.00   0.00  -0.00    -0.00   0.00  -0.00     0.00   0.00   0.00
  27  16     0.00   0.00  -0.00    -0.00   0.00   0.00     0.00  -0.00   0.00
  28  16    -0.00   0.00   0.00     0.00  -0.00  -0.00    -0.00   0.00  -0.00
  29  16    -0.00   0.00  -0.00     0.00  -0.00  -0.00     0.00   0.00  -0.00
  30   1     0.00   0.00  -0.00    -0.00   0.00  -0.00    -0.00   0.00  -0.00
  31   1     0.01   0.00  -0.00    -0.00  -0.00   0.00    -0.00  -0.00   0.00
  32   1    -0.01  -0.00  -0.02    -0.00  -0.00  -0.00    -0.00  -0.00  -0.00
  33   1     0.33   0.09   0.77    -0.00  -0.00  -0.00    -0.00  -0.00  -0.00
  34   1    -0.44  -0.19   0.01     0.00   0.00   0.00     0.00   0.00  -0.00
  35   1    -0.04   0.03   0.02     0.00  -0.00  -0.00     0.00  -0.00  -0.00
  36   1     0.02   0.01   0.09    -0.00   0.00  -0.00    -0.00   0.00  -0.00
  37   1     0.00   0.00  -0.00     0.00  -0.00  -0.00    -0.00   0.00  -0.00
  38   1     0.00   0.00   0.00     0.00  -0.00  -0.00     0.00   0.00  -0.00
  39   1    -0.00   0.00   0.00     0.00  -0.00  -0.00     0.00  -0.00  -0.00
  40   1     0.00  -0.00   0.00     0.01  -0.00   0.01     0.42  -0.05   0.59
  41   1    -0.00   0.00  -0.00     0.00  -0.00  -0.00     0.01  -0.02  -0.04
  42   1    -0.00  -0.00   0.00    -0.01  -0.00   0.01    -0.41  -0.01   0.48
  43   1    -0.00  -0.00  -0.00    -0.08  -0.02  -0.02     0.00   0.00   0.00
  44   1     0.00   0.00  -0.00     0.07   0.74  -0.54    -0.00  -0.02   0.01
  45   1    -0.00  -0.00   0.00     0.22  -0.05  -0.13    -0.00   0.00   0.00
  46   1     0.00  -0.00  -0.00    -0.00  -0.00   0.00     0.00  -0.00  -0.00
  47   1    -0.00  -0.00  -0.00    -0.00  -0.00  -0.00    -0.00  -0.00   0.00
                    124                    125                    126
                        a                      a                      a 
 Frequencies --  3002.4818              3007.0885              3018.8386
 Red. masses --     1.7857                 1.9318                 1.3788
 Frc consts  --     0.0000                 0.0000                 0.0000
 IR Inten    --     7.8445                23.2615                 8.7456
 Raman Activ --     0.0000                 0.0000                 0.0000
 Depolar     --     0.0000                 0.0000                 0.0000
 Atom AN      X      Y      Z        X      Y      Z        X      Y      Z
   1   7    -0.00  -0.00   0.00    -0.00  -0.00  -0.00    -0.00  -0.00  -0.00
   2   6    -0.00   0.00  -0.00     0.00  -0.00   0.00    -0.00  -0.00  -0.00
   3   6     0.00  -0.00  -0.00    -0.00   0.00   0.00     0.00  -0.00  -0.00
   4   6     0.00   0.00  -0.00     0.00  -0.00   0.00     0.00  -0.00  -0.00
   5   6     0.00  -0.00  -0.00     0.00  -0.00  -0.00     0.00  -0.00  -0.00
   6   6     0.00   0.00   0.00     0.00  -0.00  -0.00     0.00  -0.00  -0.00
   7   6    -0.00  -0.00   0.00    -0.00   0.00   0.00    -0.00  -0.00  -0.00
   8   6    -0.00   0.00   0.00     0.00   0.00   0.00     0.00   0.00   0.00
   9   6    -0.00   0.00   0.00     0.00  -0.00  -0.00     0.00  -0.00  -0.00
  10   6     0.01   0.00  -0.00    -0.00  -0.00   0.00     0.00   0.01   0.00
  11   6     0.24  -0.10  -0.02    -0.01   0.00   0.00    -0.02   0.13   0.00
  12   6     0.00  -0.00  -0.00     0.00   0.00   0.00     0.00  -0.00  -0.00
  13   6    -0.00   0.00   0.00     0.00  -0.00  -0.00    -0.00   0.00   0.00
  14   6     0.00  -0.00  -0.00    -0.00   0.00  -0.00     0.00  -0.00  -0.00
  15   6     0.00   0.00   0.00    -0.00  -0.00  -0.00    -0.00  -0.00  -0.00
  16   7    -0.00  -0.00  -0.00     0.00   0.00   0.00     0.00   0.00   0.00
  17   6    -0.00  -0.00  -0.00     0.00  -0.00  -0.00    -0.00  -0.00  -0.00
  18   6    -0.00   0.00  -0.00    -0.00   0.00   0.00     0.00   0.00  -0.00
  19   7     0.00  -0.00  -0.00     0.00  -0.00  -0.00    -0.00  -0.00   0.00
  20   6    -0.00   0.00   0.00    -0.00   0.00   0.00     0.00  -0.00   0.00
  21   6    -0.00  -0.00  -0.00    -0.00   0.00  -0.00    -0.00   0.00   0.00
  22   6     0.00   0.00   0.00     0.01  -0.00  -0.00    -0.00  -0.00  -0.00
  23   6     0.01  -0.00   0.00     0.28  -0.06   0.02    -0.02  -0.05  -0.12
  24   6     0.00  -0.00  -0.00    -0.01   0.00   0.00    -0.00   0.00   0.00
  25   6     0.00   0.00   0.00     0.00  -0.00  -0.00     0.00   0.00   0.00
  26  16    -0.00  -0.00  -0.00     0.00   0.00   0.00    -0.00  -0.00  -0.00
  27  16    -0.00   0.00   0.00    -0.00   0.00   0.00    -0.00   0.00   0.00
  28  16     0.00   0.00  -0.00    -0.00  -0.00  -0.00    -0.00   0.00   0.00
  29  16    -0.00   0.00  -0.00    -0.00  -0.00  -0.00    -0.00   0.00   0.00
  30   1    -0.00   0.00  -0.00    -0.00   0.00  -0.00    -0.00   0.00  -0.00
  31   1     0.00   0.00  -0.00     0.00   0.00  -0.00     0.00   0.00  -0.00
  32   1     0.00  -0.00   0.00     0.00   0.00   0.00     0.00  -0.00   0.00
  33   1     0.00   0.00   0.00    -0.00  -0.00  -0.00     0.00   0.00   0.00
  34   1    -0.00  -0.00   0.00     0.00   0.00  -0.00    -0.00  -0.00  -0.00
  35   1    -0.00   0.00   0.00     0.00  -0.00  -0.00    -0.00   0.00   0.00
  36   1    -0.00   0.00  -0.00    -0.00   0.00  -0.00     0.00   0.00   0.00
  37   1    -0.00   0.00   0.00    -0.00   0.00  -0.00    -0.00   0.00   0.00
  38   1    -0.00  -0.00  -0.00     0.00   0.00   0.00     0.00   0.00   0.00
  39   1     0.00  -0.01  -0.00    -0.00   0.00   0.00    -0.01   0.01   0.00
  40   1    -0.28   0.02  -0.49     0.01  -0.00   0.01    -0.11   0.03  -0.17
  41   1    -0.20   0.36   0.01     0.01  -0.01  -0.00     0.30  -0.48  -0.01
  42   1    -0.39  -0.03   0.54     0.01   0.00  -0.01    -0.13   0.01   0.16
  43   1    -0.01   0.00  -0.01    -0.49   0.01  -0.39     0.45  -0.02   0.32
  44   1     0.00   0.01  -0.00     0.06   0.11  -0.09     0.01   0.15  -0.13
  45   1    -0.02   0.00   0.01    -0.56   0.07   0.41    -0.39   0.04   0.24
  46   1    -0.00   0.00   0.00     0.02  -0.01  -0.01     0.01  -0.00  -0.00
  47   1    -0.00  -0.00  -0.00    -0.00  -0.00  -0.00    -0.00  -0.00  -0.00
                    127                    128                    129
                        a                      a                      a 
 Frequencies --  3019.0116              3081.6530              3083.8651
 Red. masses --     1.3872                 1.8465                 1.8255
 Frc consts  --     0.0000                 0.0000                 0.0000
 IR Inten    --    33.4796                10.4249                12.6052
 Raman Activ --     0.0000                 0.0000                 0.0000
 Depolar     --     0.0000                 0.0000                 0.0000
 Atom AN      X      Y      Z        X      Y      Z        X      Y      Z
   1   7    -0.00  -0.00   0.00     0.00   0.00   0.00     0.00   0.00   0.00
   2   6     0.00   0.00  -0.00     0.00   0.00   0.00     0.00  -0.00  -0.00
   3   6     0.00  -0.00  -0.00    -0.00   0.00   0.00     0.00  -0.00   0.00
   4   6     0.00  -0.00   0.00    -0.00  -0.00   0.00     0.01   0.01   0.00
   5   6     0.00  -0.00  -0.00    -0.00   0.00   0.00     0.20  -0.15  -0.01
   6   6    -0.00  -0.00  -0.00    -0.00  -0.00  -0.00     0.02   0.10   0.01
   7   6    -0.00  -0.00   0.00     0.00  -0.00   0.00     0.00   0.00   0.00
   8   6     0.00   0.00   0.00    -0.00  -0.00  -0.00     0.00   0.00   0.00
   9   6     0.00  -0.01  -0.00    -0.00   0.00   0.00     0.01  -0.02  -0.00
  10   6     0.00   0.01   0.00     0.00   0.00   0.00    -0.00  -0.00  -0.00
  11   6    -0.02   0.14   0.01     0.00  -0.00   0.00     0.00  -0.00  -0.00
  12   6     0.00  -0.00  -0.00     0.00  -0.00   0.00    -0.00   0.00   0.00
  13   6    -0.00   0.00  -0.00    -0.00   0.00  -0.00     0.00  -0.00  -0.00
  14   6     0.00  -0.00   0.00    -0.00  -0.00  -0.00    -0.00   0.00   0.00
  15   6    -0.00  -0.00  -0.00     0.00   0.00   0.00    -0.00  -0.00  -0.00
  16   7     0.00   0.00   0.00    -0.00  -0.00  -0.00     0.00   0.00   0.00
  17   6    -0.00  -0.00   0.00     0.00  -0.00   0.00     0.00   0.00   0.00
  18   6    -0.00  -0.00   0.00    -0.00   0.00   0.00     0.00  -0.00   0.00
  19   7     0.00   0.00  -0.00     0.00  -0.00   0.00     0.00   0.00   0.00
  20   6    -0.00  -0.00  -0.00    -0.00   0.00   0.00    -0.00  -0.00  -0.00
  21   6     0.00  -0.00  -0.00     0.00  -0.00  -0.00     0.00  -0.00  -0.00
  22   6     0.00   0.00   0.00     0.00   0.01   0.00    -0.00   0.00   0.00
  23   6     0.02   0.04   0.11    -0.01   0.00   0.00    -0.00   0.00   0.00
  24   6     0.00  -0.00  -0.00    -0.24   0.12   0.07    -0.00   0.00   0.00
  25   6    -0.00   0.00  -0.00     0.02   0.01   0.01     0.00   0.00   0.00
  26  16     0.00   0.00   0.00     0.00  -0.00  -0.00     0.00  -0.00  -0.00
  27  16     0.00   0.00  -0.00     0.00  -0.00  -0.00    -0.00  -0.00  -0.00
  28  16    -0.00   0.00  -0.00     0.00  -0.00  -0.00    -0.00   0.00   0.00
  29  16    -0.00   0.00  -0.00     0.00  -0.00  -0.00    -0.00   0.00   0.00
  30   1    -0.00   0.00  -0.00     0.00  -0.00   0.00     0.00  -0.00   0.00
  31   1     0.00   0.00  -0.00    -0.00  -0.00   0.00    -0.00  -0.00   0.00
  32   1    -0.00  -0.00  -0.00    -0.00  -0.00  -0.00    -0.00  -0.00  -0.00
  33   1     0.00   0.00   0.00    -0.00  -0.00  -0.00     0.00   0.00  -0.00
  34   1    -0.00  -0.00   0.00    -0.00  -0.00   0.00    -0.00  -0.00   0.00
  35   1    -0.00   0.00   0.00     0.00  -0.00  -0.00    -0.01   0.00   0.01
  36   1     0.00   0.00   0.00    -0.00  -0.00  -0.00    -0.00  -0.00  -0.01
  37   1    -0.00   0.00  -0.00     0.01  -0.01  -0.00    -0.70   0.53   0.04
  38   1     0.00   0.00   0.00     0.00   0.01   0.00    -0.09  -0.38  -0.03
  39   1    -0.01   0.02   0.00     0.00  -0.00  -0.00    -0.03   0.06   0.00
  40   1    -0.13   0.03  -0.19    -0.00   0.00  -0.00     0.00  -0.00   0.00
  41   1     0.35  -0.56  -0.02    -0.00   0.00   0.00    -0.00   0.00   0.00
  42   1    -0.15   0.01   0.19    -0.00  -0.00   0.00     0.00  -0.00  -0.00
  43   1    -0.39   0.02  -0.28     0.00  -0.00   0.00     0.00  -0.00   0.00
  44   1    -0.01  -0.13   0.11    -0.00  -0.01   0.00    -0.00   0.00   0.00
  45   1     0.34  -0.04  -0.21     0.02  -0.00  -0.02     0.00  -0.00  -0.00
  46   1    -0.01   0.00   0.00     0.82  -0.42  -0.24     0.01  -0.01  -0.00
  47   1     0.00   0.00   0.00    -0.09  -0.06  -0.04    -0.00  -0.00  -0.00
                    130                    131                    132
                        a                      a                      a 
 Frequencies --  3095.3372              3102.6912              3133.4821
 Red. masses --     1.8942                 1.8505                 1.8915
 Frc consts  --     0.0000                 0.0000                 0.0000
 IR Inten    --     2.5939                 7.6965                 0.0648
 Raman Activ --     0.0000                 0.0000                 0.0000
 Depolar     --     0.0000                 0.0000                 0.0000
 Atom AN      X      Y      Z        X      Y      Z        X      Y      Z
   1   7     0.00   0.00   0.00    -0.00  -0.00  -0.00     0.00  -0.00   0.00
   2   6     0.00  -0.00   0.00    -0.00   0.00  -0.00     0.00  -0.00   0.00
   3   6     0.00  -0.00  -0.00     0.00   0.00   0.00    -0.00   0.00   0.00
   4   6     0.00   0.00   0.00    -0.00  -0.00  -0.00     0.00  -0.00  -0.00
   5   6     0.10  -0.07  -0.01    -0.02   0.02   0.00    -0.00   0.00   0.00
   6   6    -0.05  -0.23  -0.02     0.02   0.10   0.01     0.00   0.00   0.00
   7   6    -0.01   0.00   0.00     0.00   0.00   0.00     0.00  -0.00  -0.00
   8   6    -0.00  -0.00  -0.00    -0.01  -0.00  -0.00    -0.00   0.00  -0.00
   9   6    -0.04   0.09   0.01    -0.11   0.23   0.02    -0.00   0.00   0.00
  10   6     0.00   0.00   0.00     0.01   0.01   0.00    -0.00  -0.00  -0.00
  11   6    -0.00   0.00   0.00    -0.00   0.00   0.00    -0.00  -0.00   0.00
  12   6     0.00  -0.00  -0.00     0.00  -0.00  -0.00     0.00   0.00   0.00
  13   6    -0.00   0.00   0.00    -0.00   0.00   0.00    -0.00  -0.00   0.00
  14   6     0.00  -0.00  -0.00    -0.00  -0.00  -0.00    -0.00   0.00  -0.00
  15   6    -0.00   0.00  -0.00     0.00   0.00   0.00     0.00   0.00   0.00
  16   7     0.00  -0.00  -0.00    -0.00  -0.00  -0.00    -0.00  -0.00  -0.00
  17   6    -0.00  -0.00  -0.00    -0.00   0.00  -0.00     0.00  -0.00   0.00
  18   6    -0.00   0.00  -0.00     0.00  -0.00   0.00    -0.00   0.00   0.00
  19   7     0.00   0.00   0.00    -0.00   0.00  -0.00     0.00  -0.00   0.00
  20   6     0.00   0.00   0.00     0.00  -0.00   0.00     0.00   0.00   0.00
  21   6    -0.00   0.00   0.00    -0.00   0.00   0.00    -0.00  -0.00  -0.00
  22   6     0.00   0.00   0.00     0.00  -0.00  -0.00    -0.00  -0.00  -0.00
  23   6     0.00   0.00   0.00     0.00   0.00   0.00     0.00   0.00   0.00
  24   6     0.00  -0.00  -0.00     0.00  -0.00  -0.00     0.03  -0.02  -0.01
  25   6     0.00   0.00   0.00    -0.00  -0.00  -0.00     0.21   0.16   0.10
  26  16    -0.00  -0.00  -0.00     0.00   0.00   0.00    -0.00   0.00   0.00
  27  16     0.00   0.00  -0.00     0.00   0.00   0.00    -0.00   0.00   0.00
  28  16     0.00  -0.00  -0.00     0.00  -0.00  -0.00    -0.00  -0.00  -0.00
  29  16    -0.00   0.00   0.00    -0.00  -0.00  -0.00    -0.00  -0.00  -0.00
  30   1     0.00  -0.00   0.00    -0.00   0.00  -0.00     0.00   0.00  -0.00
  31   1    -0.00  -0.00   0.00     0.00   0.00  -0.00    -0.00  -0.00   0.00
  32   1    -0.00  -0.00  -0.00     0.00   0.00   0.00     0.00  -0.00  -0.00
  33   1    -0.00   0.00  -0.00     0.00   0.00   0.00    -0.00  -0.00  -0.00
  34   1    -0.00  -0.00  -0.00    -0.00  -0.00   0.00     0.00  -0.00  -0.00
  35   1    -0.00   0.00   0.00    -0.00   0.00   0.00     0.00  -0.00  -0.00
  36   1     0.00  -0.00  -0.00    -0.00  -0.00  -0.00    -0.00  -0.00  -0.00
  37   1    -0.31   0.23   0.02     0.07  -0.05  -0.00     0.00  -0.00  -0.00
  38   1     0.18   0.78   0.06    -0.08  -0.33  -0.02    -0.00  -0.00  -0.00
  39   1     0.15  -0.31  -0.03     0.40  -0.80  -0.07     0.00  -0.00  -0.00
  40   1    -0.00   0.00  -0.00    -0.00   0.00  -0.00     0.00   0.00   0.00
  41   1     0.00  -0.01  -0.00     0.01  -0.02  -0.00    -0.00   0.00   0.00
  42   1    -0.00   0.00   0.00    -0.00   0.00   0.00     0.00   0.00  -0.00
  43   1    -0.00  -0.00  -0.00    -0.00   0.00  -0.00    -0.00   0.00  -0.00
  44   1     0.00  -0.00   0.00     0.00  -0.00   0.00    -0.00  -0.00   0.00
  45   1     0.00  -0.00  -0.00    -0.00   0.00   0.00     0.00  -0.00  -0.00
  46   1    -0.00   0.00   0.00    -0.00   0.00   0.00    -0.09   0.05   0.03
  47   1    -0.00  -0.00  -0.00     0.00   0.00   0.00    -0.74  -0.52  -0.31
                    133                    134                    135
                        a                      a                      a 
 Frequencies --  3188.1507              3206.5486              3225.2510
 Red. masses --     2.0385                 2.0321                 1.3026
 Frc consts  --     0.0000                 0.0000                 0.0000
 IR Inten    --   508.2371                77.1330                33.1529
 Raman Activ --     0.0000                 0.0000                 0.0000
 Depolar     --     0.0000                 0.0000                 0.0000
 Atom AN      X      Y      Z        X      Y      Z        X      Y      Z
   1   7    -0.23  -0.17  -0.01    -0.09   0.14  -0.23     0.04  -0.09  -0.11
   2   6    -0.01  -0.00   0.00    -0.00   0.00  -0.01     0.01  -0.00  -0.01
   3   6     0.00   0.00   0.00    -0.00  -0.00   0.00     0.00   0.00   0.00
   4   6     0.00   0.00   0.00    -0.00  -0.00  -0.00    -0.00  -0.00  -0.00
   5   6     0.00  -0.00  -0.00     0.00   0.00  -0.00     0.00  -0.00  -0.00
   6   6    -0.00   0.00  -0.00     0.00   0.00   0.00     0.00  -0.00   0.00
   7   6    -0.00  -0.00   0.00    -0.00  -0.00  -0.00     0.00   0.00  -0.00
   8   6     0.00   0.00  -0.00     0.00   0.00  -0.00    -0.00  -0.00   0.00
   9   6     0.00  -0.00  -0.00     0.00   0.00   0.00    -0.00  -0.00   0.00
  10   6     0.00  -0.00   0.00    -0.00   0.00   0.00     0.00  -0.00  -0.00
  11   6    -0.00  -0.00   0.00    -0.00   0.00  -0.00     0.00  -0.00  -0.00
  12   6     0.00   0.00   0.00    -0.00  -0.00  -0.00     0.00  -0.00  -0.00
  13   6     0.00  -0.00  -0.00     0.00  -0.00   0.00    -0.00   0.00   0.00
  14   6    -0.00   0.00  -0.00     0.00   0.00  -0.00    -0.00  -0.00  -0.00
  15   6     0.00   0.00   0.00    -0.00  -0.00   0.00     0.00   0.00   0.00
  16   7    -0.00  -0.00  -0.00     0.00   0.00  -0.00    -0.00  -0.00  -0.00
  17   6     0.00   0.00   0.00    -0.00   0.00  -0.00    -0.00  -0.00  -0.00
  18   6    -0.00   0.00   0.00     0.00  -0.00   0.00    -0.00   0.00   0.00
  19   7     0.00  -0.00  -0.00    -0.00   0.00  -0.00     0.00  -0.00  -0.00
  20   6    -0.00  -0.00  -0.00     0.00   0.00   0.00    -0.00   0.00   0.00
  21   6     0.00  -0.00  -0.00    -0.00  -0.00   0.00    -0.00  -0.00   0.00
  22   6    -0.00   0.00   0.00     0.00   0.00   0.00    -0.00  -0.00  -0.00
  23   6    -0.00  -0.00   0.00    -0.00  -0.00   0.00    -0.00   0.00   0.00
  24   6    -0.00   0.00   0.00    -0.00  -0.00   0.00    -0.00  -0.00   0.00
  25   6     0.00  -0.00  -0.00     0.00   0.00   0.00    -0.00  -0.00  -0.00
  26  16    -0.00  -0.00  -0.00    -0.00   0.00  -0.00     0.00   0.00  -0.00
  27  16    -0.00  -0.00  -0.00    -0.00   0.00  -0.00     0.00  -0.00  -0.00
  28  16    -0.00   0.00   0.00    -0.00   0.00   0.00     0.00  -0.00   0.00
  29  16     0.00   0.00   0.00     0.00   0.00   0.00    -0.00  -0.00   0.00
  30   1    -0.04   0.28  -0.16     0.04  -0.67   0.34    -0.03   0.45  -0.25
  31   1     0.79   0.31  -0.08     0.06   0.04  -0.03    -0.42  -0.18   0.03
  32   1     0.10   0.03   0.28     0.23   0.10   0.54     0.27   0.09   0.65
  33   1     0.00   0.00   0.01     0.01   0.00   0.02     0.01   0.00   0.01
  34   1     0.02   0.01  -0.00    -0.00  -0.00   0.00    -0.01  -0.00   0.00
  35   1    -0.00  -0.00   0.00     0.00   0.00   0.00    -0.00   0.00   0.00
  36   1    -0.00  -0.00  -0.00     0.00  -0.00   0.00     0.00  -0.00  -0.00
  37   1    -0.00   0.00   0.00     0.00   0.00   0.00    -0.00  -0.00   0.00
  38   1    -0.00   0.00   0.00    -0.00  -0.00   0.00     0.00   0.00   0.00
  39   1    -0.00   0.00   0.00     0.00   0.00   0.00    -0.00   0.00   0.00
  40   1     0.00  -0.00   0.00     0.00  -0.00   0.00     0.00   0.00   0.00
  41   1    -0.00   0.00  -0.00     0.00  -0.00   0.00    -0.00   0.00   0.00
  42   1     0.00  -0.00  -0.00    -0.00   0.00   0.00    -0.00   0.00   0.00
  43   1    -0.00  -0.00   0.00    -0.00   0.00  -0.00    -0.00   0.00  -0.00
  44   1    -0.00   0.00  -0.00    -0.00   0.00  -0.00    -0.00  -0.00   0.00
  45   1     0.00  -0.00  -0.00     0.00   0.00  -0.00     0.00   0.00  -0.00
  46   1     0.00  -0.00  -0.00     0.00  -0.00  -0.00    -0.00   0.00   0.00
  47   1    -0.00  -0.00  -0.00    -0.00  -0.00  -0.00     0.00   0.00   0.00
