 Entering Gaussian System
 *********************************************
 Gaussian 98:
 frequency output generated by the xtb code
 *********************************************
                         Standard orientation:
 --------------------------------------------------------------------
  Center     Atomic     Atomic              Coordinates (Angstroms)
  Number     Number      Type              X           Y           Z
 --------------------------------------------------------------------
    1          7             0       -2.999224    1.556785   -0.425322
    2          6             0       -2.078388    1.971852    0.665784
    3          6             0       -0.683101    1.489154    0.427870
    4          6             0        0.301862    2.361069   -0.071545
    5          6             0        1.568349    1.919751   -0.325869
    6          6             0       -0.363077    0.174643    0.644881
    7          6             0        0.936760   -0.316984    0.392927
    8          6             0        1.921023    0.571240   -0.098928
    9          6             0        3.221469    0.079153   -0.350921
   10          6             0        3.524343   -1.232509   -0.124740
   11          6             0        2.548940   -2.112243    0.360015
   12          6             0        1.283184   -1.668906    0.613618
   13         17             0       -2.909982   -1.942676   -0.577137
   14          1             0       -3.968221    1.880360   -0.268639
   15          1             0       -3.017619    0.522805   -0.511120
   16          1             0       -2.682345    1.930832   -1.333214
   17          1             0       -2.438116    1.585586    1.626746
   18          1             0       -2.081871    3.063573    0.764972
   19          1             0        0.040947    3.390450   -0.255686
   20          1             0        2.314891    2.597147   -0.706813
   21          1             0       -1.118769   -0.502952    1.004225
   22          1             0        3.972062    0.755568   -0.725455
   23          1             0        4.520641   -1.596854   -0.320543
   24          1             0        2.802376   -3.146444    0.532926
   25          1             0        0.531511   -2.346141    0.984772
 --------------------------------------------------------------------
     1 basis functions        1 primitive gaussians
     1 alpha electrons        1 beta electrons

 Harmonic frequencies (cm**-1), IR intensities (km*mol⁻¹),
 Raman scattering activities (A**4/amu), Raman depolarization ratios,
 reduced masses (AMU), force constants (mDyne/A) and normal coordinates:
                      1                      2                      3
                        a                      a                      a 
 Frequencies --  -138.5899                20.1947                53.5888
 Red. masses --    20.8452                13.8666                23.7641
 Frc consts  --     0.0000                 0.0000                 0.0000
 IR Inten    --   129.4358                 3.2171                12.8372
 Raman Activ --     0.0000                 0.0000                 0.0000
 Depolar     --     0.0000                 0.0000                 0.0000
 Atom AN      X      Y      Z        X      Y      Z        X      Y      Z
   1   7     0.01   0.62  -0.01     0.03   0.17  -0.01     0.05  -0.08  -0.03
   2   6     0.06   0.14   0.12    -0.04  -0.14   0.16    -0.04   0.13  -0.03
   3   6     0.01   0.04   0.02    -0.04  -0.11   0.12    -0.03   0.12   0.08
   4   6     0.02   0.02  -0.01    -0.15  -0.13  -0.15     0.00   0.07   0.05
   5   6     0.00   0.00  -0.03    -0.16  -0.11  -0.24    -0.02   0.00   0.03
   6   6    -0.02   0.03  -0.02     0.06  -0.05   0.29    -0.08   0.12   0.13
   7   6    -0.03   0.01  -0.02     0.05  -0.03   0.19    -0.12   0.04   0.08
   8   6    -0.01  -0.00  -0.02    -0.07  -0.06  -0.09    -0.10  -0.02   0.01
   9   6    -0.01  -0.01  -0.00    -0.08  -0.04  -0.22    -0.15  -0.12  -0.10
  10   6    -0.02  -0.00   0.02     0.01   0.01  -0.09    -0.24  -0.15  -0.16
  11   6    -0.03   0.01   0.02     0.13   0.04   0.19    -0.26  -0.08  -0.08
  12   6    -0.03   0.01  -0.01     0.15   0.02   0.34    -0.20   0.02   0.05
  13  17     0.03  -0.64  -0.05     0.07   0.25  -0.30     0.73  -0.02   0.01
  14   1     0.01   0.20   0.01     0.01   0.04   0.00    -0.00  -0.07  -0.02
  15   1    -0.05   0.20  -0.06     0.00   0.05  -0.08     0.08  -0.02   0.00
  16   1     0.03   0.21   0.02     0.03   0.11   0.03     0.00  -0.01  -0.01
  17   1    -0.00  -0.02   0.00    -0.03  -0.11   0.01    -0.02   0.07   0.00
  18   1     0.06   0.03   0.12    -0.01  -0.05   0.12    -0.03   0.04  -0.05
  19   1     0.01   0.01   0.00    -0.07  -0.05  -0.08     0.01   0.02   0.01
  20   1     0.00  -0.00  -0.01    -0.07  -0.04  -0.13     0.00  -0.01   0.00
  21   1    -0.01   0.01  -0.01     0.04  -0.01   0.15    -0.03   0.04   0.05
  22   1    -0.00  -0.00  -0.00    -0.05  -0.02  -0.13    -0.04  -0.05  -0.05
  23   1    -0.00  -0.00   0.01    -0.00   0.01  -0.06    -0.08  -0.06  -0.08
  24   1    -0.01   0.00   0.01     0.06   0.02   0.08    -0.09  -0.03  -0.04
  25   1    -0.01   0.00  -0.01     0.07   0.01   0.16    -0.06   0.02   0.03
                      4                      5                      6
                        a                      a                      a 
 Frequencies --    85.8854               113.0234               151.4655
 Red. masses --    17.6974                14.5355                 9.5846
 Frc consts  --     0.0000                 0.0000                 0.0000
 IR Inten    --    18.1711                28.1667                 0.6033
 Raman Activ --     0.0000                 0.0000                 0.0000
 Depolar     --     0.0000                 0.0000                 0.0000
 Atom AN      X      Y      Z        X      Y      Z        X      Y      Z
   1   7    -0.18   0.21   0.16     0.15   0.21  -0.51     0.01  -0.02  -0.00
   2   6    -0.02  -0.06   0.12    -0.11  -0.16  -0.12    -0.00   0.00  -0.00
   3   6    -0.08  -0.12  -0.12    -0.08  -0.14   0.06    -0.00   0.00   0.00
   4   6    -0.10  -0.11  -0.13    -0.09  -0.06   0.18     0.11   0.10   0.40
   5   6    -0.09  -0.09  -0.13    -0.06   0.01   0.20     0.04   0.03   0.13
   6   6    -0.10  -0.15  -0.25    -0.03  -0.14   0.03    -0.10  -0.07  -0.32
   7   6    -0.09  -0.12  -0.23     0.01  -0.06   0.04    -0.06  -0.05  -0.20
   8   6    -0.06  -0.07  -0.09    -0.03   0.00   0.09    -0.07  -0.05  -0.22
   9   6     0.02   0.01   0.16    -0.03   0.06  -0.02    -0.11  -0.09  -0.37
  10   6     0.08   0.05   0.29     0.01   0.04  -0.17    -0.01  -0.01  -0.02
  11   6     0.04  -0.02   0.07     0.07  -0.01  -0.17     0.10   0.09   0.40
  12   6    -0.05  -0.11  -0.21     0.07  -0.06  -0.05     0.03   0.04   0.14
  13  17     0.41   0.32   0.16     0.05   0.17   0.38     0.02   0.01  -0.01
  14   1    -0.04   0.04   0.09     0.05   0.14  -0.23    -0.00  -0.01  -0.00
  15   1    -0.04   0.06  -0.01    -0.04   0.06  -0.13     0.01  -0.01  -0.00
  16   1    -0.08   0.11   0.05     0.16   0.04  -0.10    -0.00  -0.00  -0.00
  17   1     0.02  -0.06   0.02    -0.11  -0.12  -0.10    -0.00   0.00  -0.00
  18   1     0.02  -0.02   0.09    -0.02  -0.05   0.05    -0.00   0.00  -0.00
  19   1    -0.03  -0.03  -0.03    -0.04  -0.02   0.07     0.07   0.06   0.24
  20   1    -0.03  -0.02  -0.03    -0.02   0.02   0.08     0.03   0.02   0.09
  21   1    -0.03  -0.05  -0.09    -0.01  -0.05  -0.02    -0.05  -0.04  -0.17
  22   1     0.01   0.02   0.08    -0.02   0.03  -0.00    -0.05  -0.04  -0.18
  23   1     0.05   0.04   0.16     0.00   0.02  -0.08    -0.00  -0.00  -0.00
  24   1     0.02   0.00   0.04     0.03  -0.00  -0.07     0.07   0.06   0.24
  25   1    -0.02  -0.05  -0.11     0.03  -0.03  -0.01     0.02   0.02   0.09
                      7                      8                      9
                        a                      a                      a 
 Frequencies --   190.0606               251.0804               309.9654
 Red. masses --    10.4533                 7.6124                 5.4036
 Frc consts  --     0.0000                 0.0000                 0.0000
 IR Inten    --    15.3969                 0.8528                 1.1530
 Raman Activ --     0.0000                 0.0000                 0.0000
 Depolar     --     0.0000                 0.0000                 0.0000
 Atom AN      X      Y      Z        X      Y      Z        X      Y      Z
   1   7     0.48  -0.15  -0.10     0.01   0.03   0.07    -0.13   0.03  -0.15
   2   6     0.03  -0.05   0.22     0.09   0.44  -0.17    -0.07   0.07  -0.17
   3   6     0.07   0.10   0.29    -0.04  -0.07   0.12    -0.00   0.04   0.09
   4   6    -0.02   0.07   0.05    -0.03  -0.12   0.07     0.05   0.00   0.12
   5   6    -0.11  -0.00  -0.25    -0.09  -0.15  -0.01     0.03  -0.04   0.07
   6   6     0.01   0.06   0.10    -0.12  -0.11   0.15     0.07   0.08   0.30
   7   6    -0.08   0.01  -0.16    -0.12  -0.16   0.06    -0.00  -0.03   0.03
   8   6    -0.10  -0.00  -0.22    -0.16  -0.14  -0.00    -0.02  -0.08  -0.10
   9   6    -0.06   0.03  -0.01    -0.10   0.08  -0.03    -0.01  -0.05  -0.16
  10   6    -0.00   0.09   0.28     0.14   0.15   0.01     0.13   0.04   0.16
  11   6    -0.07   0.03   0.04     0.20   0.05  -0.05     0.08   0.00  -0.01
  12   6    -0.14  -0.02  -0.24     0.11  -0.14  -0.06     0.00  -0.08  -0.23
  13  17    -0.08  -0.06   0.00     0.03   0.00  -0.06    -0.06  -0.01   0.06
  14   1     0.12  -0.02  -0.16     0.03   0.14  -0.06    -0.12  -0.35   0.19
  15   1     0.11  -0.05   0.01    -0.09  -0.00   0.19     0.27   0.02  -0.28
  16   1     0.25  -0.08  -0.00     0.06  -0.20  -0.05    -0.30   0.35   0.01
  17   1    -0.03  -0.06   0.03    -0.03   0.36   0.03    -0.04   0.04  -0.05
  18   1    -0.04  -0.02   0.09     0.14   0.15  -0.27    -0.02   0.02  -0.07
  19   1    -0.01   0.02   0.03    -0.00  -0.03   0.03     0.03   0.01   0.04
  20   1    -0.04  -0.01  -0.12    -0.02  -0.06  -0.02     0.02  -0.01   0.04
  21   1     0.01   0.03   0.06    -0.04  -0.02   0.05     0.04   0.04   0.15
  22   1    -0.01   0.01   0.01    -0.07   0.07  -0.01    -0.02  -0.01  -0.08
  23   1     0.03   0.04   0.18     0.06   0.09   0.02     0.06   0.03   0.12
  24   1    -0.02   0.01   0.03     0.09   0.02  -0.02     0.03   0.00   0.00
  25   1    -0.06  -0.01  -0.12     0.07  -0.09  -0.03    -0.01  -0.05  -0.13
                     10                     11                     12
                        a                      a                      a 
 Frequencies --   323.3943               365.4236               406.3753
 Red. masses --     7.5437                 9.5233                 9.1458
 Frc consts  --     0.0000                 0.0000                 0.0000
 IR Inten    --     3.7846                 2.8365                 0.6256
 Raman Activ --     0.0000                 0.0000                 0.0000
 Depolar     --     0.0000                 0.0000                 0.0000
 Atom AN      X      Y      Z        X      Y      Z        X      Y      Z
   1   7     0.34  -0.04   0.02     0.18  -0.02   0.08    -0.15  -0.02  -0.01
   2   6     0.14   0.10   0.07     0.15  -0.06   0.06     0.00  -0.20  -0.02
   3   6     0.05   0.01  -0.02     0.06  -0.02  -0.23     0.15   0.25  -0.18
   4   6     0.00   0.01  -0.06    -0.05  -0.01  -0.39     0.25   0.28   0.04
   5   6    -0.06  -0.07  -0.09     0.12   0.09   0.39     0.08  -0.14  -0.06
   6   6    -0.18  -0.10  -0.28    -0.01   0.02   0.11    -0.01   0.22   0.04
   7   6    -0.13  -0.11   0.03    -0.12  -0.11  -0.05    -0.15  -0.18   0.14
   8   6    -0.14  -0.03   0.16    -0.10   0.02   0.21    -0.25  -0.21  -0.08
   9   6    -0.08   0.14   0.22    -0.20   0.04  -0.18    -0.16   0.06   0.06
  10   6    -0.06   0.09  -0.19    -0.07   0.11  -0.04     0.06   0.14   0.04
  11   6     0.04   0.04  -0.07     0.07   0.09   0.22     0.08  -0.01  -0.18
  12   6     0.07  -0.04   0.22    -0.10  -0.13  -0.20     0.06  -0.17   0.13
  13  17    -0.06  -0.01   0.03    -0.01  -0.01  -0.00     0.02  -0.00  -0.00
  14   1     0.01  -0.31   0.11     0.05   0.01  -0.00    -0.00   0.11  -0.00
  15   1     0.35  -0.00  -0.17     0.04  -0.01   0.02    -0.15  -0.00   0.02
  16   1    -0.06   0.24   0.06     0.07  -0.01   0.03    -0.01  -0.07  -0.02
  17   1     0.04   0.04   0.02     0.08  -0.06   0.01     0.07  -0.21  -0.04
  18   1     0.04   0.03   0.01     0.03  -0.02   0.06    -0.10  -0.07   0.13
  19   1    -0.00   0.00  -0.02    -0.04  -0.03  -0.19     0.14   0.11   0.07
  20   1    -0.01  -0.06  -0.07     0.09   0.02   0.22     0.10  -0.11   0.00
  21   1    -0.10  -0.02  -0.16    -0.00   0.06   0.14    -0.06   0.14   0.04
  22   1    -0.04   0.08   0.11    -0.10   0.01  -0.15    -0.08   0.08   0.07
  23   1    -0.03   0.04  -0.12    -0.03   0.04  -0.06     0.05   0.09   0.06
  24   1     0.04   0.02  -0.04     0.07   0.05   0.13     0.05  -0.00  -0.10
  25   1     0.06  -0.02   0.13    -0.03  -0.07  -0.13     0.07  -0.09   0.07
                     13                     14                     15
                        a                      a                      a 
 Frequencies --   439.1525               448.3312               499.9380
 Red. masses --     9.3880                 9.4604                11.2086
 Frc consts  --     0.0000                 0.0000                 0.0000
 IR Inten    --     7.7668                 6.0135                 0.2356
 Raman Activ --     0.0000                 0.0000                 0.0000
 Depolar     --     0.0000                 0.0000                 0.0000
 Atom AN      X      Y      Z        X      Y      Z        X      Y      Z
   1   7     0.07   0.03   0.04     0.02  -0.01  -0.02    -0.01   0.02  -0.01
   2   6     0.25  -0.07  -0.12    -0.23   0.13   0.14     0.02   0.06  -0.04
   3   6     0.08  -0.28  -0.20    -0.18   0.17   0.04     0.05   0.07   0.02
   4   6    -0.02  -0.06   0.05    -0.09  -0.03  -0.15    -0.22   0.34  -0.01
   5   6     0.04   0.18   0.08     0.01  -0.07   0.22    -0.23   0.29  -0.02
   6   6     0.11  -0.17   0.20    -0.03   0.18   0.09     0.21   0.06  -0.06
   7   6     0.02  -0.02  -0.18    -0.16  -0.06  -0.42     0.17  -0.13  -0.06
   8   6    -0.14   0.06  -0.40     0.01  -0.16  -0.23    -0.12   0.21   0.00
   9   6    -0.06   0.13   0.09     0.18  -0.07   0.21    -0.21  -0.12   0.12
  10   6    -0.19   0.10   0.09     0.15  -0.16  -0.20    -0.09  -0.16   0.02
  11   6    -0.19  -0.03  -0.15     0.11  -0.00   0.00     0.20  -0.44   0.09
  12   6    -0.05   0.06   0.23     0.13   0.07   0.08     0.24  -0.22  -0.04
  13  17    -0.00   0.00   0.00    -0.00  -0.01   0.00    -0.00   0.00   0.00
  14   1     0.03   0.01   0.07    -0.02  -0.04  -0.09    -0.00  -0.00   0.01
  15   1     0.01   0.01  -0.01     0.05  -0.01   0.01     0.00   0.00   0.00
  16   1    -0.03   0.03  -0.00     0.06  -0.01   0.01    -0.02   0.00  -0.01
  17   1     0.07   0.04  -0.01    -0.07   0.01   0.03    -0.01   0.06   0.00
  18   1     0.14  -0.02  -0.07    -0.10   0.04   0.05     0.02   0.02  -0.05
  19   1    -0.04  -0.01   0.14     0.03   0.01  -0.05    -0.10   0.09  -0.00
  20   1     0.05   0.10   0.18     0.03   0.02   0.19    -0.06   0.07  -0.02
  21   1     0.08  -0.02   0.20     0.04   0.08   0.19     0.04   0.03  -0.01
  22   1     0.04   0.05   0.15     0.08   0.03   0.21    -0.01  -0.08   0.04
  23   1    -0.03   0.05   0.12     0.05  -0.05  -0.04    -0.00   0.04  -0.04
  24   1    -0.03  -0.01  -0.06     0.03   0.01   0.11     0.08  -0.12   0.04
  25   1    -0.01   0.07   0.18     0.10   0.03   0.18     0.04  -0.03  -0.00
                     16                     17                     18
                        a                      a                      a 
 Frequencies --   511.7241               587.3008               611.5359
 Red. masses --     9.9797                11.1277                 9.8428
 Frc consts  --     0.0000                 0.0000                 0.0000
 IR Inten    --     2.0942                 2.2174                 3.2126
 Raman Activ --     0.0000                 0.0000                 0.0000
 Depolar     --     0.0000                 0.0000                 0.0000
 Atom AN      X      Y      Z        X      Y      Z        X      Y      Z
   1   7    -0.18  -0.00  -0.08     0.01  -0.01   0.01     0.12   0.02   0.07
   2   6     0.10  -0.13  -0.15     0.09  -0.08  -0.03    -0.02   0.06   0.03
   3   6     0.22   0.00   0.30     0.03  -0.10  -0.07    -0.21  -0.10  -0.54
   4   6     0.14  -0.00   0.08     0.13  -0.06   0.05    -0.04   0.08   0.26
   5   6     0.07  -0.01  -0.18     0.16   0.19  -0.16    -0.20  -0.14  -0.20
   6   6     0.10  -0.04   0.16    -0.34  -0.11   0.18     0.08   0.09   0.13
   7   6    -0.06  -0.11  -0.28    -0.23   0.23   0.03     0.06   0.02   0.15
   8   6     0.00   0.04   0.10    -0.16   0.11   0.02     0.04  -0.04  -0.00
   9   6     0.04   0.17   0.25    -0.25  -0.25   0.18     0.15   0.05   0.18
  10   6    -0.22   0.04  -0.31     0.19  -0.21  -0.06    -0.02  -0.05  -0.19
  11   6     0.00   0.12   0.29     0.16  -0.03   0.02     0.04   0.08   0.22
  12   6    -0.14  -0.10  -0.15     0.22   0.34  -0.20    -0.09  -0.07  -0.17
  13  17     0.01   0.00  -0.00     0.00  -0.00  -0.00    -0.00  -0.00   0.00
  14   1    -0.01   0.06   0.08     0.02   0.02   0.03     0.01  -0.04  -0.05
  15   1    -0.12   0.00  -0.04    -0.02  -0.00  -0.00     0.09   0.00   0.04
  16   1    -0.11  -0.00  -0.04    -0.01  -0.00  -0.00     0.08  -0.00   0.03
  17   1    -0.01  -0.02  -0.05     0.04  -0.06  -0.02     0.05  -0.01   0.02
  18   1     0.02  -0.03  -0.06     0.01  -0.03   0.03     0.02   0.01   0.04
  19   1     0.00  -0.02  -0.04    -0.02  -0.02   0.06     0.06   0.07   0.26
  20   1     0.01  -0.04  -0.15     0.05   0.05  -0.04    -0.04  -0.01   0.04
  21   1     0.02  -0.00   0.04    -0.10  -0.02   0.05     0.06   0.05   0.17
  22   1     0.03   0.06   0.13    -0.09  -0.05   0.05     0.02   0.00  -0.01
  23   1    -0.09  -0.02  -0.17     0.07   0.01  -0.06    -0.04  -0.06  -0.15
  24   1     0.07   0.07   0.21    -0.07  -0.03   0.05     0.01   0.02   0.04
  25   1    -0.03  -0.01   0.01     0.07   0.08  -0.07    -0.05  -0.05  -0.16
                     19                     20                     21
                        a                      a                      a 
 Frequencies --   699.9643               722.8053               746.3334
 Red. masses --    10.1521                11.0859                 3.8044
 Frc consts  --     0.0000                 0.0000                 0.0000
 IR Inten    --     1.8762                 0.9036                 3.7778
 Raman Activ --     0.0000                 0.0000                 0.0000
 Depolar     --     0.0000                 0.0000                 0.0000
 Atom AN      X      Y      Z        X      Y      Z        X      Y      Z
   1   7     0.08  -0.00   0.03    -0.00  -0.00  -0.01    -0.03  -0.01  -0.04
   2   6     0.33  -0.18  -0.19     0.03  -0.03  -0.01     0.06  -0.04  -0.03
   3   6     0.13   0.02   0.02     0.07   0.05   0.19     0.09   0.04   0.21
   4   6    -0.28   0.27   0.05    -0.07  -0.02  -0.20    -0.06   0.01  -0.13
   5   6    -0.40  -0.14   0.18     0.02   0.03   0.18    -0.06  -0.03  -0.07
   6   6     0.02   0.06   0.03    -0.04  -0.03  -0.13    -0.03  -0.03  -0.14
   7   6    -0.10   0.02  -0.05     0.14   0.12   0.52    -0.04  -0.03  -0.12
   8   6     0.01  -0.11   0.08    -0.15  -0.14  -0.52    -0.03  -0.03  -0.06
   9   6     0.12  -0.16  -0.05     0.06   0.03   0.17     0.05   0.02   0.19
  10   6     0.28  -0.14  -0.03    -0.03  -0.06  -0.20     0.08   0.02   0.14
  11   6    -0.08   0.21  -0.07     0.05   0.06   0.18     0.02   0.06   0.08
  12   6    -0.08   0.14  -0.00    -0.06  -0.03  -0.18     0.04   0.06   0.20
  13  17     0.00   0.00  -0.00     0.00   0.00   0.00     0.00   0.00   0.00
  14   1     0.08   0.09   0.17     0.01   0.01   0.03     0.01   0.03   0.06
  15   1    -0.09   0.01  -0.03    -0.02   0.00  -0.01    -0.04  -0.00  -0.01
  16   1    -0.08   0.01  -0.02    -0.02   0.01  -0.01    -0.05   0.00  -0.03
  17   1     0.09  -0.02  -0.04    -0.01   0.01  -0.00    -0.02   0.00  -0.02
  18   1     0.11  -0.05  -0.07     0.01  -0.01  -0.02     0.01  -0.01  -0.03
  19   1    -0.10   0.05  -0.07     0.00   0.01   0.02     0.04   0.06   0.19
  20   1    -0.13  -0.06  -0.02     0.03   0.02   0.11     0.06   0.05   0.24
  21   1    -0.04   0.03  -0.06    -0.05  -0.04  -0.17     0.06   0.05   0.21
  22   1     0.02   0.00   0.03     0.04   0.03   0.14    -0.11  -0.09  -0.37
  23   1     0.07  -0.09   0.06     0.01  -0.00   0.02    -0.10  -0.10  -0.38
  24   1    -0.08   0.06   0.06    -0.00   0.01   0.02    -0.12  -0.08  -0.37
  25   1     0.02   0.03   0.06    -0.03  -0.02  -0.11    -0.09  -0.07  -0.30
                     22                     23                     24
                        a                      a                      a 
 Frequencies --   803.0086               820.7848               837.7266
 Red. masses --    10.3792                 4.5876                 3.5510
 Frc consts  --     0.0000                 0.0000                 0.0000
 IR Inten    --     2.7912                34.3130                37.5550
 Raman Activ --     0.0000                 0.0000                 0.0000
 Depolar     --     0.0000                 0.0000                 0.0000
 Atom AN      X      Y      Z        X      Y      Z        X      Y      Z
   1   7     0.02  -0.00   0.01     0.03   0.03   0.03     0.07   0.09  -0.04
   2   6     0.02  -0.04  -0.02    -0.01   0.05  -0.04     0.13   0.21  -0.18
   3   6    -0.03   0.02   0.02    -0.06  -0.02  -0.15     0.01   0.06   0.08
   4   6     0.03  -0.20   0.04     0.06   0.03   0.27    -0.07  -0.11  -0.01
   5   6    -0.11  -0.41   0.13     0.05   0.03   0.25    -0.09  -0.08  -0.01
   6   6     0.32   0.16  -0.16     0.02   0.04   0.12    -0.10  -0.02   0.01
   7   6     0.16   0.16  -0.07    -0.02  -0.01  -0.11    -0.01   0.05   0.01
   8   6    -0.10  -0.11   0.06    -0.06  -0.06  -0.26     0.06   0.02   0.03
   9   6    -0.35  -0.00   0.10     0.03   0.04   0.09     0.07   0.07  -0.08
  10   6    -0.20   0.09   0.03    -0.02   0.03   0.06    -0.12   0.03   0.01
  11   6     0.02  -0.07   0.01     0.04  -0.01   0.12     0.03  -0.14   0.02
  12   6     0.19   0.35  -0.14     0.05   0.03   0.09     0.07   0.02  -0.03
  13  17     0.00  -0.00   0.00    -0.00  -0.00  -0.00    -0.00  -0.00  -0.01
  14   1     0.02   0.02   0.03    -0.01  -0.03  -0.01     0.00  -0.10   0.14
  15   1    -0.02   0.00  -0.03     0.06   0.00   0.08     0.16  -0.01   0.37
  16   1     0.00   0.02   0.01    -0.01  -0.05  -0.02    -0.28  -0.27  -0.23
  17   1     0.00   0.03   0.01     0.03  -0.08  -0.03     0.02  -0.37  -0.22
  18   1     0.04  -0.01  -0.05    -0.01   0.00   0.08    -0.08   0.01   0.38
  19   1     0.13  -0.04  -0.02    -0.14  -0.14  -0.51     0.00  -0.01   0.09
  20   1    -0.01  -0.15   0.04    -0.12  -0.09  -0.38    -0.03   0.03   0.09
  21   1     0.16  -0.00  -0.00    -0.04  -0.04  -0.15    -0.01  -0.01   0.03
  22   1    -0.13   0.03   0.04    -0.02  -0.02  -0.08     0.06   0.01   0.05
  23   1    -0.02   0.13  -0.01    -0.06  -0.04  -0.19    -0.02   0.03   0.05
  24   1    -0.05  -0.02   0.03    -0.06  -0.07  -0.25     0.03  -0.03   0.03
  25   1    -0.01   0.18  -0.03    -0.05  -0.03  -0.17     0.01   0.02   0.00
                     25                     26                     27
                        a                      a                      a 
 Frequencies --   854.3567               869.8722               875.1974
 Red. masses --     4.2098                 8.9746                 3.9618
 Frc consts  --     0.0000                 0.0000                 0.0000
 IR Inten    --    16.2932                 9.3539                 2.7850
 Raman Activ --     0.0000                 0.0000                 0.0000
 Depolar     --     0.0000                 0.0000                 0.0000
 Atom AN      X      Y      Z        X      Y      Z        X      Y      Z
   1   7    -0.02   0.01  -0.03    -0.08   0.07  -0.05     0.01   0.01   0.00
   2   6    -0.01   0.01   0.01    -0.08   0.13   0.06     0.01   0.02  -0.01
   3   6     0.02  -0.02   0.05     0.04  -0.11   0.00    -0.00  -0.00   0.01
   4   6     0.03   0.03   0.11     0.01   0.00  -0.03     0.01  -0.00   0.07
   5   6     0.05   0.08   0.05     0.05   0.12  -0.07     0.03   0.04   0.08
   6   6    -0.03  -0.10  -0.40     0.38  -0.04   0.01    -0.04  -0.04  -0.18
   7   6     0.04  -0.01   0.09     0.14  -0.11  -0.04     0.03   0.02   0.13
   8   6    -0.02   0.02   0.04    -0.13   0.01   0.03    -0.03  -0.02  -0.10
   9   6    -0.10  -0.09  -0.10    -0.29  -0.22   0.15     0.07   0.06   0.27
  10   6     0.06  -0.05  -0.12     0.29  -0.08  -0.04     0.03   0.02   0.09
  11   6    -0.01   0.11   0.04    -0.10   0.38  -0.07    -0.05  -0.03  -0.18
  12   6    -0.04  -0.01   0.10    -0.19  -0.06   0.06    -0.07  -0.06  -0.22
  13  17     0.00   0.00   0.00    -0.01  -0.00  -0.01     0.00  -0.00  -0.00
  14   1    -0.01  -0.01  -0.00    -0.09  -0.14  -0.11     0.00  -0.00   0.01
  15   1     0.02  -0.00   0.03     0.16   0.00   0.19     0.01  -0.00   0.02
  16   1    -0.03  -0.03  -0.03    -0.04  -0.12  -0.08    -0.02  -0.03  -0.02
  17   1    -0.04   0.00  -0.01    -0.06  -0.06  -0.04    -0.01  -0.02  -0.02
  18   1     0.02   0.00   0.02     0.02   0.02   0.14     0.00   0.00   0.03
  19   1    -0.05  -0.04  -0.12    -0.04  -0.00   0.02    -0.03  -0.03  -0.09
  20   1    -0.05  -0.04  -0.22     0.06   0.02   0.05    -0.05  -0.03  -0.15
  21   1     0.20   0.14   0.64     0.11  -0.12  -0.20     0.08   0.06   0.28
  22   1     0.04   0.07   0.27    -0.16   0.01   0.01    -0.15  -0.12  -0.51
  23   1     0.07   0.03   0.16     0.07  -0.03  -0.05    -0.02  -0.02  -0.09
  24   1    -0.03   0.02  -0.04    -0.07   0.10   0.01     0.08   0.07   0.27
  25   1    -0.06  -0.07  -0.19    -0.01  -0.04   0.05     0.13   0.09   0.44
                     28                     29                     30
                        a                      a                      a 
 Frequencies --   900.6735               916.3764               927.8308
 Red. masses --     3.4309                 3.9894                 3.3958
 Frc consts  --     0.0000                 0.0000                 0.0000
 IR Inten    --     0.2501                 1.8675                 0.2239
 Raman Activ --     0.0000                 0.0000                 0.0000
 Depolar     --     0.0000                 0.0000                 0.0000
 Atom AN      X      Y      Z        X      Y      Z        X      Y      Z
   1   7    -0.01   0.00  -0.00    -0.00  -0.00  -0.00     0.01  -0.00   0.01
   2   6     0.00   0.01  -0.00     0.00   0.01  -0.00    -0.00  -0.00  -0.01
   3   6    -0.01  -0.01  -0.03    -0.00  -0.00  -0.01    -0.01   0.01  -0.00
   4   6    -0.08  -0.07  -0.28    -0.02  -0.02  -0.07     0.00  -0.02   0.01
   5   6     0.09   0.08   0.30     0.02   0.02   0.08     0.01   0.01   0.01
   6   6     0.02   0.01   0.06     0.02   0.01   0.07    -0.00   0.01  -0.00
   7   6    -0.01  -0.02  -0.06    -0.02  -0.02  -0.09     0.02   0.02   0.06
   8   6    -0.00   0.00   0.01    -0.00  -0.00  -0.01    -0.02  -0.02  -0.09
   9   6    -0.02  -0.02  -0.05     0.06   0.05   0.23    -0.02  -0.01  -0.05
  10   6     0.03   0.02   0.08    -0.08  -0.07  -0.28     0.07   0.05   0.22
  11   6     0.01   0.02   0.04    -0.04  -0.03  -0.13    -0.09  -0.08  -0.32
  12   6    -0.02  -0.01  -0.04     0.07   0.06   0.26     0.04   0.03   0.17
  13  17    -0.00   0.00  -0.00    -0.00   0.00  -0.00    -0.00   0.00  -0.00
  14   1    -0.00  -0.00  -0.00    -0.00  -0.00  -0.01     0.01   0.01   0.01
  15   1     0.01  -0.00   0.01     0.00  -0.00   0.00    -0.01   0.00  -0.00
  16   1    -0.00  -0.00  -0.00     0.00  -0.00  -0.00    -0.00   0.00   0.00
  17   1     0.01  -0.01  -0.00     0.01  -0.01  -0.00     0.00  -0.00  -0.00
  18   1    -0.01   0.00   0.00    -0.01   0.00   0.01    -0.00  -0.00  -0.00
  19   1     0.15   0.14   0.55     0.03   0.03   0.12    -0.01  -0.01  -0.02
  20   1    -0.17  -0.14  -0.58    -0.05  -0.04  -0.15    -0.01   0.00  -0.01
  21   1     0.00  -0.01  -0.01    -0.02  -0.02  -0.08    -0.00   0.00  -0.01
  22   1     0.02   0.02   0.09    -0.11  -0.09  -0.37     0.05   0.04   0.17
  23   1    -0.04  -0.04  -0.16     0.14   0.12   0.49    -0.12  -0.10  -0.43
  24   1    -0.03  -0.02  -0.08     0.06   0.05   0.22     0.17   0.14   0.59
  25   1     0.02   0.01   0.07    -0.12  -0.09  -0.41    -0.10  -0.08  -0.35
                     31                     32                     33
                        a                      a                      a 
 Frequencies --   934.5594               997.9677              1034.8711
 Red. masses --     8.7160                10.0729                 5.3003
 Frc consts  --     0.0000                 0.0000                 0.0000
 IR Inten    --    37.0747                20.8660                17.3435
 Raman Activ --     0.0000                 0.0000                 0.0000
 Depolar     --     0.0000                 0.0000                 0.0000
 Atom AN      X      Y      Z        X      Y      Z        X      Y      Z
   1   7     0.30  -0.03   0.15    -0.29  -0.18  -0.33    -0.14   0.05   0.29
   2   6    -0.07  -0.07  -0.23     0.48   0.18   0.35    -0.00   0.06  -0.43
   3   6    -0.23   0.13   0.01    -0.02   0.09  -0.04     0.16   0.06   0.11
   4   6    -0.04  -0.41   0.11    -0.06  -0.29   0.10    -0.05  -0.13   0.03
   5   6     0.09   0.14  -0.07    -0.05   0.03   0.01    -0.07  -0.02   0.01
   6   6     0.09   0.31  -0.08     0.02   0.19  -0.04     0.01  -0.02  -0.03
   7   6    -0.02  -0.01  -0.00    -0.06   0.03   0.02    -0.01   0.00  -0.01
   8   6    -0.01   0.10  -0.02     0.01   0.07  -0.02    -0.01   0.04  -0.00
   9   6    -0.11  -0.07   0.05    -0.02  -0.01   0.01    -0.01  -0.01   0.00
  10   6     0.11  -0.02  -0.04     0.05  -0.00  -0.01     0.02   0.00  -0.01
  11   6     0.03   0.05  -0.00     0.02  -0.03   0.00    -0.01  -0.00   0.00
  12   6    -0.11  -0.20   0.08    -0.04  -0.08   0.03    -0.00  -0.01   0.01
  13  17     0.01  -0.00   0.00     0.00   0.00   0.00    -0.00  -0.00   0.00
  14   1     0.18   0.18   0.32    -0.08  -0.03  -0.14    -0.13  -0.07  -0.35
  15   1    -0.16   0.00  -0.08    -0.09  -0.04  -0.16     0.14   0.02  -0.06
  16   1    -0.08   0.07   0.01    -0.01   0.00  -0.04     0.37   0.12   0.26
  17   1     0.00  -0.06  -0.07     0.24  -0.03   0.10     0.37  -0.18  -0.05
  18   1    -0.10  -0.02  -0.06     0.06   0.04   0.10    -0.21  -0.00   0.05
  19   1    -0.03  -0.11   0.05    -0.05  -0.09   0.03    -0.06  -0.04   0.04
  20   1    -0.09   0.17  -0.01    -0.14   0.14   0.01    -0.07   0.06   0.03
  21   1     0.01   0.08  -0.06    -0.05   0.11  -0.03     0.00   0.02   0.04
  22   1    -0.05   0.00   0.01    -0.01   0.00   0.01    -0.00   0.00   0.00
  23   1     0.05   0.03  -0.00     0.02   0.02  -0.02     0.01   0.00  -0.00
  24   1     0.05   0.01  -0.05     0.03  -0.01  -0.01    -0.01  -0.00   0.00
  25   1     0.01  -0.10   0.03    -0.00  -0.03   0.01    -0.00   0.00   0.00
                     34                     35                     36
                        a                      a                      a 
 Frequencies --  1036.9876              1082.1769              1142.6153
 Red. masses --     5.5711                 6.4444                 5.5107
 Frc consts  --     0.0000                 0.0000                 0.0000
 IR Inten    --    19.8422                 0.2868                 0.8962
 Raman Activ --     0.0000                 0.0000                 0.0000
 Depolar     --     0.0000                 0.0000                 0.0000
 Atom AN      X      Y      Z        X      Y      Z        X      Y      Z
   1   7    -0.07   0.24   0.06     0.01  -0.01   0.00     0.01  -0.00  -0.01
   2   6     0.05  -0.44  -0.05    -0.02   0.02   0.00    -0.04   0.04   0.01
   3   6    -0.04   0.05   0.05     0.01  -0.02  -0.00     0.03  -0.03  -0.01
   4   6    -0.00  -0.14   0.02     0.02   0.01  -0.01    -0.05  -0.08   0.03
   5   6     0.03   0.04  -0.02     0.02  -0.01  -0.00     0.11   0.14  -0.06
   6   6    -0.02   0.28  -0.05     0.01  -0.04   0.01     0.19   0.12  -0.08
   7   6    -0.13   0.03   0.02     0.02   0.08  -0.02    -0.12  -0.18   0.08
   8   6     0.01   0.01  -0.00    -0.09  -0.00   0.03    -0.21  -0.15   0.09
   9   6     0.04   0.03  -0.02     0.07   0.21  -0.07     0.17   0.19  -0.09
  10   6     0.02   0.00  -0.01     0.41   0.03  -0.12    -0.05  -0.06   0.03
  11   6     0.04  -0.08   0.01    -0.08  -0.41   0.12    -0.07  -0.03   0.03
  12   6    -0.02  -0.03   0.02    -0.21  -0.04   0.06     0.23   0.15  -0.10
  13  17    -0.01  -0.00  -0.01    -0.00   0.00  -0.00     0.00  -0.00   0.00
  14   1    -0.14  -0.20  -0.19     0.01   0.01   0.01     0.01   0.01   0.01
  15   1     0.29   0.04   0.27    -0.01  -0.00  -0.01    -0.01  -0.00  -0.01
  16   1     0.04  -0.14  -0.04    -0.01   0.00  -0.00    -0.01   0.00  -0.01
  17   1    -0.14   0.15   0.03    -0.01  -0.00  -0.00    -0.00   0.01   0.01
  18   1     0.43  -0.10  -0.14    -0.02   0.00   0.01    -0.04   0.01   0.01
  19   1     0.02  -0.03   0.01    -0.01   0.00   0.00    -0.36  -0.09   0.12
  20   1    -0.07   0.10  -0.00     0.03  -0.03  -0.00     0.12  -0.06  -0.02
  21   1    -0.10   0.18  -0.03     0.01  -0.02   0.00     0.01   0.08  -0.03
  22   1     0.00   0.01  -0.01    -0.24   0.36  -0.02    -0.08   0.20  -0.02
  23   1     0.01   0.02  -0.01     0.17   0.15  -0.08    -0.12  -0.37   0.12
  24   1     0.02  -0.02   0.00    -0.18  -0.15   0.09    -0.37  -0.07   0.12
  25   1     0.00  -0.02   0.01    -0.33   0.29   0.04     0.19  -0.10  -0.04
                     37                     38                     39
                        a                      a                      a 
 Frequencies --  1171.9281              1176.0314              1182.2756
 Red. masses --     2.7595                 1.9263                 3.0537
 Frc consts  --     0.0000                 0.0000                 0.0000
 IR Inten    --     1.3662                 2.2294                 2.3325
 Raman Activ --     0.0000                 0.0000                 0.0000
 Depolar     --     0.0000                 0.0000                 0.0000
 Atom AN      X      Y      Z        X      Y      Z        X      Y      Z
   1   7     0.02  -0.01   0.01     0.01  -0.01   0.01     0.02   0.01   0.00
   2   6    -0.10   0.04   0.03    -0.05   0.03   0.01    -0.14   0.06   0.05
   3   6     0.16  -0.02  -0.05     0.09  -0.07  -0.02     0.26  -0.07  -0.08
   4   6     0.13  -0.03  -0.03    -0.01  -0.02   0.01    -0.01  -0.08   0.02
   5   6    -0.12  -0.00   0.03     0.01   0.03  -0.01    -0.03  -0.04   0.02
   6   6    -0.01  -0.13   0.03    -0.02   0.05  -0.00     0.07  -0.02  -0.01
   7   6     0.09  -0.16   0.01     0.12  -0.06  -0.02     0.05  -0.21   0.04
   8   6     0.08   0.01  -0.02    -0.01  -0.11   0.03     0.05   0.01  -0.02
   9   6    -0.07   0.07   0.00    -0.02  -0.07   0.02    -0.02  -0.02   0.01
  10   6    -0.03  -0.08   0.03    -0.05  -0.04   0.02     0.00   0.06  -0.02
  11   6    -0.02   0.06  -0.01     0.10   0.07  -0.04    -0.01   0.06  -0.01
  12   6     0.08   0.05  -0.03     0.01   0.06  -0.02    -0.01   0.08  -0.02
  13  17     0.00  -0.00  -0.00     0.00  -0.00  -0.00     0.00  -0.00  -0.00
  14   1     0.01   0.01   0.02     0.00   0.00   0.00     0.01   0.00   0.03
  15   1    -0.02  -0.00  -0.00    -0.01  -0.00  -0.01    -0.02   0.00   0.00
  16   1    -0.02   0.00  -0.00    -0.01  -0.00  -0.00    -0.03  -0.01  -0.02
  17   1    -0.09   0.01  -0.02    -0.05   0.01  -0.01    -0.11   0.04  -0.00
  18   1    -0.04   0.01   0.01    -0.04   0.01   0.02    -0.11   0.02   0.01
  19   1     0.43   0.06  -0.14    -0.24  -0.05   0.08    -0.19  -0.06   0.07
  20   1    -0.43   0.45   0.02     0.03  -0.03  -0.00    -0.04   0.02   0.01
  21   1    -0.17   0.15   0.01    -0.23   0.26  -0.00    -0.35   0.40  -0.00
  22   1    -0.21   0.23   0.00    -0.11   0.09   0.01     0.25  -0.29  -0.00
  23   1    -0.07  -0.22   0.07    -0.11  -0.31   0.10     0.12   0.40  -0.13
  24   1    -0.15  -0.01   0.05     0.51   0.11  -0.17    -0.29  -0.04   0.09
  25   1     0.05  -0.01  -0.01    -0.34   0.41   0.01    -0.07   0.10  -0.00
                     40                     41                     42
                        a                      a                      a 
 Frequencies --  1212.3552              1226.6451              1252.5762
 Red. masses --     3.4033                 5.7347                 6.5950
 Frc consts  --     0.0000                 0.0000                 0.0000
 IR Inten    --    11.8638                 0.5649                 1.1888
 Raman Activ --     0.0000                 0.0000                 0.0000
 Depolar     --     0.0000                 0.0000                 0.0000
 Atom AN      X      Y      Z        X      Y      Z        X      Y      Z
   1   7    -0.07  -0.23   0.15    -0.02  -0.05   0.04     0.00   0.02  -0.04
   2   6     0.12   0.18  -0.14     0.03   0.04  -0.03     0.08  -0.05  -0.04
   3   6    -0.17  -0.07   0.06    -0.01  -0.05   0.01    -0.34   0.03   0.11
   4   6    -0.01   0.02  -0.01     0.03   0.17  -0.05     0.04   0.08  -0.03
   5   6     0.00   0.06  -0.02     0.08   0.05  -0.04     0.07   0.21  -0.07
   6   6     0.01   0.05  -0.01    -0.09   0.09   0.00    -0.05   0.07  -0.00
   7   6     0.04  -0.07   0.00     0.02   0.00  -0.01     0.04  -0.39   0.08
   8   6    -0.05   0.03   0.01     0.36  -0.41  -0.00    -0.04  -0.29   0.08
   9   6     0.00   0.04  -0.01    -0.05  -0.08   0.03    -0.01   0.07  -0.01
  10   6     0.02  -0.01  -0.00    -0.17  -0.03   0.05    -0.05   0.01   0.01
  11   6     0.02   0.02  -0.01     0.02  -0.01  -0.01     0.12   0.10  -0.06
  12   6     0.01   0.01  -0.00    -0.07   0.10  -0.00     0.06   0.10  -0.04
  13  17     0.00  -0.00   0.00    -0.00   0.00   0.00    -0.00   0.00  -0.00
  14   1     0.00   0.08  -0.09    -0.00   0.01  -0.03     0.01   0.00   0.02
  15   1    -0.08  -0.05  -0.21    -0.02  -0.01  -0.05     0.03   0.00   0.03
  16   1     0.13   0.12   0.16     0.03   0.04   0.04     0.00  -0.01  -0.02
  17   1    -0.40  -0.15  -0.28    -0.13  -0.02  -0.07     0.27  -0.04   0.07
  18   1     0.47   0.01   0.32     0.09   0.00   0.07     0.03  -0.01  -0.04
  19   1     0.16   0.04  -0.05    -0.38  -0.02   0.11     0.12   0.05  -0.05
  20   1     0.11  -0.11  -0.00    -0.16   0.23  -0.01    -0.08   0.17  -0.02
  21   1    -0.08   0.10  -0.01     0.09  -0.10  -0.00     0.16  -0.18   0.00
  22   1     0.06  -0.06  -0.00    -0.25   0.23   0.02     0.18  -0.19  -0.01
  23   1    -0.01  -0.04   0.01     0.06   0.34  -0.10    -0.00   0.05  -0.01
  24   1    -0.08  -0.01   0.02     0.06   0.01  -0.02    -0.17  -0.01   0.05
  25   1    -0.03   0.04  -0.00     0.11  -0.12  -0.01    -0.27   0.35  -0.00
                     43                     44                     45
                        a                      a                      a 
 Frequencies --  1257.7611              1315.7292              1336.3973
 Red. masses --     6.0249                 4.5726                 6.6301
 Frc consts  --     0.0000                 0.0000                 0.0000
 IR Inten    --     6.7898                29.4484                 2.5114
 Raman Activ --     0.0000                 0.0000                 0.0000
 Depolar     --     0.0000                 0.0000                 0.0000
 Atom AN      X      Y      Z        X      Y      Z        X      Y      Z
   1   7     0.01   0.04  -0.04    -0.04   0.11   0.15     0.02   0.07   0.06
   2   6     0.07  -0.06  -0.04     0.42  -0.09   0.07     0.15   0.02   0.01
   3   6    -0.30  -0.04   0.12    -0.09   0.07  -0.05    -0.14  -0.16   0.06
   4   6    -0.05   0.04   0.01     0.05  -0.03  -0.00    -0.19   0.00   0.06
   5   6    -0.02   0.06  -0.01    -0.04  -0.02   0.02     0.08   0.22  -0.07
   6   6    -0.19   0.01   0.05    -0.13   0.05   0.03     0.28  -0.07  -0.06
   7   6     0.38  -0.08  -0.09     0.12  -0.04  -0.02    -0.21  -0.08   0.08
   8   6     0.28   0.05  -0.09     0.06   0.02  -0.02    -0.10  -0.13   0.06
   9   6    -0.14   0.02   0.04    -0.10   0.05   0.02     0.23  -0.07  -0.05
  10   6    -0.06  -0.08   0.04     0.01   0.01  -0.00    -0.06  -0.09   0.04
  11   6     0.02   0.09  -0.03     0.07   0.05  -0.03    -0.14  -0.06   0.05
  12   6    -0.01  -0.04   0.01     0.01  -0.08   0.01    -0.02   0.23  -0.05
  13  17     0.00  -0.00  -0.00    -0.00   0.00   0.00     0.00  -0.00   0.00
  14   1     0.00  -0.01   0.02    -0.08  -0.09  -0.13    -0.04  -0.08  -0.05
  15   1     0.03   0.01   0.03     0.03   0.04  -0.09    -0.03   0.02  -0.05
  16   1    -0.01  -0.04  -0.03     0.03  -0.11  -0.01    -0.01  -0.07  -0.03
  17   1     0.28  -0.02   0.09    -0.49  -0.01  -0.20    -0.05  -0.04  -0.05
  18   1    -0.01  -0.01  -0.03    -0.48   0.00  -0.24    -0.26   0.01  -0.10
  19   1     0.08   0.03  -0.03    -0.06  -0.03   0.02     0.33   0.08  -0.12
  20   1     0.28  -0.29  -0.01     0.01  -0.03   0.00     0.11  -0.04  -0.02
  21   1    -0.28   0.25   0.02     0.05  -0.09   0.00    -0.10   0.18  -0.02
  22   1    -0.22   0.20   0.01     0.02  -0.04   0.00    -0.06   0.12  -0.01
  23   1    -0.01   0.00   0.00    -0.03  -0.10   0.03     0.07   0.26  -0.08
  24   1    -0.19  -0.01   0.06    -0.14  -0.02   0.04     0.28   0.05  -0.09
  25   1     0.09  -0.10  -0.00    -0.06   0.05   0.01     0.10  -0.06  -0.02
                     46                     47                     48
                        a                      a                      a 
 Frequencies --  1373.7063              1376.0138              1411.2526
 Red. masses --    10.4976                 2.5917                 3.0275
 Frc consts  --     0.0000                 0.0000                 0.0000
 IR Inten    --     0.5923               142.6844                53.9284
 Raman Activ --     0.0000                 0.0000                 0.0000
 Depolar     --     0.0000                 0.0000                 0.0000
 Atom AN      X      Y      Z        X      Y      Z        X      Y      Z
   1   7     0.01  -0.01  -0.02    -0.22  -0.17  -0.16     0.09  -0.03  -0.15
   2   6    -0.06   0.03   0.01     0.10  -0.03   0.02     0.05  -0.01  -0.01
   3   6     0.12  -0.26   0.03    -0.01   0.01  -0.02     0.07   0.12  -0.05
   4   6     0.27  -0.08  -0.06    -0.03  -0.02   0.02    -0.09  -0.07   0.04
   5   6    -0.30   0.15   0.05     0.00   0.02  -0.01    -0.01  -0.00   0.00
   6   6    -0.07   0.24  -0.04     0.02  -0.01  -0.00    -0.00  -0.01   0.00
   7   6     0.04  -0.11   0.01    -0.02  -0.03   0.02    -0.11  -0.15   0.07
   8   6     0.02  -0.04   0.00     0.01   0.01  -0.01     0.12   0.14  -0.07
   9   6    -0.14   0.36  -0.05     0.02  -0.01  -0.00     0.02  -0.01  -0.00
  10   6     0.10  -0.29   0.04    -0.02  -0.02   0.01    -0.07  -0.10   0.05
  11   6     0.20  -0.13  -0.02    -0.01   0.01   0.00     0.07   0.07  -0.04
  12   6    -0.34   0.28   0.03     0.00   0.03  -0.01     0.02   0.01  -0.01
  13  17     0.00   0.00  -0.00    -0.01  -0.00  -0.00     0.01   0.00  -0.01
  14   1     0.00  -0.00  -0.00     0.18   0.50   0.17    -0.09  -0.30  -0.00
  15   1    -0.03  -0.00   0.04     0.54  -0.06   0.33    -0.42  -0.04   0.51
  16   1    -0.01   0.04   0.01     0.12   0.28   0.16     0.07   0.43   0.19
  17   1     0.01   0.01   0.01    -0.11   0.04  -0.02    -0.09   0.01  -0.04
  18   1    -0.07   0.01   0.01    -0.15  -0.00  -0.02    -0.01  -0.00  -0.01
  19   1     0.04  -0.04  -0.00     0.03   0.00  -0.02     0.03  -0.01  -0.01
  20   1     0.04  -0.10   0.01     0.02  -0.02  -0.01     0.07  -0.08  -0.01
  21   1     0.08  -0.04  -0.01    -0.01   0.01  -0.00     0.06  -0.07   0.00
  22   1     0.14  -0.10  -0.02    -0.02   0.03  -0.00    -0.07   0.09  -0.00
  23   1     0.04  -0.05   0.00     0.01   0.04  -0.01     0.00   0.05  -0.01
  24   1     0.16  -0.02  -0.04     0.03   0.01  -0.00    -0.03   0.01   0.01
  25   1     0.12  -0.17   0.00     0.00   0.01   0.00    -0.06   0.08   0.00
                     49                     50                     51
                        a                      a                      a 
 Frequencies --  1414.3938              1427.4131              1448.5784
 Red. masses --     9.2081                 9.5108                 2.8933
 Frc consts  --     0.0000                 0.0000                 0.0000
 IR Inten    --    18.6274                 5.1930                77.6159
 Raman Activ --     0.0000                 0.0000                 0.0000
 Depolar     --     0.0000                 0.0000                 0.0000
 Atom AN      X      Y      Z        X      Y      Z        X      Y      Z
   1   7     0.03  -0.01  -0.08    -0.01   0.00   0.03    -0.15   0.11  -0.15
   2   6     0.07  -0.00  -0.02    -0.07  -0.02   0.03     0.04   0.00  -0.03
   3   6    -0.13  -0.19   0.08     0.19   0.16  -0.09    -0.09   0.11  -0.01
   4   6     0.19   0.06  -0.07     0.15  -0.22   0.01     0.05   0.02  -0.02
   5   6    -0.05   0.09  -0.01    -0.27   0.17   0.04     0.04  -0.09   0.01
   6   6    -0.10   0.08   0.01    -0.25   0.13   0.04     0.00  -0.08   0.02
   7   6     0.35   0.29  -0.17     0.26  -0.16  -0.03     0.07  -0.11   0.01
   8   6    -0.33  -0.30   0.17    -0.26   0.09   0.05    -0.06   0.09  -0.01
   9   6     0.09  -0.09  -0.00     0.30  -0.15  -0.05    -0.01   0.06  -0.01
  10   6     0.08   0.21  -0.07    -0.12  -0.17   0.08     0.05  -0.06  -0.00
  11   6    -0.22  -0.06   0.08    -0.18   0.17   0.01    -0.10  -0.03   0.03
  12   6     0.08  -0.10   0.00     0.19  -0.04  -0.04    -0.01   0.10  -0.02
  13  17     0.00  -0.00  -0.00    -0.00   0.00   0.00    -0.00   0.00   0.00
  14   1    -0.03  -0.11   0.01     0.01   0.05  -0.02    -0.00  -0.26   0.57
  15   1    -0.15  -0.02   0.25     0.05   0.01  -0.10    -0.01   0.02  -0.05
  16   1     0.04   0.21   0.09    -0.03  -0.07  -0.04     0.58  -0.26   0.09
  17   1    -0.00  -0.00  -0.01    -0.04   0.01   0.00    -0.04   0.05  -0.00
  18   1    -0.09  -0.00  -0.00     0.08  -0.00  -0.00     0.01  -0.00   0.08
  19   1    -0.01   0.00  -0.00     0.03  -0.07   0.01    -0.08  -0.01   0.02
  20   1    -0.10   0.11  -0.00     0.06  -0.11   0.01    -0.04   0.04   0.00
  21   1    -0.11   0.12   0.01     0.12  -0.17   0.01    -0.02   0.00   0.01
  22   1     0.10  -0.11  -0.00    -0.11   0.17  -0.01     0.02  -0.01  -0.00
  23   1    -0.00  -0.03   0.01     0.06   0.26  -0.08     0.03   0.02  -0.01
  24   1     0.02  -0.00  -0.00     0.04   0.07  -0.03     0.09   0.02  -0.03
  25   1     0.10  -0.10  -0.00    -0.01   0.07  -0.01     0.05  -0.03  -0.01
                     52                     53                     54
                        a                      a                      a 
 Frequencies --  1454.0573              1483.4862              1511.2727
 Red. masses --     8.7882                 2.0672                10.7499
 Frc consts  --     0.0000                 0.0000                 0.0000
 IR Inten    --     4.1943                13.9822                 0.7767
 Raman Activ --     0.0000                 0.0000                 0.0000
 Depolar     --     0.0000                 0.0000                 0.0000
 Atom AN      X      Y      Z        X      Y      Z        X      Y      Z
   1   7     0.06  -0.04   0.06     0.03  -0.01   0.02    -0.01   0.00  -0.00
   2   6     0.07  -0.05   0.00     0.12  -0.16  -0.22    -0.04  -0.02   0.02
   3   6    -0.25   0.28   0.01    -0.06   0.02   0.00     0.25   0.27  -0.14
   4   6     0.09   0.08  -0.04    -0.00   0.00  -0.00    -0.33  -0.17   0.14
   5   6     0.15  -0.26   0.02     0.02  -0.02  -0.00     0.00   0.23  -0.06
   6   6     0.00  -0.20   0.05     0.00  -0.00   0.00    -0.15  -0.03   0.05
   7   6     0.19  -0.29   0.02     0.01  -0.03   0.00     0.16  -0.16  -0.01
   8   6    -0.13   0.23  -0.02    -0.01   0.03  -0.00     0.21  -0.28   0.01
   9   6    -0.04   0.15  -0.02     0.00   0.01  -0.00    -0.19  -0.01   0.06
  10   6     0.15  -0.12  -0.01     0.00  -0.02   0.00     0.18   0.30  -0.12
  11   6    -0.26  -0.07   0.09    -0.02   0.00   0.00    -0.24  -0.17   0.11
  12   6    -0.03   0.25  -0.05     0.01   0.01  -0.00    -0.01   0.18  -0.04
  13  17     0.00   0.00  -0.00     0.00   0.00   0.00     0.00  -0.00   0.00
  14   1    -0.00   0.08  -0.22    -0.01   0.01  -0.09    -0.00  -0.00   0.00
  15   1    -0.01  -0.01   0.05    -0.03  -0.00  -0.04    -0.00  -0.00  -0.01
  16   1    -0.20   0.12  -0.02    -0.09   0.00  -0.03     0.00  -0.01  -0.00
  17   1     0.02  -0.07  -0.02    -0.06   0.62   0.22    -0.05   0.03   0.00
  18   1     0.08  -0.01  -0.09    -0.22  -0.07   0.63     0.05  -0.00   0.01
  19   1    -0.21  -0.02   0.06     0.01   0.00  -0.00     0.14  -0.00  -0.04
  20   1    -0.12   0.11   0.01    -0.00   0.01  -0.00     0.12  -0.06  -0.02
  21   1    -0.07   0.01   0.02     0.01  -0.02   0.00     0.04  -0.09   0.01
  22   1     0.06  -0.03  -0.01     0.00   0.00  -0.00     0.05  -0.12   0.01
  23   1     0.06   0.02  -0.02     0.01   0.01  -0.01    -0.02  -0.13   0.04
  24   1     0.22   0.03  -0.07     0.01   0.00  -0.01     0.09  -0.02  -0.02
  25   1     0.13  -0.08  -0.02     0.00   0.00  -0.00     0.09  -0.06  -0.01
                     55                     56                     57
                        a                      a                      a 
 Frequencies --  1575.6721              1605.2149              1611.6903
 Red. masses --    11.6915                11.5377                11.4093
 Frc consts  --     0.0000                 0.0000                 0.0000
 IR Inten    --     2.1917                 1.5038                 0.5324
 Raman Activ --     0.0000                 0.0000                 0.0000
 Depolar     --     0.0000                 0.0000                 0.0000
 Atom AN      X      Y      Z        X      Y      Z        X      Y      Z
   1   7    -0.00   0.00  -0.00     0.01   0.00   0.01    -0.00  -0.00  -0.00
   2   6     0.00   0.03  -0.00     0.01  -0.04  -0.01    -0.01   0.02   0.00
   3   6    -0.07  -0.33   0.10    -0.18   0.34  -0.03     0.08  -0.12   0.01
   4   6     0.27   0.07  -0.09     0.39  -0.11  -0.08    -0.15   0.04   0.03
   5   6    -0.17  -0.02   0.05    -0.39   0.27   0.04     0.12  -0.04  -0.02
   6   6    -0.03   0.25  -0.05     0.26  -0.39   0.02    -0.05   0.11  -0.01
   7   6    -0.23  -0.26   0.13    -0.22   0.17   0.02    -0.06   0.15  -0.02
   8   6     0.26   0.24  -0.13     0.18  -0.19  -0.01     0.12  -0.11  -0.01
   9   6    -0.04  -0.20   0.06    -0.08   0.07   0.01    -0.24   0.43  -0.04
  10   6     0.13   0.31  -0.11     0.03  -0.03  -0.00     0.10  -0.40   0.07
  11   6    -0.35  -0.08   0.12    -0.08   0.02   0.02    -0.37   0.15   0.07
  12   6     0.22   0.01  -0.06     0.10  -0.09  -0.01     0.39  -0.28  -0.04
  13  17     0.00   0.00   0.00     0.00  -0.00  -0.00    -0.00  -0.00  -0.00
  14   1     0.00   0.00   0.00     0.00  -0.00  -0.01     0.00   0.00   0.00
  15   1     0.00   0.00  -0.00    -0.00  -0.00   0.01     0.00  -0.00  -0.00
  16   1     0.00  -0.00  -0.00    -0.00   0.01   0.00     0.00  -0.00  -0.00
  17   1     0.03  -0.01   0.00    -0.00   0.01   0.00     0.00  -0.01  -0.00
  18   1    -0.05   0.00   0.00     0.05  -0.01   0.00    -0.02   0.00  -0.00
  19   1    -0.04  -0.01   0.01    -0.08  -0.06   0.04     0.04   0.03  -0.02
  20   1     0.00  -0.05   0.01     0.04  -0.10   0.01     0.01   0.02  -0.01
  21   1     0.07  -0.02  -0.02    -0.09   0.07   0.01     0.02  -0.00  -0.00
  22   1    -0.05   0.00   0.01     0.02  -0.03   0.00     0.09  -0.05  -0.01
  23   1    -0.01  -0.06   0.02     0.01   0.00  -0.00     0.08   0.08  -0.04
  24   1     0.06   0.01  -0.02     0.01   0.01  -0.01     0.08   0.08  -0.04
  25   1     0.01   0.06  -0.02    -0.02   0.03  -0.00    -0.04   0.09  -0.01
                     58                     59                     60
                        a                      a                      a 
 Frequencies --  2863.4992              2952.7518              2978.5441
 Red. masses --     1.9859                 1.9712                 1.5048
 Frc consts  --     0.0000                 0.0000                 0.0000
 IR Inten    --  1249.7975                 1.2977                 7.4171
 Raman Activ --     0.0000                 0.0000                 0.0000
 Depolar     --     0.0000                 0.0000                 0.0000
 Atom AN      X      Y      Z        X      Y      Z        X      Y      Z
   1   7    -0.01   0.27   0.01     0.00  -0.03  -0.00     0.00   0.02   0.00
   2   6     0.00  -0.03   0.01    -0.06  -0.25   0.14    -0.06   0.10   0.18
   3   6     0.00  -0.00   0.00    -0.00  -0.01   0.00    -0.01   0.00   0.00
   4   6     0.00   0.00  -0.00    -0.00   0.00  -0.00     0.00  -0.00   0.00
   5   6    -0.00  -0.00   0.00     0.00  -0.00   0.00     0.00   0.00  -0.00
   6   6    -0.00  -0.00   0.00     0.00   0.00  -0.00     0.00  -0.00  -0.00
   7   6     0.00  -0.00   0.00    -0.00   0.00   0.00    -0.00   0.00  -0.00
   8   6     0.00  -0.00  -0.00     0.00   0.00  -0.00     0.00  -0.00  -0.00
   9   6    -0.00   0.00   0.00     0.00   0.00  -0.00    -0.00   0.00   0.00
  10   6    -0.00  -0.00   0.00     0.00   0.00  -0.00     0.00  -0.00   0.00
  11   6     0.00   0.00  -0.00    -0.00  -0.00   0.00     0.00   0.00  -0.00
  12   6    -0.00   0.00   0.00     0.00  -0.00  -0.00     0.00  -0.00  -0.00
  13  17     0.00  -0.01   0.00    -0.00   0.00  -0.00     0.00  -0.00  -0.00
  14   1     0.02   0.01  -0.01    -0.00   0.00   0.00     0.00   0.00   0.00
  15   1    -0.01  -0.95  -0.07     0.00   0.08   0.01     0.00  -0.06  -0.00
  16   1    -0.01   0.01   0.03    -0.00  -0.00   0.01    -0.01  -0.01   0.02
  17   1     0.00  -0.00  -0.01     0.21   0.22  -0.56     0.23   0.29  -0.62
  18   1    -0.01   0.10   0.00    -0.01   0.70   0.07    -0.01  -0.65  -0.02
  19   1     0.00  -0.00   0.00     0.00  -0.01   0.00    -0.00   0.01  -0.00
  20   1     0.00   0.00  -0.00     0.00   0.00   0.00    -0.00  -0.00   0.00
  21   1     0.00   0.00  -0.00    -0.01  -0.00   0.00    -0.00  -0.00   0.00
  22   1     0.00   0.00  -0.00    -0.00  -0.00   0.00    -0.00  -0.00   0.00
  23   1     0.00  -0.00  -0.00    -0.00   0.00   0.00     0.00   0.00   0.00
  24   1     0.00  -0.00   0.00    -0.00   0.00  -0.00     0.00  -0.00   0.00
  25   1    -0.00  -0.00  -0.00    -0.00  -0.00  -0.00    -0.00  -0.00  -0.00
                     61                     62                     63
                        a                      a                      a 
 Frequencies --  3092.1266              3095.4430              3100.4996
 Red. masses --     1.7602                 1.7762                 1.8167
 Frc consts  --     0.0000                 0.0000                 0.0000
 IR Inten    --     9.4492                36.0009                23.1715
 Raman Activ --     0.0000                 0.0000                 0.0000
 Depolar     --     0.0000                 0.0000                 0.0000
 Atom AN      X      Y      Z        X      Y      Z        X      Y      Z
   1   7     0.00   0.00   0.00     0.00  -0.00  -0.00     0.00   0.00  -0.00
   2   6    -0.00   0.00  -0.00    -0.00   0.00  -0.00    -0.00   0.00  -0.00
   3   6    -0.00   0.00  -0.00    -0.01   0.01   0.00    -0.00   0.00  -0.00
   4   6    -0.00   0.02  -0.00    -0.06   0.22  -0.04    -0.01   0.04  -0.01
   5   6    -0.01  -0.01   0.01    -0.09  -0.07   0.04     0.00   0.00  -0.00
   6   6    -0.00  -0.00   0.00     0.00  -0.00  -0.00    -0.00  -0.00   0.00
   7   6     0.00   0.00  -0.00     0.00  -0.00  -0.00     0.00   0.00  -0.00
   8   6     0.00   0.00  -0.00    -0.00  -0.00   0.00    -0.00  -0.00   0.00
   9   6     0.05   0.05  -0.03     0.01   0.01  -0.01    -0.09  -0.08   0.04
  10   6    -0.19   0.07   0.04     0.01  -0.00  -0.00     0.10  -0.04  -0.02
  11   6     0.03  -0.14   0.02    -0.01   0.03  -0.01     0.05  -0.19   0.03
  12   6     0.02   0.02  -0.01    -0.01  -0.01   0.00     0.05   0.04  -0.02
  13  17     0.00   0.00   0.00     0.00   0.00   0.00     0.00   0.00   0.00
  14   1    -0.00   0.00   0.00     0.00   0.00   0.00     0.00   0.00  -0.00
  15   1    -0.00  -0.00  -0.00    -0.00   0.00  -0.00     0.00  -0.00  -0.00
  16   1     0.00   0.00   0.00     0.00   0.00   0.00    -0.00  -0.00   0.00
  17   1    -0.00  -0.00   0.00    -0.00  -0.00   0.00    -0.00  -0.00   0.00
  18   1     0.00  -0.00  -0.00     0.00  -0.01  -0.00     0.00  -0.00  -0.00
  19   1     0.02  -0.07   0.01     0.20  -0.80   0.14     0.03  -0.13   0.02
  20   1     0.05   0.04  -0.02     0.32   0.29  -0.16    -0.01  -0.01   0.00
  21   1     0.00   0.00  -0.00    -0.01  -0.00   0.00     0.01   0.01  -0.01
  22   1    -0.21  -0.19   0.11    -0.04  -0.03   0.02     0.32   0.29  -0.16
  23   1     0.68  -0.25  -0.13    -0.04   0.02   0.01    -0.34   0.13   0.07
  24   1    -0.12   0.51  -0.08     0.03  -0.12   0.02    -0.17   0.67  -0.11
  25   1    -0.08  -0.07   0.04     0.03   0.02  -0.01    -0.19  -0.17   0.09
                     64                     65                     66
                        a                      a                      a 
 Frequencies --  3109.0928              3113.0237              3118.0483
 Red. masses --     1.8841                 1.8688                 1.8815
 Frc consts  --     0.0000                 0.0000                 0.0000
 IR Inten    --    36.2978                94.3987                10.1429
 Raman Activ --     0.0000                 0.0000                 0.0000
 Depolar     --     0.0000                 0.0000                 0.0000
 Atom AN      X      Y      Z        X      Y      Z        X      Y      Z
   1   7    -0.00  -0.00   0.00    -0.00   0.00  -0.00    -0.00  -0.00   0.00
   2   6    -0.00  -0.00   0.00     0.00   0.00  -0.00     0.00  -0.00   0.00
   3   6     0.00  -0.00  -0.00    -0.00   0.00   0.00    -0.00   0.00   0.00
   4   6     0.02  -0.09   0.02    -0.02   0.09  -0.02     0.00  -0.01   0.00
   5   6    -0.11  -0.10   0.06     0.13   0.11  -0.06    -0.01  -0.01   0.01
   6   6    -0.00  -0.00   0.00    -0.01  -0.01   0.00    -0.04  -0.04   0.02
   7   6     0.00  -0.00  -0.00    -0.00  -0.00   0.00     0.01  -0.00  -0.00
   8   6    -0.01   0.01   0.00     0.01   0.00  -0.00    -0.00  -0.00   0.00
   9   6     0.11   0.10  -0.06     0.11   0.10  -0.06    -0.02  -0.02   0.01
  10   6     0.11  -0.04  -0.02     0.08  -0.03  -0.02    -0.04   0.01   0.01
  11   6     0.01  -0.05   0.01     0.00  -0.02   0.00    -0.03   0.10  -0.02
  12   6     0.03   0.02  -0.01     0.04   0.03  -0.02     0.18   0.15  -0.09
  13  17     0.00  -0.00  -0.00     0.00   0.00   0.00     0.00  -0.00   0.00
  14   1    -0.00  -0.00   0.00     0.00  -0.00  -0.00    -0.00  -0.00   0.00
  15   1    -0.00   0.00   0.00    -0.00  -0.00  -0.00     0.00   0.00   0.00
  16   1     0.00   0.00  -0.00    -0.00  -0.00   0.00     0.00   0.00  -0.00
  17   1     0.00   0.00  -0.00    -0.00  -0.00   0.00     0.00   0.00  -0.00
  18   1    -0.00   0.00   0.00     0.00  -0.00  -0.00    -0.00   0.00  -0.00
  19   1    -0.08   0.32  -0.06     0.07  -0.30   0.05    -0.01   0.03  -0.01
  20   1     0.39   0.35  -0.20    -0.43  -0.39   0.22     0.05   0.04  -0.02
  21   1     0.01   0.01  -0.00     0.03   0.03  -0.02     0.14   0.13  -0.07
  22   1    -0.38  -0.34   0.19    -0.39  -0.35   0.19     0.08   0.07  -0.04
  23   1    -0.36   0.13   0.07    -0.26   0.09   0.05     0.13  -0.05  -0.03
  24   1    -0.04   0.17  -0.03    -0.02   0.07  -0.01     0.08  -0.31   0.05
  25   1    -0.10  -0.09   0.05    -0.14  -0.12   0.07    -0.60  -0.54   0.30
                     67                     68                     69
                        a                      a                      a 
 Frequencies --  3123.7545              3180.1825              3207.4546
 Red. masses --     1.8456                 1.8180                 1.7105
 Frc consts  --     0.0000                 0.0000                 0.0000
 IR Inten    --     3.4251                21.1271                34.0173
 Raman Activ --     0.0000                 0.0000                 0.0000
 Depolar     --     0.0000                 0.0000                 0.0000
 Atom AN      X      Y      Z        X      Y      Z        X      Y      Z
   1   7     0.00   0.00  -0.00    -0.23   0.06   0.06    -0.06  -0.09   0.21
   2   6    -0.00   0.00  -0.00    -0.00   0.00   0.00     0.00  -0.00   0.01
   3   6     0.01  -0.00  -0.00    -0.00  -0.00  -0.00     0.00  -0.00  -0.00
   4   6    -0.00  -0.00   0.00     0.00  -0.00  -0.00    -0.00   0.00  -0.00
   5   6     0.00   0.00  -0.00    -0.00  -0.00   0.00     0.00   0.00  -0.00
   6   6     0.19   0.17  -0.09     0.00   0.00  -0.00     0.00   0.00  -0.00
   7   6     0.00   0.01  -0.00     0.00   0.00   0.00     0.00   0.00  -0.00
   8   6    -0.00  -0.00   0.00     0.00  -0.00  -0.00     0.00   0.00   0.00
   9   6     0.00   0.00  -0.00    -0.00  -0.00   0.00     0.00   0.00  -0.00
  10   6    -0.00  -0.00   0.00    -0.00   0.00   0.00     0.00  -0.00  -0.00
  11   6    -0.00   0.01  -0.00    -0.00   0.00  -0.00     0.00  -0.00   0.00
  12   6     0.04   0.04  -0.02     0.00  -0.00  -0.00    -0.00  -0.00   0.00
  13  17     0.00   0.00  -0.00     0.00  -0.00  -0.00     0.00   0.00   0.00
  14   1    -0.00   0.00   0.00     0.90  -0.31  -0.17    -0.10   0.02   0.04
  15   1    -0.00  -0.01  -0.00    -0.02   0.04   0.01    -0.01  -0.05   0.02
  16   1    -0.00  -0.00   0.00     0.01   0.04  -0.07     0.31   0.35  -0.84
  17   1    -0.00  -0.00   0.00     0.00   0.00  -0.00     0.01   0.01  -0.02
  18   1     0.00  -0.00   0.00     0.00   0.00   0.00    -0.00  -0.01  -0.00
  19   1     0.00  -0.00  -0.00    -0.00   0.00  -0.00     0.00  -0.00   0.00
  20   1    -0.01  -0.01   0.00     0.00   0.00  -0.00    -0.00  -0.00   0.00
  21   1    -0.65  -0.59   0.32    -0.00  -0.00   0.00    -0.00  -0.00   0.00
  22   1    -0.00  -0.00   0.00     0.00   0.00  -0.00    -0.00  -0.00   0.00
  23   1     0.01  -0.00  -0.00     0.00  -0.00  -0.00    -0.00   0.00   0.00
  24   1     0.01  -0.04   0.01     0.00  -0.00   0.00    -0.00   0.00  -0.00
  25   1    -0.14  -0.13   0.07    -0.00  -0.00   0.00     0.00   0.00  -0.00
