 Entering Gaussian System
 *********************************************
 Gaussian 98:
 frequency output generated by the xtb code
 *********************************************
                         Standard orientation:
 --------------------------------------------------------------------
  Center     Atomic     Atomic              Coordinates (Angstroms)
  Number     Number      Type              X           Y           Z
 --------------------------------------------------------------------
    1          7             0        0.580341   -1.359784   -0.531400
    2          6             0        1.512407   -0.924407    0.549376
    3          6             0        1.624646    0.595013    0.652873
    4          6             0        2.257435    1.230877   -0.575480
    5         17             0       -2.477859    0.260583    0.022038
    6          1             0       -0.350416   -0.926999   -0.400887
    7          1             0        0.453696   -2.381844   -0.546527
    8          1             0        0.922949   -1.073987   -1.458791
    9          1             0        2.504584   -1.357853    0.376484
   10          1             0        1.173958   -1.342344    1.506098
   11          1             0        2.202100    0.864521    1.547761
   12          1             0        0.625938    1.018318    0.819626
   13          1             0        3.251092    0.820762   -0.764923
   14          1             0        2.365201    2.312477   -0.467342
   15          1             0        1.659691    1.054679   -1.471008
 --------------------------------------------------------------------
     1 basis functions        1 primitive gaussians
     1 alpha electrons        1 beta electrons

 Harmonic frequencies (cm**-1), IR intensities (km*mol⁻¹),
 Raman scattering activities (A**4/amu), Raman depolarization ratios,
 reduced masses (AMU), force constants (mDyne/A) and normal coordinates:
                      1                      2                      3
                        a                      a                      a 
 Frequencies --  -136.3319                63.2152               119.3130
 Red. masses --    21.8141                15.0078                 9.9448
 Frc consts  --     0.0000                 0.0000                 0.0000
 IR Inten    --   140.0383                 7.4041                 6.1053
 Raman Activ --     0.0000                 0.0000                 0.0000
 Depolar     --     0.0000                 0.0000                 0.0000
 Atom AN      X      Y      Z        X      Y      Z        X      Y      Z
   1   7     0.53  -0.26  -0.11     0.17  -0.20  -0.01     0.09  -0.23  -0.14
   2   6     0.24  -0.06   0.04     0.06  -0.11   0.04    -0.15   0.05  -0.04
   3   6     0.04  -0.04  -0.01    -0.19  -0.10   0.09    -0.51   0.09  -0.20
   4   6     0.02  -0.01  -0.01    -0.62   0.07  -0.04     0.17   0.00   0.10
   5  17    -0.61   0.27   0.07     0.42   0.24  -0.05     0.26   0.07   0.20
   6   1     0.14  -0.11  -0.07     0.08   0.03  -0.08    -0.00  -0.13  -0.02
   7   1     0.18  -0.08  -0.03    -0.03  -0.05   0.07     0.11  -0.07  -0.06
   8   1     0.17  -0.06  -0.02     0.11  -0.15  -0.01     0.01  -0.01  -0.03
   9   1     0.09   0.02   0.06     0.04   0.01   0.02    -0.01   0.07   0.04
  10   1     0.04  -0.02   0.00     0.02  -0.05   0.01    -0.07   0.02  -0.02
  11   1    -0.01   0.02   0.00    -0.01  -0.01  -0.01    -0.31   0.10   0.03
  12   1    -0.01  -0.04  -0.02    -0.07  -0.08   0.09    -0.20  -0.02  -0.25
  13   1     0.01   0.01  -0.00    -0.19   0.04  -0.12     0.12   0.07   0.26
  14   1    -0.01  -0.00  -0.00    -0.18   0.02   0.02    -0.07   0.02  -0.02
  15   1     0.01  -0.01  -0.00    -0.26   0.04   0.04     0.25  -0.11  -0.09
                      4                      5                      6
                        a                      a                      a 
 Frequencies --   160.9727               256.9239               274.4293
 Red. masses --     7.4322                 3.9468                 3.0094
 Frc consts  --     0.0000                 0.0000                 0.0000
 IR Inten    --    11.4367                 6.0811                 2.5678
 Raman Activ --     0.0000                 0.0000                 0.0000
 Depolar     --     0.0000                 0.0000                 0.0000
 Atom AN      X      Y      Z        X      Y      Z        X      Y      Z
   1   7    -0.25  -0.20   0.29     0.04   0.26   0.08     0.08   0.21  -0.18
   2   6     0.34  -0.10  -0.24     0.17  -0.07   0.05    -0.13  -0.02   0.09
   3   6     0.03  -0.08  -0.06    -0.02  -0.08   0.09     0.13  -0.03   0.06
   4   6     0.04   0.26   0.13    -0.20  -0.23  -0.08    -0.03  -0.09  -0.05
   5  17    -0.09   0.08  -0.11     0.01   0.06  -0.07    -0.03  -0.06   0.07
   6   1    -0.01   0.06   0.11    -0.07  -0.18   0.25     0.11   0.30  -0.23
   7   1    -0.17  -0.04   0.20     0.26   0.04  -0.28    -0.25   0.09   0.11
   8   1    -0.14  -0.20   0.00    -0.17   0.45   0.07     0.24  -0.20  -0.05
   9   1     0.09   0.04  -0.25     0.05   0.02  -0.06    -0.05  -0.08   0.12
  10   1     0.28  -0.08  -0.03     0.11  -0.09   0.01    -0.15   0.04   0.01
  11   1    -0.03  -0.02   0.01     0.00   0.03   0.00     0.08  -0.01  -0.01
  12   1    -0.02  -0.09  -0.03    -0.02  -0.06   0.03     0.05   0.02   0.06
  13   1     0.11   0.27   0.15     0.04   0.11   0.11     0.15   0.26   0.18
  14   1    -0.21   0.10   0.02    -0.29  -0.03  -0.18    -0.37   0.03  -0.18
  15   1     0.15  -0.07  -0.02     0.05  -0.32  -0.05     0.16  -0.37  -0.06
                      7                      8                      9
                        a                      a                      a 
 Frequencies --   338.6800               448.0457               799.0762
 Red. masses --     6.4078                 7.5126                 2.6494
 Frc consts  --     0.0000                 0.0000                 0.0000
 IR Inten    --     4.8716                10.1844                35.6656
 Raman Activ --     0.0000                 0.0000                 0.0000
 Depolar     --     0.0000                 0.0000                 0.0000
 Atom AN      X      Y      Z        X      Y      Z        X      Y      Z
   1   7    -0.08  -0.36  -0.03    -0.06  -0.25  -0.17    -0.04   0.01  -0.14
   2   6    -0.30  -0.03   0.08    -0.06   0.34  -0.27     0.19   0.04  -0.10
   3   6     0.30  -0.02  -0.05     0.05   0.30   0.36     0.22   0.04   0.13
   4   6     0.00   0.36  -0.03    -0.04  -0.24   0.10     0.00  -0.02   0.10
   5  17     0.05   0.04  -0.01     0.02   0.01   0.00    -0.01   0.00  -0.00
   6   1    -0.11  -0.30   0.04    -0.06  -0.16  -0.07     0.01  -0.02   0.19
   7   1     0.22  -0.12  -0.10     0.12  -0.08   0.11    -0.00  -0.00   0.12
   8   1    -0.10   0.08   0.02    -0.09  -0.16  -0.10    -0.28  -0.11  -0.17
   9   1    -0.11  -0.13   0.16     0.02   0.21  -0.17    -0.01  -0.21   0.24
  10   1    -0.21   0.12   0.03     0.09  -0.02  -0.09    -0.27   0.17  -0.07
  11   1     0.19  -0.11  -0.05     0.14  -0.05   0.06    -0.31   0.17   0.22
  12   1     0.14   0.08   0.11     0.08   0.17   0.22    -0.08  -0.15  -0.34
  13   1     0.08   0.29  -0.01    -0.02  -0.12   0.09    -0.03   0.03  -0.19
  14   1    -0.19   0.12   0.02     0.01  -0.05  -0.18    -0.06   0.01  -0.11
  15   1     0.04   0.02  -0.02    -0.03  -0.23   0.08    -0.22  -0.14   0.20
                     10                     11                     12
                        a                      a                      a 
 Frequencies --   838.1516               876.0229               960.0880
 Red. masses --     3.8025                 6.1563                 3.4081
 Frc consts  --     0.0000                 0.0000                 0.0000
 IR Inten    --    17.8586                11.2787                12.7266
 Raman Activ --     0.0000                 0.0000                 0.0000
 Depolar     --     0.0000                 0.0000                 0.0000
 Atom AN      X      Y      Z        X      Y      Z        X      Y      Z
   1   7    -0.20  -0.10  -0.08    -0.07  -0.24  -0.19    -0.25   0.08  -0.10
   2   6    -0.08  -0.13   0.24     0.16  -0.30   0.16     0.28   0.01   0.09
   3   6     0.15   0.13   0.18    -0.09   0.32   0.18     0.07   0.03   0.01
   4   6     0.14   0.08  -0.09     0.03   0.21  -0.13    -0.16   0.08   0.01
   5  17     0.00   0.00   0.01    -0.00  -0.01  -0.01     0.00   0.00   0.01
   6   1    -0.11  -0.07  -0.32     0.13   0.17   0.23    -0.20  -0.18  -0.32
   7   1     0.01  -0.03  -0.18    -0.34  -0.02  -0.27     0.20  -0.02   0.09
   8   1     0.29   0.07   0.14    -0.13   0.09  -0.04     0.12  -0.08   0.01
   9   1    -0.03   0.06  -0.26     0.08  -0.04   0.16    -0.08  -0.33  -0.01
  10   1     0.26  -0.20   0.09    -0.05  -0.10   0.00    -0.01   0.19   0.07
  11   1    -0.22   0.17   0.17     0.08   0.11  -0.02     0.05   0.22  -0.08
  12   1    -0.03   0.01  -0.26    -0.02   0.06   0.17    -0.10  -0.32   0.13
  13   1     0.03   0.11  -0.24    -0.04  -0.13   0.12    -0.07  -0.19   0.30
  14   1    -0.05   0.04  -0.12     0.18   0.06  -0.24     0.17   0.01  -0.07
  15   1    -0.15  -0.06   0.11     0.08  -0.04  -0.07     0.16   0.01  -0.13
                     13                     14                     15
                        a                      a                      a 
 Frequencies --   986.4064               999.3349              1093.0647
 Red. masses --     6.7194                 5.4490                 6.8414
 Frc consts  --     0.0000                 0.0000                 0.0000
 IR Inten    --    14.5034                30.4742                 5.5112
 Raman Activ --     0.0000                 0.0000                 0.0000
 Depolar     --     0.0000                 0.0000                 0.0000
 Atom AN      X      Y      Z        X      Y      Z        X      Y      Z
   1   7     0.19   0.08   0.35    -0.11  -0.25   0.04    -0.15   0.02  -0.17
   2   6    -0.20  -0.20  -0.41     0.15   0.23  -0.13     0.21   0.27   0.30
   3   6    -0.06   0.01   0.05     0.11   0.08  -0.25    -0.21  -0.38  -0.08
   4   6     0.06   0.26   0.00    -0.12  -0.17   0.31     0.17   0.21  -0.03
   5  17    -0.00   0.00   0.00    -0.00  -0.00   0.00     0.00   0.00  -0.00
   6   1     0.03   0.02  -0.03     0.06   0.14  -0.04    -0.06  -0.03  -0.06
   7   1     0.06   0.02   0.00    -0.26  -0.03  -0.38     0.00   0.00  -0.01
   8   1     0.21   0.08   0.16     0.23   0.22   0.19    -0.06  -0.03  -0.06
   9   1    -0.10  -0.19  -0.05     0.00  -0.06   0.06     0.11   0.18   0.11
  10   1    -0.07   0.09  -0.05     0.06   0.40   0.11     0.07   0.11   0.10
  11   1    -0.08  -0.20   0.11     0.02  -0.06  -0.03    -0.02  -0.43   0.06
  12   1    -0.04  -0.06   0.04     0.04   0.04  -0.06    -0.01  -0.06   0.13
  13   1    -0.07  -0.16   0.03    -0.04  -0.03   0.04    -0.02  -0.05  -0.12
  14   1     0.17   0.09  -0.42    -0.07  -0.04   0.07     0.06   0.08  -0.30
  15   1    -0.08  -0.20   0.11    -0.09  -0.07   0.12    -0.11  -0.17   0.13
                     16                     17                     18
                        a                      a                      a 
 Frequencies --  1136.1199              1165.1076              1238.9743
 Red. masses --     7.5135                 6.6697                 3.0378
 Frc consts  --     0.0000                 0.0000                 0.0000
 IR Inten    --     6.7948                 2.2911                11.8058
 Raman Activ --     0.0000                 0.0000                 0.0000
 Depolar     --     0.0000                 0.0000                 0.0000
 Atom AN      X      Y      Z        X      Y      Z        X      Y      Z
   1   7     0.04   0.14  -0.10     0.17  -0.09  -0.08     0.19  -0.01  -0.12
   2   6    -0.05  -0.28   0.20    -0.34   0.26   0.13    -0.13   0.01   0.08
   3   6     0.08   0.18  -0.47     0.36  -0.27  -0.02    -0.21   0.08   0.02
   4   6    -0.10   0.05   0.41    -0.21   0.14   0.00     0.22  -0.07   0.01
   5  17     0.00   0.00  -0.00    -0.00  -0.00  -0.00     0.00  -0.00  -0.00
   6   1    -0.03  -0.08   0.03     0.13   0.09   0.19     0.09   0.01   0.14
   7   1     0.09   0.02   0.14    -0.14   0.00  -0.03    -0.07   0.01   0.06
   8   1    -0.10  -0.11  -0.11    -0.12   0.04  -0.05    -0.16  -0.00  -0.10
   9   1     0.01   0.01  -0.08    -0.09   0.17  -0.22    -0.26  -0.36  -0.34
  10   1     0.11  -0.15   0.06     0.17  -0.03   0.08     0.26   0.27   0.24
  11   1     0.12   0.02  -0.18    -0.11   0.11   0.06     0.09   0.11  -0.11
  12   1     0.11   0.25  -0.13    -0.01  -0.26  -0.15    -0.10  -0.18   0.26
  13   1    -0.09  -0.14   0.09    -0.09  -0.18   0.24     0.06   0.10  -0.20
  14   1     0.03   0.03  -0.15     0.16   0.02  -0.11    -0.11  -0.00   0.02
  15   1    -0.14  -0.20   0.22     0.12  -0.03  -0.10    -0.12  -0.00   0.11
                     19                     20                     21
                        a                      a                      a 
 Frequencies --  1259.5120              1320.9403              1356.9480
 Red. masses --     2.3801                 3.6432                 4.5162
 Frc consts  --     0.0000                 0.0000                 0.0000
 IR Inten    --     4.7317                18.6229                 2.5843
 Raman Activ --     0.0000                 0.0000                 0.0000
 Depolar     --     0.0000                 0.0000                 0.0000
 Atom AN      X      Y      Z        X      Y      Z        X      Y      Z
   1   7    -0.03  -0.06   0.10    -0.13   0.07  -0.15    -0.06   0.05  -0.05
   2   6    -0.08   0.12  -0.07    -0.13  -0.29  -0.18    -0.12  -0.18   0.02
   3   6    -0.02  -0.10  -0.11    -0.02  -0.16   0.17     0.18   0.41  -0.20
   4   6     0.19   0.02   0.16     0.01   0.03   0.01     0.02  -0.10  -0.07
   5  17    -0.00   0.00  -0.00    -0.00   0.00  -0.00    -0.00   0.00  -0.00
   6   1    -0.00   0.04  -0.06     0.01   0.04   0.20     0.00   0.01   0.10
   7   1    -0.02  -0.01  -0.07     0.19  -0.01   0.13     0.09  -0.00   0.04
   8   1     0.04   0.05   0.06     0.17  -0.04   0.03     0.06  -0.06  -0.01
   9   1     0.09   0.24   0.11     0.19   0.35   0.20     0.11   0.24   0.12
  10   1    -0.20  -0.24  -0.20     0.22   0.46   0.27     0.08   0.01   0.07
  11   1     0.20   0.45  -0.30     0.06   0.28  -0.10    -0.13  -0.35   0.21
  12   1    -0.13  -0.40   0.21     0.03   0.09  -0.05    -0.16  -0.49   0.23
  13   1     0.01   0.02  -0.16     0.01   0.03  -0.05     0.03   0.01   0.09
  14   1    -0.04   0.03  -0.09     0.04   0.01  -0.06    -0.07  -0.04   0.16
  15   1    -0.13  -0.09   0.17     0.03   0.02  -0.02    -0.08   0.02   0.04
                     22                     23                     24
                        a                      a                      a 
 Frequencies --  1370.3891              1400.8224              1435.2316
 Red. masses --     2.5689                 1.6064                 2.4953
 Frc consts  --     0.0000                 0.0000                 0.0000
 IR Inten    --   135.7833                70.5334                49.8976
 Raman Activ --     0.0000                 0.0000                 0.0000
 Depolar     --     0.0000                 0.0000                 0.0000
 Atom AN      X      Y      Z        X      Y      Z        X      Y      Z
   1   7     0.25   0.10   0.13    -0.00  -0.12   0.14     0.00   0.12   0.17
   2   6    -0.04  -0.15  -0.07    -0.03  -0.10   0.00    -0.02  -0.00  -0.01
   3   6     0.02   0.02   0.05     0.02   0.02  -0.01    -0.02  -0.08   0.05
   4   6    -0.01  -0.01   0.01    -0.02  -0.02   0.04     0.10   0.13  -0.21
   5  17     0.00   0.00   0.00    -0.00  -0.01   0.01     0.00   0.00   0.00
   6   1    -0.23  -0.43  -0.38     0.16   0.50  -0.50    -0.01   0.01   0.02
   7   1    -0.51   0.08  -0.06     0.34  -0.06  -0.06     0.12  -0.00  -0.54
   8   1    -0.30   0.04  -0.10    -0.48   0.15  -0.11    -0.04  -0.49  -0.16
   9   1     0.11   0.20   0.08     0.03   0.07   0.02    -0.01   0.02  -0.03
  10   1     0.04   0.19   0.09     0.04   0.10   0.07     0.00   0.07   0.03
  11   1     0.02   0.02  -0.00    -0.04   0.00   0.03     0.01   0.09  -0.03
  12   1    -0.02  -0.05  -0.03     0.01   0.01   0.02     0.03   0.06  -0.01
  13   1     0.00   0.02  -0.03    -0.01   0.00  -0.04    -0.03  -0.19   0.22
  14   1     0.01  -0.00   0.00     0.01   0.00  -0.04    -0.10  -0.01   0.29
  15   1     0.03   0.01  -0.02     0.05   0.02  -0.04    -0.18  -0.20   0.15
                     25                     26                     27
                        a                      a                      a 
 Frequencies --  1444.7429              1485.0246              1492.8572
 Red. masses --     2.6052                 1.8829                 1.8903
 Frc consts  --     0.0000                 0.0000                 0.0000
 IR Inten    --    36.5671                14.9342                 3.9723
 Raman Activ --     0.0000                 0.0000                 0.0000
 Depolar     --     0.0000                 0.0000                 0.0000
 Atom AN      X      Y      Z        X      Y      Z        X      Y      Z
   1   7     0.01  -0.10  -0.10     0.01  -0.02  -0.01    -0.01  -0.03  -0.01
   2   6     0.01   0.00  -0.04     0.13  -0.17   0.15     0.04  -0.04   0.07
   3   6    -0.01  -0.07   0.02     0.03  -0.04  -0.08    -0.08   0.11   0.22
   4   6     0.16   0.15  -0.26    -0.00  -0.01  -0.03     0.01  -0.01  -0.06
   5  17    -0.00  -0.00   0.00     0.00  -0.00  -0.00    -0.00  -0.00   0.00
   6   1     0.01   0.02  -0.10     0.02   0.00   0.03     0.03   0.06   0.01
   7   1    -0.08  -0.00   0.38    -0.01  -0.00   0.06     0.03  -0.01   0.04
   8   1    -0.03   0.40   0.11     0.04   0.05   0.03    -0.00   0.05   0.01
   9   1     0.01  -0.03   0.09     0.03   0.28  -0.56     0.00   0.09  -0.19
  10   1     0.06  -0.02   0.00    -0.55   0.29  -0.07    -0.17   0.10  -0.01
  11   1    -0.03   0.08  -0.00    -0.18   0.09   0.09     0.50  -0.28  -0.22
  12   1     0.04   0.09   0.02     0.08   0.09   0.21    -0.20  -0.22  -0.57
  13   1    -0.05  -0.30   0.32     0.03   0.03   0.05     0.05   0.05   0.14
  14   1    -0.22   0.00   0.33     0.04  -0.01   0.02     0.03   0.00   0.00
  15   1    -0.26  -0.18   0.20    -0.05  -0.01   0.03    -0.12   0.04   0.07
                     28                     29                     30
                        a                      a                      a 
 Frequencies --  1508.4575              1513.7767              2893.5495
 Red. masses --     1.5982                 1.5252                 1.9811
 Frc consts  --     0.0000                 0.0000                 0.0000
 IR Inten    --     2.6768                 8.3622              1607.6618
 Raman Activ --     0.0000                 0.0000                 0.0000
 Depolar     --     0.0000                 0.0000                 0.0000
 Atom AN      X      Y      Z        X      Y      Z        X      Y      Z
   1   7    -0.01   0.00  -0.01    -0.00  -0.02  -0.02    -0.24   0.12   0.05
   2   6     0.02  -0.04   0.02     0.00  -0.00  -0.00     0.04  -0.02  -0.02
   3   6     0.01   0.08   0.05    -0.04   0.03  -0.00     0.02  -0.00   0.01
   4   6     0.06   0.15   0.12    -0.17   0.11  -0.05    -0.00   0.01   0.00
   5  17    -0.00   0.00  -0.00    -0.00  -0.00   0.00     0.01  -0.01  -0.00
   6   1     0.01   0.00   0.03     0.01   0.02  -0.01     0.85  -0.40  -0.14
   7   1     0.01  -0.00   0.01     0.00  -0.00   0.05    -0.02  -0.02   0.01
   8   1     0.03  -0.00   0.01     0.00   0.07   0.02    -0.00   0.02  -0.03
   9   1     0.00   0.04  -0.09    -0.00  -0.02   0.01    -0.13   0.06   0.03
  10   1    -0.08   0.05  -0.01     0.01  -0.00   0.00    -0.00  -0.01   0.02
  11   1     0.06  -0.08  -0.00     0.03  -0.02  -0.02    -0.03  -0.01  -0.05
  12   1    -0.04  -0.06  -0.08    -0.03  -0.03   0.00    -0.02   0.01   0.00
  13   1    -0.27  -0.48  -0.43     0.04   0.24  -0.23     0.01  -0.00  -0.00
  14   1    -0.39   0.03   0.15     0.51  -0.09   0.41    -0.00  -0.01  -0.00
  15   1     0.39  -0.18  -0.22     0.14  -0.61   0.02    -0.00  -0.00   0.00
                     31                     32                     33
                        a                      a                      a 
 Frequencies --  2927.7952              2943.6561              2961.2923
 Red. masses --     1.9054                 1.9161                 1.6280
 Frc consts  --     0.0000                 0.0000                 0.0000
 IR Inten    --     9.6871                 4.6305                 6.8198
 Raman Activ --     0.0000                 0.0000                 0.0000
 Depolar     --     0.0000                 0.0000                 0.0000
 Atom AN      X      Y      Z        X      Y      Z        X      Y      Z
   1   7    -0.01   0.00   0.00    -0.04   0.02   0.01     0.01  -0.00  -0.00
   2   6     0.03  -0.01  -0.01    -0.21   0.00   0.18     0.05   0.02  -0.09
   3   6    -0.23  -0.01  -0.16     0.02  -0.04  -0.05     0.13  -0.11  -0.12
   4   6     0.02   0.00   0.01     0.01   0.00   0.00    -0.03   0.03   0.01
   5  17     0.00  -0.00  -0.00     0.00  -0.00  -0.00    -0.00  -0.00   0.00
   6   1     0.04  -0.01  -0.00     0.11  -0.05  -0.02    -0.02   0.01   0.00
   7   1     0.00  -0.00   0.00    -0.00  -0.01   0.00    -0.00  -0.00  -0.00
   8   1     0.00   0.00  -0.00    -0.00  -0.00   0.01     0.00   0.00  -0.01
   9   1    -0.13   0.06   0.03     0.58  -0.26  -0.09    -0.08   0.04   0.01
  10   1     0.00  -0.00   0.00     0.18   0.24  -0.54    -0.11  -0.12   0.29
  11   1     0.44   0.21   0.68     0.13   0.05   0.18     0.24   0.09   0.32
  12   1     0.39  -0.18  -0.09    -0.22   0.09   0.02    -0.72   0.30   0.09
  13   1    -0.05   0.02   0.01    -0.00   0.00   0.00     0.15  -0.06  -0.02
  14   1     0.00  -0.02   0.00     0.00  -0.01  -0.00    -0.01  -0.06  -0.01
  15   1    -0.04  -0.01  -0.07    -0.01  -0.00  -0.01    -0.03   0.00  -0.03
                     34                     35                     36
                        a                      a                      a 
 Frequencies --  2973.5683              2997.2920              3001.8015
 Red. masses --     1.5341                 1.9361                 1.9337
 Frc consts  --     0.0000                 0.0000                 0.0000
 IR Inten    --     4.5353                44.5858                22.6670
 Raman Activ --     0.0000                 0.0000                 0.0000
 Depolar     --     0.0000                 0.0000                 0.0000
 Atom AN      X      Y      Z        X      Y      Z        X      Y      Z
   1   7    -0.03   0.01   0.00    -0.00   0.00  -0.00     0.00  -0.00  -0.00
   2   6    -0.11   0.13  -0.12    -0.02   0.01   0.00    -0.01   0.00   0.01
   3   6    -0.05   0.02   0.01    -0.05   0.02  -0.00    -0.01   0.02   0.03
   4   6     0.02  -0.01   0.01    -0.26   0.07  -0.08     0.03   0.25   0.14
   5  17     0.00  -0.00  -0.00    -0.00  -0.00   0.00    -0.00  -0.00  -0.00
   6   1     0.08  -0.04  -0.01     0.01  -0.00  -0.00    -0.01   0.01   0.00
   7   1    -0.00  -0.00  -0.00    -0.00  -0.00   0.00     0.00   0.00  -0.00
   8   1     0.01   0.01  -0.02    -0.00   0.00   0.00    -0.00  -0.00  -0.00
   9   1     0.62  -0.25  -0.14     0.06  -0.03  -0.01     0.03  -0.01  -0.00
  10   1    -0.24  -0.22   0.57    -0.00  -0.00   0.01     0.00   0.01  -0.01
  11   1    -0.00   0.00   0.00     0.01   0.01   0.03    -0.05  -0.02  -0.07
  12   1     0.17  -0.07  -0.02     0.13  -0.06  -0.02     0.08  -0.03  -0.01
  13   1    -0.06   0.03   0.01     0.69  -0.30  -0.14     0.26  -0.07  -0.02
  14   1     0.01   0.03   0.01    -0.05  -0.06  -0.02    -0.07  -0.75  -0.08
  15   1    -0.02  -0.01  -0.03     0.28   0.11   0.45    -0.29  -0.05  -0.40
                     37                     38                     39
                        a                      a                      a 
 Frequencies --  3015.2383              3228.7478              3239.7846
 Red. masses --     1.2820                 1.9950                 1.5376
 Frc consts  --     0.0000                 0.0000                 0.0000
 IR Inten    --    18.1272                56.7491                25.7737
 Raman Activ --     0.0000                 0.0000                 0.0000
 Depolar     --     0.0000                 0.0000                 0.0000
 Atom AN      X      Y      Z        X      Y      Z        X      Y      Z
   1   7    -0.00   0.00   0.00     0.07   0.25  -0.10    -0.05   0.04   0.19
   2   6    -0.00  -0.00   0.01     0.00   0.00  -0.00     0.00  -0.00   0.01
   3   6    -0.01   0.01   0.01    -0.00  -0.00   0.00     0.00  -0.00   0.00
   4   6    -0.04  -0.08   0.13     0.00  -0.00   0.00    -0.00   0.00  -0.00
   5  17    -0.00   0.00  -0.00     0.00  -0.00   0.00     0.00  -0.00  -0.00
   6   1     0.00  -0.00   0.00    -0.00   0.03  -0.01    -0.06   0.03   0.02
   7   1    -0.00  -0.00   0.00    -0.10  -0.86  -0.00    -0.06  -0.44   0.02
   8   1     0.00   0.00  -0.01    -0.15  -0.10   0.38     0.30   0.26  -0.78
   9   1    -0.00  -0.00   0.00     0.00  -0.00  -0.00    -0.01   0.00  -0.00
  10   1     0.01   0.01  -0.02    -0.00  -0.01   0.01     0.01   0.01  -0.02
  11   1    -0.02  -0.01  -0.03    -0.00   0.00  -0.00    -0.00  -0.00  -0.00
  12   1     0.04  -0.02  -0.00     0.00  -0.00  -0.00    -0.00  -0.00   0.00
  13   1     0.45  -0.20  -0.06    -0.00   0.00   0.00    -0.00   0.00  -0.00
  14   1     0.05   0.58   0.09    -0.00  -0.00   0.00    -0.00  -0.00  -0.00
  15   1    -0.36  -0.11  -0.49    -0.00  -0.00  -0.00     0.01   0.00   0.01
