24
 energy: -32.258732693078 gnorm: 0.000244819547 xtb: 6.5.1 (fef0646)
N            0.93314362013085       -0.24043047569572        0.01979680907241
C            2.41244936717246       -0.06624036764765       -0.01321030682940
C            2.94757954493853        0.10072113139655        1.38447240182814
C            3.30370302942428       -1.03824024062656        2.13400132811595
C            3.76685463562011       -0.91237170773578        3.41266410463000
C            3.06271673829214        1.34620304534784        1.94600083211179
C            3.53381081547722        1.50931237244205        3.26426095438591
C            3.89236571860329        0.35806717449701        4.01396383504159
C            4.36624756382250        0.52161063739154        5.33204774096138
C            4.47659121621250        1.76805720056281        5.88251120490015
C            4.11936630757878        2.90663794314592        5.14158579872116
C            3.65870400749166        2.78152606813850        3.86104033213287
H            0.56167051612951       -0.36068054790685       -0.92976058890401
H            0.49196407271004        0.58202130443369        0.44790883331323
H            0.68623818631416       -1.06467239580880        0.58043681652434
H            2.65118660978889        0.81390513687562       -0.60962840419313
H            2.86145906986090       -0.94312604586706       -0.47929252824612
H            3.22709471157513       -2.01789403127737        1.68774968930304
H            4.04810781104023       -1.78364361379737        3.98551541794392
H            2.80821739359223        2.23358078102818        1.38570184627948
H            4.64174100853657       -0.35492707218104        5.90088272635984
H            4.84060909923094        1.88779853264874        6.89246540764323
H            4.21431311342273        3.88182532592270        5.59600218202247
H            3.38625584303429        3.65783984471294        3.29136356688185
