      -----------------------------------------------------------      
     |                   =====================                   |     
     |                           x T B                           |     
     |                   =====================                   |     
     |                         S. Grimme                         |     
     |          Mulliken Center for Theoretical Chemistry        |     
     |                    University of Bonn                     |     
      -----------------------------------------------------------      

   * xtb version 6.5.1 (fef0646) compiled by 'conda@b96dff2e9fd6' on 2023-01-04

   xtb is free software: you can redistribute it and/or modify it under
   the terms of the GNU Lesser General Public License as published by
   the Free Software Foundation, either version 3 of the License, or
   (at your option) any later version.
   
   xtb is distributed in the hope that it will be useful,
   but WITHOUT ANY WARRANTY; without even the implied warranty of
   MERCHANTABILITY or FITNESS FOR A PARTICULAR PURPOSE.  See the
   GNU Lesser General Public License for more details.
   
   Cite this work as:
   * C. Bannwarth, E. Caldeweyher, S. Ehlert, A. Hansen, P. Pracht,
     J. Seibert, S. Spicher, S. Grimme, WIREs Comput. Mol. Sci., 2020, 11,
     e01493. DOI: 10.1002/wcms.1493
   
   for GFN2-xTB:
   * C. Bannwarth, S. Ehlert and S. Grimme., J. Chem. Theory Comput., 2019,
     15, 1652-1671. DOI: 10.1021/acs.jctc.8b01176
   for GFN1-xTB:
   * S. Grimme, C. Bannwarth, P. Shushkov, J. Chem. Theory Comput., 2017,
     13, 1989-2009. DOI: 10.1021/acs.jctc.7b00118
   for GFN0-xTB:
   * P. Pracht, E. Caldeweyher, S. Ehlert, S. Grimme, ChemRxiv, 2019, preprint.
     DOI: 10.26434/chemrxiv.8326202.v1
   for GFN-FF:
   * S. Spicher and S. Grimme, Angew. Chem. Int. Ed., 2020, 59, 15665-15673.
     DOI: 10.1002/anie.202004239
   
   for ALPB and GBSA implicit solvation:
   * S. Ehlert, M. Stahn, S. Spicher, S. Grimme, J. Chem. Theory Comput.,
     2021, 17, 4250-4261. DOI: 10.1021/acs.jctc.1c00471
   
   for DFT-D4:
   * E. Caldeweyher, C. Bannwarth and S. Grimme, J. Chem. Phys., 2017,
     147, 034112. DOI: 10.1063/1.4993215
   * E. Caldeweyher, S. Ehlert, A. Hansen, H. Neugebauer, S. Spicher,
     C. Bannwarth and S. Grimme, J. Chem. Phys., 2019, 150, 154122.
     DOI: 10.1063/1.5090222
   * E. Caldeweyher, J.-M. Mewes, S. Ehlert and S. Grimme, Phys. Chem. Chem. Phys.
     2020, 22, 8499-8512. DOI: 10.1039/D0CP00502A
   
   for sTDA-xTB:
   * S. Grimme and C. Bannwarth, J. Chem. Phys., 2016, 145, 054103.
     DOI: 10.1063/1.4959605
   
   in the mass-spec context:
   * V. Asgeirsson, C. Bauer and S. Grimme, Chem. Sci., 2017, 8, 4879.
     DOI: 10.1039/c7sc00601b
   * J. Koopman and S. Grimme, ACS Omega 2019, 4, 12, 15120-15133.
     DOI: 10.1021/acsomega.9b02011
   
   for metadynamics refer to:
   * S. Grimme, J. Chem. Theory Comput., 2019, 155, 2847-2862
     DOI: 10.1021/acs.jctc.9b00143
   
   for SPH calculations refer to:
   * S. Spicher and S. Grimme, J. Chem. Theory Comput., 2021, 17, 1701-1714
     DOI: 10.1021/acs.jctc.0c01306
   
   with help from (in alphabetical order)
   P. Atkinson, C. Bannwarth, F. Bohle, G. Brandenburg, E. Caldeweyher
   M. Checinski, S. Dohm, S. Ehlert, S. Ehrlich, I. Gerasimov, C. Hölzer
   A. Katbashev, J. Koopman, C. Lavigne, S. Lehtola, F. März, M. Müller,
   F. Musil, H. Neugebauer, J. Pisarek, C. Plett, P. Pracht, F. Pultar,
   J. Seibert, P. Shushkov, S. Spicher, M. Stahn, M. Steiner, T. Strunk,
   J. Stückrath, T. Rose, and J. Unsleber
   
 * started run on 2023/01/24 at 16:55:22.113     

           -------------------------------------------------
          |                Calculation Setup                |
           -------------------------------------------------

          program call               : xtb init.xyz --opt -c 1 -u 0 -P 16 --alpb water
          hostname                   : gpg-woodward
          coordinate file            : init.xyz
          omp threads                :                    16

   ID    Z sym.   atoms
    1    7 N      1
    2    6 C      2-13
    3    1 H      14-27

           -------------------------------------------------
          |                 G F N 2 - x T B                 |
           -------------------------------------------------

        Reference                      10.1021/acs.jctc.8b01176
      * Hamiltonian:
        H0-scaling (s, p, d)           1.850000    2.230000    2.230000
        zeta-weighting                 0.500000
      * Dispersion:
        s8                             2.700000
        a1                             0.520000
        a2                             5.000000
        s9                             5.000000
      * Repulsion:
        kExp                           1.500000    1.000000
        rExp                           1.000000
      * Coulomb:
        alpha                          2.000000
        third order                    shell-resolved
        anisotropic                    true
        a3                             3.000000
        a5                             4.000000
        cn-shift                       1.200000
        cn-exp                         4.000000
        max-rad                        5.000000

      * Solvation model:               ALPB
        Solvent                        water
        Parameter file                 internal GFN2-xTB/ALPB
        Dielectric constant                8.0200E+01
        Reference state                gsolv [1 M gas/solution]
        Free energy shift                  1.0808E-03 Eh       6.7819E-01 kcal/mol
        Temperature                        2.9815E+02 K
        Density                            1.0000E+00 kg/L
        Solvent mass                       1.8000E+01 g/mol
        Interaction kernel             P16
        Born radius scaling (c1)           1.4744E+00
        Born radii integrator          GBOBC
        Born offset                        0.0000E+00 a0       0.0000E+00 AA
        H-bond correction              true
        Ion screening                  false
        Surface tension                    1.0000E-05 Eh       1.5569E+01 dyn/cm
        Grid points                               230 per atom

          ...................................................
          :                      SETUP                      :
          :.................................................:
          :  # basis functions                  66          :
          :  # atomic orbitals                  66          :
          :  # shells                           40          :
          :  # electrons                        66          :
          :  max. iterations                   250          :
          :  Hamiltonian                  GFN2-xTB          :
          :  restarted?                      false          :
          :  GBSA solvation                   true          :
          :  PC potential                    false          :
          :  electronic temp.          300.0000000     K    :
          :  accuracy                    1.0000000          :
          :  -> integral cutoff          0.2500000E+02      :
          :  -> integral neglect         0.1000000E-07      :
          :  -> SCF convergence          0.1000000E-05 Eh   :
          :  -> wf. convergence          0.1000000E-03 e    :
          :  Broyden damping             0.4000000          :
          ...................................................

 iter      E             dE          RMSdq      gap      omega  full diag
   1    -35.9549235 -0.359549E+02  0.423E+00    2.92       0.0  T
   2    -36.0333719 -0.784484E-01  0.242E+00    2.91       1.0  T
   3    -36.0349248 -0.155291E-02  0.982E-01    2.90       1.0  T
   4    -36.0339853  0.939447E-03  0.324E-01    2.89       1.0  T
   5    -36.0366456 -0.266028E-02  0.765E-02    2.89       1.0  T
   6    -36.0366563 -0.107420E-04  0.448E-02    2.89       1.0  T
   7    -36.0366657 -0.932183E-05  0.160E-02    2.89       1.2  T
   8    -36.0366674 -0.171298E-05  0.900E-03    2.89       2.1  T
   9    -36.0366676 -0.233665E-06  0.552E-03    2.89       3.5  T
  10    -36.0366679 -0.289237E-06  0.149E-03    2.89      12.9  T
  11    -36.0366679 -0.157764E-07  0.661E-04    2.89      29.1  T
  12    -36.0366679 -0.516737E-08  0.220E-04    2.89      87.4  T

   *** convergence criteria satisfied after 12 iterations ***

         #    Occupation            Energy/Eh            Energy/eV
      -------------------------------------------------------------
         1        2.0000           -0.6973461             -18.9758
       ...           ...                  ...                  ...
        27        2.0000           -0.4499611             -12.2441
        28        2.0000           -0.4436332             -12.0719
        29        2.0000           -0.4277164             -11.6388
        30        2.0000           -0.4216722             -11.4743
        31        2.0000           -0.4181030             -11.3772
        32        2.0000           -0.4057008             -11.0397
        33        2.0000           -0.3776640             -10.2768 (HOMO)
        34                         -0.2713002              -7.3825 (LUMO)
        35                         -0.2332529              -6.3471
        36                         -0.1967908              -5.3549
        37                         -0.1592991              -4.3347
        38                         -0.0667086              -1.8152
       ...                                ...                  ...
        66                          0.6858943              18.6641
      -------------------------------------------------------------
                  HL-Gap            0.1063638 Eh            2.8943 eV
             Fermi-level           -0.3244821 Eh           -8.8296 eV

 SCC (total)                   0 d,  0 h,  0 min,  0.044 sec
 SCC setup                      ...        0 min,  0.001 sec (  1.189%)
 Dispersion                     ...        0 min,  0.001 sec (  1.168%)
 classical contributions        ...        0 min,  0.000 sec (  0.188%)
 integral evaluation            ...        0 min,  0.001 sec (  2.825%)
 iterations                     ...        0 min,  0.038 sec ( 85.349%)
 molecular gradient             ...        0 min,  0.003 sec (  7.303%)
 printout                       ...        0 min,  0.001 sec (  1.191%)

         :::::::::::::::::::::::::::::::::::::::::::::::::::::
         ::                     SUMMARY                     ::
         :::::::::::::::::::::::::::::::::::::::::::::::::::::
         :: total energy             -35.422145544740 Eh    ::
         :: total w/o Gsasa/hb       -35.411242932065 Eh    ::
         :: gradient norm              0.076117578886 Eh/a0 ::
         :: HOMO-LUMO gap              2.894305606442 eV    ::
         ::.................................................::
         :: SCC energy               -36.036667927860 Eh    ::
         :: -> isotropic ES            0.122328230817 Eh    ::
         :: -> anisotropic ES         -0.015046837995 Eh    ::
         :: -> anisotropic XC          0.025469452214 Eh    ::
         :: -> dispersion             -0.023831328562 Eh    ::
         :: -> Gsolv                  -0.114144748907 Eh    ::
         ::    -> Gelec               -0.103242136232 Eh    ::
         ::    -> Gsasa               -0.002141773849 Eh    ::
         ::    -> Ghb                 -0.009841598525 Eh    ::
         ::    -> Gshift               0.001080759698 Eh    ::
         :: repulsion energy           0.614453190218 Eh    ::
         :: add. restraining           0.000000000000 Eh    ::
         :: total charge               1.000000000000 e     ::
         :::::::::::::::::::::::::::::::::::::::::::::::::::::

      ----------------------------------------------------------- 
     |                   =====================                   |
     |                        A N C O P T                        |
     |                   =====================                   |
     |               Approximate Normal Coordinate               |
     |                Rational Function Optimizer                |
      ----------------------------------------------------------- 

          ...................................................
          :                      SETUP                      :
          :.................................................:
          :   optimization level            normal          :
          :   max. optcycles                   200          :
          :   ANC micro-cycles                  20          :
          :   degrees of freedom                75          :
          :.................................................:
          :   RF solver                   davidson          :
          :   write xtbopt.log                true          :
          :   linear?                        false          :
          :   energy convergence         0.5000000E-05 Eh   :
          :   grad. convergence          0.1000000E-02 Eh/α :
          :   maximium RF displ.         1.0000000          :
          :   Hlow (freq-cutoff)         0.1000000E-01      :
          :   Hmax (freq-cutoff)         5.0000000          :
          :   S6 in model hess.         20.0000000          :
          ...................................................

generating ANC from model Hessian ...
Using Lindh-Hessian (1995)
 Shifting diagonal of input Hessian by    8.8465481919885163E-003
 Lowest  eigenvalues of input Hessian
    0.000000    0.000000    0.000000    0.000000    0.000000    0.000000
    0.010000    0.010327    0.013189    0.014673    0.015660    0.018488
    0.019559    0.021743    0.021963    0.024388    0.028486    0.029677
 Highest eigenvalues
    1.757970    1.780657    1.795872    1.899080    2.002927    2.082814


........................................................................
.............................. CYCLE    1 ..............................
........................................................................
   1    -36.0366679 -0.360367E+02  0.118E-04    2.89       0.0  T
   2    -36.0366679 -0.268798E-10  0.769E-05    2.89     250.4  T
   3    -36.0366679  0.845546E-12  0.447E-05    2.89     430.7  T
     SCC iter.                  ...        0 min,  0.009 sec
     gradient                   ...        0 min,  0.003 sec
 * total energy  :   -35.4221455 Eh     change       -0.2759535E-09 Eh
   gradient norm :     0.0761176 Eh/α   predicted     0.0000000E+00 (-100.00%)
   displ. norm   :     0.1751827 α      lambda       -0.5882160E-02
   maximum displ.:     0.0740552 α      in ANC's #14, #3, #39, ...

........................................................................
.............................. CYCLE    2 ..............................
........................................................................
   1    -36.0616788 -0.360617E+02  0.116E-01    3.09       0.0  T
   2    -36.0616969 -0.180878E-04  0.740E-02    3.09       1.0  T
   3    -36.0616882  0.872135E-05  0.237E-02    3.09       1.0  T
   4    -36.0617019 -0.137706E-04  0.399E-03    3.09       4.8  T
   5    -36.0617021 -0.182648E-06  0.211E-03    3.09       9.1  T
   6    -36.0617021 -0.166327E-07  0.803E-04    3.09      24.0  T
   7    -36.0617021 -0.206830E-08  0.250E-04    3.09      76.9  T
     SCC iter.                  ...        0 min,  0.020 sec
     gradient                   ...        0 min,  0.003 sec
 * total energy  :   -35.4260971 Eh     change       -0.3951526E-02 Eh
   gradient norm :     0.0301125 Eh/α   predicted    -0.3031623E-02 ( -23.28%)
   displ. norm   :     0.1201386 α      lambda       -0.1272313E-02
   maximum displ.:     0.0629926 α      in ANC's #3, #14, #6, ...

........................................................................
.............................. CYCLE    3 ..............................
........................................................................
   1    -36.0721018 -0.360721E+02  0.656E-02    3.20       0.0  T
   2    -36.0721076 -0.582492E-05  0.400E-02    3.20       1.0  T
   3    -36.0721057  0.193535E-05  0.136E-02    3.20       1.4  T
   4    -36.0721091 -0.341740E-05  0.199E-03    3.20       9.7  T
   5    -36.0721091 -0.388109E-07  0.109E-03    3.20      17.7  T
   6    -36.0721091 -0.403839E-08  0.402E-04    3.20      47.8  T
   7    -36.0721091 -0.101504E-08  0.131E-04    3.20     147.4  T
     SCC iter.                  ...        0 min,  0.020 sec
     gradient                   ...        0 min,  0.003 sec
 * total energy  :   -35.4267822 Eh     change       -0.6851650E-03 Eh
   gradient norm :     0.0050515 Eh/α   predicted    -0.6454242E-03 (  -5.80%)
   displ. norm   :     0.0535859 α      lambda       -0.9893900E-04
   maximum displ.:     0.0354047 α      in ANC's #3, #6, #2, ...

........................................................................
.............................. CYCLE    4 ..............................
........................................................................
   1    -36.0713346 -0.360713E+02  0.259E-02    3.21       0.0  T
   2    -36.0713347 -0.113995E-06  0.150E-02    3.21       1.3  T
   3    -36.0713347  0.510760E-07  0.220E-03    3.21       8.7  T
   4    -36.0713348 -0.962968E-07  0.578E-04    3.21      33.3  T
   5    -36.0713348 -0.121776E-08  0.317E-04    3.21      60.6  T
     SCC iter.                  ...        0 min,  0.014 sec
     gradient                   ...        0 min,  0.002 sec
 * total energy  :   -35.4268564 Eh     change       -0.7420113E-04 Eh
   gradient norm :     0.0027841 Eh/α   predicted    -0.4961792E-04 ( -33.13%)
   displ. norm   :     0.0800615 α      lambda       -0.7097814E-04
   maximum displ.:     0.0524654 α      in ANC's #3, #2, #6, ...

........................................................................
.............................. CYCLE    5 ..............................
........................................................................
   1    -36.0701899 -0.360702E+02  0.317E-02    3.21       0.0  T
   2    -36.0701901 -0.209792E-06  0.185E-02    3.21       1.0  T
   3    -36.0701898  0.236942E-06  0.378E-03    3.21       5.1  T
   4    -36.0701902 -0.329012E-06  0.749E-04    3.21      25.7  T
   5    -36.0701902 -0.322234E-08  0.431E-04    3.21      44.6  T
     SCC iter.                  ...        0 min,  0.013 sec
     gradient                   ...        0 min,  0.003 sec
 * total energy  :   -35.4268986 Eh     change       -0.4214140E-04 Eh
   gradient norm :     0.0014194 Eh/α   predicted    -0.3571800E-04 ( -15.24%)
   displ. norm   :     0.0713137 α      lambda       -0.1598823E-04
   maximum displ.:     0.0409390 α      in ANC's #2, #3, #8, ...

........................................................................
.............................. CYCLE    6 ..............................
........................................................................
   1    -36.0700713 -0.360701E+02  0.205E-02    3.21       0.0  T
   2    -36.0700714 -0.112740E-06  0.118E-02    3.21       1.6  T
   3    -36.0700712  0.199313E-06  0.355E-03    3.21       5.4  T
   4    -36.0700715 -0.254580E-06  0.504E-04    3.21      38.1  T
   5    -36.0700715 -0.208072E-08  0.288E-04    3.21      66.8  T
     SCC iter.                  ...        0 min,  0.014 sec
     gradient                   ...        0 min,  0.003 sec
 * total energy  :   -35.4269172 Eh     change       -0.1858104E-04 Eh
   gradient norm :     0.0016301 Eh/α   predicted    -0.8013841E-05 ( -56.87%)
   displ. norm   :     0.1283274 α      lambda       -0.2832747E-04
   maximum displ.:     0.0792847 α      in ANC's #2, #8, #3, ...

........................................................................
.............................. CYCLE    7 ..............................
........................................................................
   1    -36.0703688 -0.360704E+02  0.335E-02    3.21       0.0  T
   2    -36.0703690 -0.278058E-06  0.194E-02    3.21       1.0  T
   3    -36.0703684  0.656744E-06  0.633E-03    3.21       3.0  T
   4    -36.0703692 -0.816670E-06  0.745E-04    3.21      25.8  T
   5    -36.0703692 -0.402701E-08  0.436E-04    3.21      44.2  T
     SCC iter.                  ...        0 min,  0.014 sec
     gradient                   ...        0 min,  0.002 sec
 * total energy  :   -35.4269494 Eh     change       -0.3220680E-04 Eh
   gradient norm :     0.0016951 Eh/α   predicted    -0.1427640E-04 ( -55.67%)
   displ. norm   :     0.1378546 α      lambda       -0.2344227E-04
   maximum displ.:     0.0933586 α      in ANC's #2, #8, #3, ...

........................................................................
.............................. CYCLE    8 ..............................
........................................................................
   1    -36.0705139 -0.360705E+02  0.358E-02    3.20       0.0  T
   2    -36.0705141 -0.217967E-06  0.209E-02    3.20       1.0  T
   3    -36.0705135  0.631447E-06  0.593E-03    3.20       3.2  T
   4    -36.0705142 -0.771333E-06  0.671E-04    3.20      28.7  T
   5    -36.0705142 -0.168465E-08  0.418E-04    3.20      46.0  T
     SCC iter.                  ...        0 min,  0.014 sec
     gradient                   ...        0 min,  0.003 sec
 * total energy  :   -35.4269728 Eh     change       -0.2348216E-04 Eh
   gradient norm :     0.0015164 Eh/α   predicted    -0.1182119E-04 ( -49.66%)
   displ. norm   :     0.0681572 α      lambda       -0.1234405E-04
   maximum displ.:     0.0520835 α      in ANC's #2, #8, #1, ...

........................................................................
.............................. CYCLE    9 ..............................
........................................................................
   1    -36.0709458 -0.360709E+02  0.193E-02    3.20       0.0  T
   2    -36.0709459 -0.412641E-07  0.113E-02    3.20       1.7  T
   3    -36.0709458  0.656314E-07  0.189E-03    3.20      10.2  T
   4    -36.0709459 -0.867065E-07  0.351E-04    3.20      54.8  T
   5    -36.0709459 -0.151950E-09  0.197E-04    3.20      97.6  T
     SCC iter.                  ...        0 min,  0.013 sec
     gradient                   ...        0 min,  0.002 sec
 * total energy  :   -35.4269869 Eh     change       -0.1402094E-04 Eh
   gradient norm :     0.0009367 Eh/α   predicted    -0.6189263E-05 ( -55.86%)
   displ. norm   :     0.0802674 α      lambda       -0.1076144E-04
   maximum displ.:     0.0601301 α      in ANC's #2, #8, #1, ...

........................................................................
.............................. CYCLE   10 ..............................
........................................................................
   1    -36.0708259 -0.360708E+02  0.227E-02    3.21       0.0  T
   2    -36.0708259 -0.564996E-07  0.133E-02    3.21       1.4  T
   3    -36.0708259  0.525062E-07  0.183E-03    3.21      10.5  T
   4    -36.0708260 -0.759719E-07  0.431E-04    3.21      44.6  T
   5    -36.0708260 -0.868226E-09  0.228E-04    3.21      84.2  T
     SCC iter.                  ...        0 min,  0.013 sec
     gradient                   ...        0 min,  0.002 sec
 * total energy  :   -35.4269981 Eh     change       -0.1121050E-04 Eh
   gradient norm :     0.0006725 Eh/α   predicted    -0.5398816E-05 ( -51.84%)
   displ. norm   :     0.0464929 α      lambda       -0.3995888E-05
   maximum displ.:     0.0369164 α      in ANC's #2, #3, #8, ...

........................................................................
.............................. CYCLE   11 ..............................
........................................................................
   1    -36.0707442 -0.360707E+02  0.139E-02    3.21       0.0  T
   2    -36.0707442 -0.162539E-07  0.815E-03    3.21       2.4  T
   3    -36.0707442  0.663949E-08  0.814E-04    3.21      23.6  T
   4    -36.0707442 -0.132981E-07  0.242E-04    3.21      79.6  T
     SCC iter.                  ...        0 min,  0.011 sec
     gradient                   ...        0 min,  0.002 sec
 * total energy  :   -35.4270022 Eh     change       -0.4114278E-05 Eh
   gradient norm :     0.0004709 Eh/α   predicted    -0.2000390E-05 ( -51.38%)
   displ. norm   :     0.0240598 α      lambda       -0.1646134E-05
   maximum displ.:     0.0208197 α      in ANC's #2, #1, #6, ...

   *** GEOMETRY OPTIMIZATION CONVERGED AFTER 11 ITERATIONS ***

------------------------------------------------------------------------
 total energy gain   :        -0.0048566 Eh       -3.0476 kcal/mol
 total RMSD          :         0.1371854 a0        0.0726 Å
 total power (kW/mol):        -1.1591937 (step)  -56.6444 (real)
------------------------------------------------------------------------

 ANCopt (total)                0 d,  0 h,  0 min,  0.225 sec
 optimizer setup                ...        0 min,  0.000 sec (  0.069%)
 model hessian                  ...        0 min,  0.011 sec (  4.708%)
 ANC generation                 ...        0 min,  0.002 sec (  1.093%)
 coordinate transformation      ...        0 min,  0.000 sec (  0.130%)
 single point calculation       ...        0 min,  0.207 sec ( 91.900%)
 optimization log               ...        0 min,  0.002 sec (  0.693%)
 hessian update                 ...        0 min,  0.000 sec (  0.165%)
 rational function              ...        0 min,  0.001 sec (  0.518%)

================
 final structure:
================
27
 xtb: 6.5.1 (fef0646)
N            3.30573259891994        0.67679952312038       -0.99748964400337
C            2.42527002506367       -0.06481493402643       -0.04365073513407
C            1.00332608169424        0.46970871172616       -0.16542658064482
C            2.95902463964518        0.07572957349843        1.36364438752730
C            3.29600651448570       -1.07986263232045        2.09439122206444
C            3.76912058510506       -0.98473743057422        3.37252807587899
C            3.10838203110240        1.30948491981719        1.94565218299723
C            3.59621248243123        1.44133813219619        3.26048271857867
C            3.93604443067368        0.27203628707720        3.99045915965393
C            4.42429785630198        0.40581923765390        5.30665206899490
C            4.56695266592719        1.64127653167639        5.87415566325061
C            4.22834192044179        2.79810099476171        5.15279219734537
C            3.75472765049187        2.70180773063040        3.87460955295086
H            4.26075861168327        0.30174822218686       -0.97925128525256
H            3.34303172409608        1.66964536286739       -0.73760415980675
H            2.93481294895169        0.60496247597310       -1.95239091129632
H            2.43995891815874       -1.12094358469158       -0.32296843766075
H            0.95829897347831        1.52736084458337        0.07595374781014
H            0.35471254803992       -0.05379918310571        0.53031512093298
H            0.61300226674381        0.31333383747194       -1.16686441786159
H            3.17204564232895       -2.05146974719143        1.64089329833234
H            4.02410220175263       -1.87304356055989        3.93155878496917
H            2.84230064841476        2.21826660694048        1.42665118322678
H            4.68345743628944       -0.48547537341185        5.86019867716185
H            4.94065461735215        1.73747643738923        6.88310887470624
H            4.34603605179188        3.76411440080674        5.62120880364672
H            3.49325792863440        3.59306661550460        3.32330045163185

 Bond Distances (Angstroems)
 ---------------------------
N1-C2=1.4950         N1-H14=1.0262        N1-H15=1.0270        N1-H16=1.0269        C2-N1=1.4950         C2-C3=1.5240         
C2-C4=1.5117         C2-H17=1.0925        C3-C2=1.5240         C3-H18=1.0858        C3-H19=1.0857        C3-H20=1.0861        
C4-C2=1.5117         C4-C5=1.4082         C4-C7=1.3723         C5-C4=1.4082         C5-C6=1.3662         C5-H21=1.0794        
C6-C5=1.3662         C6-C9=1.4104         C6-H22=1.0801        C7-C4=1.3723         C7-C8=1.4086         C7-H23=1.0798        
C8-C7=1.4086         C8-C9=1.4197         C8-C13=1.4111        C9-C6=1.4104         C9-C8=1.4197         C9-C10=1.4102        
C10-C9=1.4102        C10-C11=1.3670       C10-H24=1.0807       C11-C10=1.3670       C11-C12=1.4047       C11-H25=1.0802       
C12-C11=1.4047       C12-C13=1.3665       C12-H26=1.0800       C13-C8=1.4111        C13-C12=1.3665       C13-H27=1.0801       
H14-N1=1.0262        H15-N1=1.0270        H16-N1=1.0269        H17-C2=1.0925        H18-C3=1.0858        H19-C3=1.0857        
H20-C3=1.0861        H21-C5=1.0794        H22-C6=1.0801        H23-C7=1.0798        H24-C10=1.0807       H25-C11=1.0802       
H26-C12=1.0800       H27-C13=1.0801       
 C  H  Rav=1.0828 sigma=0.0040  Rmin=1.0794  Rmax=1.0925    11
 C  C  Rav=1.4139 sigma=0.0483  Rmin=1.3662  Rmax=1.5240    13
 N  H  Rav=1.0267 sigma=0.0004  Rmin=1.0262  Rmax=1.0270     3
 N  C  Rav=1.4950 sigma=0.0000  Rmin=1.4950  Rmax=1.4950     1

 selected bond angles (degree)
 --------------------
H14-N1-C2=110.82               H15-N1-C2=109.85               H15-N1-H14=108.36              H16-N1-C2=110.23               
H16-N1-H14=109.09              H16-N1-H15=108.42              C3-C2-N1=108.94                C4-C2-N1=109.87                
C4-C2-C3=111.79                H17-C2-N1=107.97               H17-C2-C3=109.34               H17-C2-C4=108.85               
H18-C3-C2=111.26               H19-C3-C2=109.70               H19-C3-H18=107.60              H20-C3-C2=111.01               
H20-C3-H18=109.29              H20-C3-H19=107.86              C5-C4-C2=119.43                C7-C4-C2=121.12                
C7-C4-C5=119.45                C6-C5-C4=120.74                H21-C5-C4=119.55               H21-C5-C6=119.70               
C9-C6-C5=120.86                H22-C6-C5=120.58               H22-C6-C9=118.56               C8-C7-C4=121.18                
H23-C7-C4=121.73               H23-C7-C8=117.08               C9-C8-C7=119.06                C13-C8-C7=121.92               
C13-C8-C9=119.02               C8-C9-C6=118.71                C10-C9-C6=122.31               C10-C9-C8=118.99               
C11-C10-C9=120.62              H24-C10-C9=118.87              H24-C10-C11=120.51             

 selected dihedral angles (degree)
 ---------------------------------
C3-C2-N1-H14=183.34           C3-C2-N1-H15= 63.63           C3-C2-N1-H16=304.21           C4-C2-N1-H14= 60.57           
C4-C2-N1-H15=300.86           C4-C2-N1-H16=181.44           H17-C2-N1-H14=301.98          H17-C2-N1-H15=182.27          
H17-C2-N1-H16= 62.86          H18-C3-C2-N1=299.54           H18-C3-C2-C4= 61.15           H18-C3-C2-H17=181.76          
H19-C3-C2-N1=180.59           H19-C3-C2-C4=302.21           H19-C3-C2-H17= 62.81          H20-C3-C2-N1= 61.48           
H20-C3-C2-C4=183.10           H20-C3-C2-H17=303.70          C5-C4-C2-N1=238.32            C5-C4-C2-C3=117.24            
C5-C4-C2-H17=356.35           C7-C4-C2-N1= 58.96            C7-C4-C2-C3=297.88            C7-C4-C2-H17=176.99           
C6-C5-C4-C2=180.60            C6-C5-C4-C7=359.97            H21-C5-C4-C2=  0.17           H21-C5-C4-C7=179.53           
C9-C6-C5-C4=359.79            C9-C6-C5-H21=180.23           H22-C6-C5-C4=179.82           H22-C6-C5-H21=  0.26          
C8-C7-C4-C2=179.52            C8-C7-C4-C5=  0.16            H23-C7-C4-C2=  0.63           H23-C7-C4-C5=181.28           
C9-C8-C7-C4=359.94            C9-C8-C7-H23=178.88           C13-C8-C7-C4=180.06           C13-C8-C7-H23=359.00          
C8-C9-C6-C5=  0.31            C8-C9-C6-H22=180.28           C10-C9-C6-C5=180.13           C10-C9-C6-H22=  0.10          
C6-C9-C8-C7=359.83            C6-C9-C8-C13=179.71           C10-C9-C8-C7=180.00           C10-C9-C8-C13=359.88          
C11-C10-C9-C6=180.29          C11-C10-C9-C8=  0.11          H24-C10-C9-C6=  0.25          H24-C10-C9-C8=180.07          
           -------------------------------------------------
          |                Final Singlepoint                |
           -------------------------------------------------

          ...................................................
          :                      SETUP                      :
          :.................................................:
          :  # basis functions                  66          :
          :  # atomic orbitals                  66          :
          :  # shells                           40          :
          :  # electrons                        66          :
          :  max. iterations                   250          :
          :  Hamiltonian                  GFN2-xTB          :
          :  restarted?                      false          :
          :  GBSA solvation                   true          :
          :  PC potential                    false          :
          :  electronic temp.          300.0000000     K    :
          :  accuracy                    1.0000000          :
          :  -> integral cutoff          0.2500000E+02      :
          :  -> integral neglect         0.1000000E-07      :
          :  -> SCF convergence          0.1000000E-05 Eh   :
          :  -> wf. convergence          0.1000000E-03 e    :
          :  Broyden damping             0.4000000          :
          ...................................................

 iter      E             dE          RMSdq      gap      omega  full diag
   1    -36.0707442 -0.360707E+02  0.119E-04    3.21       0.0  T
   2    -36.0707442 -0.505409E-10  0.728E-05    3.21     264.5  T
   3    -36.0707442 -0.185238E-10  0.445E-05    3.21     432.6  T

   *** convergence criteria satisfied after 3 iterations ***

         #    Occupation            Energy/Eh            Energy/eV
      -------------------------------------------------------------
         1        2.0000           -0.6967771             -18.9603
       ...           ...                  ...                  ...
        27        2.0000           -0.4517869             -12.2937
        28        2.0000           -0.4433476             -12.0641
        29        2.0000           -0.4297189             -11.6932
        30        2.0000           -0.4219114             -11.4808
        31        2.0000           -0.4169427             -11.3456
        32        2.0000           -0.4038098             -10.9882
        33        2.0000           -0.3827802             -10.4160 (HOMO)
        34                         -0.2649677              -7.2101 (LUMO)
        35                         -0.2344949              -6.3809
        36                         -0.1934649              -5.2644
        37                         -0.1534494              -4.1756
        38                         -0.0654185              -1.7801
       ...                                ...                  ...
        66                          0.6925321              18.8448
      -------------------------------------------------------------
                  HL-Gap            0.1178124 Eh            3.2058 eV
             Fermi-level           -0.3238740 Eh           -8.8131 eV

 SCC (total)                   0 d,  0 h,  0 min,  0.012 sec
 SCC setup                      ...        0 min,  0.000 sec (  1.811%)
 Dispersion                     ...        0 min,  0.000 sec (  1.695%)
 classical contributions        ...        0 min,  0.000 sec (  0.261%)
 integral evaluation            ...        0 min,  0.001 sec (  6.180%)
 iterations                     ...        0 min,  0.008 sec ( 68.155%)
 molecular gradient             ...        0 min,  0.002 sec ( 16.642%)
 printout                       ...        0 min,  0.000 sec (  3.970%)

         :::::::::::::::::::::::::::::::::::::::::::::::::::::
         ::                     SUMMARY                     ::
         :::::::::::::::::::::::::::::::::::::::::::::::::::::
         :: total energy             -35.427002194366 Eh    ::
         :: total w/o Gsasa/hb       -35.416074057502 Eh    ::
         :: gradient norm              0.000472070378 Eh/a0 ::
         :: HOMO-LUMO gap              3.205839443323 eV    ::
         ::.................................................::
         :: SCC energy               -36.070744175729 Eh    ::
         :: -> isotropic ES            0.122068761573 Eh    ::
         :: -> anisotropic ES         -0.015773008547 Eh    ::
         :: -> anisotropic XC          0.024582415640 Eh    ::
         :: -> dispersion             -0.023993371270 Eh    ::
         :: -> Gsolv                  -0.113976071970 Eh    ::
         ::    -> Gelec               -0.103047935106 Eh    ::
         ::    -> Gsasa               -0.002142476436 Eh    ::
         ::    -> Ghb                 -0.009866420126 Eh    ::
         ::    -> Gshift               0.001080759698 Eh    ::
         :: repulsion energy           0.643666020343 Eh    ::
         :: add. restraining           0.000000000000 Eh    ::
         :: total charge               1.000000000000 e     ::
         :::::::::::::::::::::::::::::::::::::::::::::::::::::

           -------------------------------------------------
          |                Property Printout                |
           -------------------------------------------------

    * Orbital Energies and Occupations

         #    Occupation            Energy/Eh            Energy/eV
      -------------------------------------------------------------
         1        2.0000           -0.6967771             -18.9603
       ...           ...                  ...                  ...
        21        2.0000           -0.4843495             -13.1798
        22        2.0000           -0.4813824             -13.0991
        23        2.0000           -0.4758906             -12.9496
        24        2.0000           -0.4712757             -12.8241
        25        2.0000           -0.4644329             -12.6379
        26        2.0000           -0.4540726             -12.3559
        27        2.0000           -0.4517869             -12.2937
        28        2.0000           -0.4433476             -12.0641
        29        2.0000           -0.4297189             -11.6932
        30        2.0000           -0.4219114             -11.4808
        31        2.0000           -0.4169427             -11.3456
        32        2.0000           -0.4038098             -10.9882
        33        2.0000           -0.3827802             -10.4160 (HOMO)
        34                         -0.2649677              -7.2101 (LUMO)
        35                         -0.2344949              -6.3809
        36                         -0.1934649              -5.2644
        37                         -0.1534494              -4.1756
        38                         -0.0654185              -1.7801
        39                         -0.0420849              -1.1452
        40                          0.0477659               1.2998
        41                          0.0619038               1.6845
        42                          0.0967535               2.6328
        43                          0.1047905               2.8515
        44                          0.1108355               3.0160
       ...                                ...                  ...
        66                          0.6925321              18.8448
      -------------------------------------------------------------
                  HL-Gap            0.1178124 Eh            3.2058 eV
             Fermi-level           -0.3238740 Eh           -8.8131 eV

     #   Z          covCN         q      C6AA      α(0)
     1   7 N        3.486    -0.169    24.652     7.374
     2   6 C        3.786     0.027    20.136     6.391
     3   6 C        3.756    -0.150    23.450     6.905
     4   6 C        2.969     0.003    27.957     8.673
     5   6 C        2.919    -0.045    29.128     8.850
     6   6 C        2.917    -0.036    28.907     8.817
     7   6 C        2.922    -0.050    29.245     8.868
     8   6 C        2.986     0.012    27.740     8.640
     9   6 C        2.987     0.011    27.767     8.644
    10   6 C        2.918    -0.039    28.970     8.826
    11   6 C        2.916    -0.033    28.817     8.803
    12   6 C        2.916    -0.034    28.838     8.806
    13   6 C        2.918    -0.042    29.055     8.839
    14   1 H        0.859     0.310     0.684     1.296
    15   1 H        0.859     0.302     0.707     1.317
    16   1 H        0.859     0.316     0.668     1.280
    17   1 H        0.924     0.106     1.736     2.060
    18   1 H        0.925     0.077     2.011     2.218
    19   1 H        0.925     0.070     2.083     2.257
    20   1 H        0.925     0.079     1.986     2.204
    21   1 H        0.926     0.054     2.274     2.358
    22   1 H        0.926     0.034     2.531     2.488
    23   1 H        0.926     0.067     2.121     2.278
    24   1 H        0.926     0.030     2.590     2.517
    25   1 H        0.926     0.025     2.663     2.552
    26   1 H        0.926     0.029     2.595     2.519
    27   1 H        0.926     0.048     2.347     2.396

 Mol. C6AA /au·bohr⁶  :       7524.270154
 Mol. C8AA /au·bohr⁸  :     182343.121786
 Mol. α(0) /au        :        138.174031


Wiberg/Mayer (AO) data.
largest (>0.10) Wiberg bond orders for each atom

 ---------------------------------------------------------------------------
     #   Z sym  total        # sym  WBO       # sym  WBO       # sym  WBO
 ---------------------------------------------------------------------------
     1   7 N    3.648 --     2 C    0.941    14 H    0.890    15 H    0.889
                            16 H    0.885
     2   6 C    3.935 --     3 C    1.004     4 C    0.994    17 H    0.957
                             1 N    0.941
     3   6 C    3.979 --     2 C    1.004    18 H    0.978    20 H    0.978
                            19 H    0.978
     4   6 C    3.987 --     7 C    1.523     5 C    1.300     2 C    0.994
     5   6 C    3.989 --     6 C    1.557     4 C    1.300    21 H    0.966
     6   6 C    3.991 --     5 C    1.557     9 C    1.281    22 H    0.968
                             7 C    0.116
     7   6 C    3.989 --     4 C    1.523     8 C    1.285    23 H    0.959
                             6 C    0.116
     8   6 C    3.990 --     7 C    1.285    13 C    1.277     9 C    1.249
     9   6 C    3.990 --     6 C    1.281    10 C    1.279     8 C    1.249
    10   6 C    3.991 --    11 C    1.558     9 C    1.279    24 H    0.969
                            13 C    0.119
    11   6 C    3.990 --    10 C    1.558    12 C    1.319    25 H    0.971
    12   6 C    3.992 --    13 C    1.559    11 C    1.319    26 H    0.971
    13   6 C    3.988 --    12 C    1.559     8 C    1.277    27 H    0.967
                            10 C    0.119
    14   1 H    0.904 --     1 N    0.890
    15   1 H    0.909 --     1 N    0.889
    16   1 H    0.900 --     1 N    0.885
    17   1 H    0.989 --     2 C    0.957
    18   1 H    0.994 --     3 C    0.978
    19   1 H    0.995 --     3 C    0.978
    20   1 H    0.993 --     3 C    0.978
    21   1 H    0.997 --     5 C    0.966
    22   1 H    0.998 --     6 C    0.968
    23   1 H    0.995 --     7 C    0.959
    24   1 H    0.999 --    10 C    0.969
    25   1 H    0.999 --    11 C    0.971
    26   1 H    0.999 --    12 C    0.971
    27   1 H    0.997 --    13 C    0.967
 ---------------------------------------------------------------------------

Topologies differ in total number of bonds
Writing topology from bond orders to xtbtopo.mol

molecular dipole:
                 x           y           z       tot (Debye)
 q only:        5.856       1.265      -1.921
   full:        6.012       1.307      -1.657      16.195
molecular quadrupole (traceless):
                xx          xy          yy          xz          yz          zz
 q only:       31.618      11.217     -14.894     -17.564      -3.623     -16.724
  q+dip:       25.879      11.320     -13.732     -11.093      -2.388     -12.147
   full:       29.656      11.698     -16.280     -13.328      -2.816     -13.376

           -------------------------------------------------
          |                Geometry Summary                 |
           -------------------------------------------------

      molecular mass/u    :      172.2467045
   center of mass at/Å    :        3.3806105       0.7409875       2.5722205
  moments of inertia/u·Å² :        0.2657866E+03   0.1055858E+04   0.1213241E+04
rotational constants/cm⁻¹ :        0.6342545E-01   0.1596581E-01   0.1389471E-01

 * 27 selected distances

     #   Z          #   Z                                           value/Å
     1   7 N        2   6 C                                       1.4949968
     2   6 C        3   6 C                                       1.5239652 (max)
     4   6 C        5   6 C                                       1.4081695
     5   6 C        6   6 C                                       1.3662064
     4   6 C        7   6 C                                       1.3722949
     7   6 C        8   6 C                                       1.4085963
     6   6 C        9   6 C                                       1.4103840
     8   6 C        9   6 C                                       1.4197248
     9   6 C       10   6 C                                       1.4101962
    10   6 C       11   6 C                                       1.3670281
    11   6 C       12   6 C                                       1.4047298
     8   6 C       13   6 C                                       1.4110502
    12   6 C       13   6 C                                       1.3665043
     1   7 N       14   1 H                                       1.0261925 (min)
     1   7 N       15   1 H                                       1.0269736
     1   7 N       16   1 H                                       1.0269268
     2   6 C       17   1 H                                       1.0925393
     3   6 C       18   1 H                                       1.0857809
     3   6 C       19   1 H                                       1.0857333
     3   6 C       20   1 H                                       1.0861325
     5   6 C       21   1 H                                       1.0793736
     6   6 C       22   1 H                                       1.0801014
     7   6 C       23   1 H                                       1.0798360
    10   6 C       24   1 H                                       1.0807330
    11   6 C       25   1 H                                       1.0802289
    12   6 C       26   1 H                                       1.0800223
    13   6 C       27   1 H                                       1.0801161

 * 4 distinct bonds (by element types)

   Z      Z             #   av. dist./Å        max./Å        min./Å
   1 H    6 C          11     1.0827816     1.0925393     1.0793736
   6 C    6 C          12     1.4057375     1.5239652     1.3662064
   1 H    7 N           3     1.0266976     1.0269736     1.0261925
   6 C    7 N           1     1.4949968     1.4949968     1.4949968


optimized geometry written to: xtbopt.xyz


           -------------------------------------------------
          | TOTAL ENERGY              -35.427002194366 Eh   |
          | GRADIENT NORM               0.000472070378 Eh/α |
          | HOMO-LUMO GAP               3.205839443323 eV   |
           -------------------------------------------------

------------------------------------------------------------------------
 * finished run on 2023/01/24 at 16:55:22.413     
------------------------------------------------------------------------
 total:
 * wall-time:     0 d,  0 h,  0 min,  0.300 sec
 *  cpu-time:     0 d,  0 h,  0 min, 33.124 sec
 * ratio c/w:   110.401 speedup
 SCF:
 * wall-time:     0 d,  0 h,  0 min,  0.045 sec
 *  cpu-time:     0 d,  0 h,  0 min,  6.238 sec
 * ratio c/w:   139.841 speedup
 ANC optimizer:
 * wall-time:     0 d,  0 h,  0 min,  0.239 sec
 *  cpu-time:     0 d,  0 h,  0 min, 24.817 sec
 * ratio c/w:   103.886 speedup

