      -----------------------------------------------------------      
     |                   =====================                   |     
     |                           x T B                           |     
     |                   =====================                   |     
     |                         S. Grimme                         |     
     |          Mulliken Center for Theoretical Chemistry        |     
     |                    University of Bonn                     |     
      -----------------------------------------------------------      

   * xtb version 6.5.1 (fef0646) compiled by 'conda@b96dff2e9fd6' on 2023-01-04

   xtb is free software: you can redistribute it and/or modify it under
   the terms of the GNU Lesser General Public License as published by
   the Free Software Foundation, either version 3 of the License, or
   (at your option) any later version.
   
   xtb is distributed in the hope that it will be useful,
   but WITHOUT ANY WARRANTY; without even the implied warranty of
   MERCHANTABILITY or FITNESS FOR A PARTICULAR PURPOSE.  See the
   GNU Lesser General Public License for more details.
   
   Cite this work as:
   * C. Bannwarth, E. Caldeweyher, S. Ehlert, A. Hansen, P. Pracht,
     J. Seibert, S. Spicher, S. Grimme, WIREs Comput. Mol. Sci., 2020, 11,
     e01493. DOI: 10.1002/wcms.1493
   
   for GFN2-xTB:
   * C. Bannwarth, S. Ehlert and S. Grimme., J. Chem. Theory Comput., 2019,
     15, 1652-1671. DOI: 10.1021/acs.jctc.8b01176
   for GFN1-xTB:
   * S. Grimme, C. Bannwarth, P. Shushkov, J. Chem. Theory Comput., 2017,
     13, 1989-2009. DOI: 10.1021/acs.jctc.7b00118
   for GFN0-xTB:
   * P. Pracht, E. Caldeweyher, S. Ehlert, S. Grimme, ChemRxiv, 2019, preprint.
     DOI: 10.26434/chemrxiv.8326202.v1
   for GFN-FF:
   * S. Spicher and S. Grimme, Angew. Chem. Int. Ed., 2020, 59, 15665-15673.
     DOI: 10.1002/anie.202004239
   
   for ALPB and GBSA implicit solvation:
   * S. Ehlert, M. Stahn, S. Spicher, S. Grimme, J. Chem. Theory Comput.,
     2021, 17, 4250-4261. DOI: 10.1021/acs.jctc.1c00471
   
   for DFT-D4:
   * E. Caldeweyher, C. Bannwarth and S. Grimme, J. Chem. Phys., 2017,
     147, 034112. DOI: 10.1063/1.4993215
   * E. Caldeweyher, S. Ehlert, A. Hansen, H. Neugebauer, S. Spicher,
     C. Bannwarth and S. Grimme, J. Chem. Phys., 2019, 150, 154122.
     DOI: 10.1063/1.5090222
   * E. Caldeweyher, J.-M. Mewes, S. Ehlert and S. Grimme, Phys. Chem. Chem. Phys.
     2020, 22, 8499-8512. DOI: 10.1039/D0CP00502A
   
   for sTDA-xTB:
   * S. Grimme and C. Bannwarth, J. Chem. Phys., 2016, 145, 054103.
     DOI: 10.1063/1.4959605
   
   in the mass-spec context:
   * V. Asgeirsson, C. Bauer and S. Grimme, Chem. Sci., 2017, 8, 4879.
     DOI: 10.1039/c7sc00601b
   * J. Koopman and S. Grimme, ACS Omega 2019, 4, 12, 15120-15133.
     DOI: 10.1021/acsomega.9b02011
   
   for metadynamics refer to:
   * S. Grimme, J. Chem. Theory Comput., 2019, 155, 2847-2862
     DOI: 10.1021/acs.jctc.9b00143
   
   for SPH calculations refer to:
   * S. Spicher and S. Grimme, J. Chem. Theory Comput., 2021, 17, 1701-1714
     DOI: 10.1021/acs.jctc.0c01306
   
   with help from (in alphabetical order)
   P. Atkinson, C. Bannwarth, F. Bohle, G. Brandenburg, E. Caldeweyher
   M. Checinski, S. Dohm, S. Ehlert, S. Ehrlich, I. Gerasimov, C. Hölzer
   A. Katbashev, J. Koopman, C. Lavigne, S. Lehtola, F. März, M. Müller,
   F. Musil, H. Neugebauer, J. Pisarek, C. Plett, P. Pracht, F. Pultar,
   J. Seibert, P. Shushkov, S. Spicher, M. Stahn, M. Steiner, T. Strunk,
   J. Stückrath, T. Rose, and J. Unsleber
   
 * started run on 2023/01/23 at 14:21:23.725     

           -------------------------------------------------
          |                Calculation Setup                |
           -------------------------------------------------

          program call               : xtb init.xyz --opt -c 1 -u 0 -P 16
          hostname                   : gpg-woodward
          coordinate file            : init.xyz
          omp threads                :                    16

   ID    Z sym.   atoms
    1    7 N      1, 6
    2    6 C      2-5, 7-18
    3    1 H      19-39

           -------------------------------------------------
          |                 G F N 2 - x T B                 |
           -------------------------------------------------

        Reference                      10.1021/acs.jctc.8b01176
      * Hamiltonian:
        H0-scaling (s, p, d)           1.850000    2.230000    2.230000
        zeta-weighting                 0.500000
      * Dispersion:
        s8                             2.700000
        a1                             0.520000
        a2                             5.000000
        s9                             5.000000
      * Repulsion:
        kExp                           1.500000    1.000000
        rExp                           1.000000
      * Coulomb:
        alpha                          2.000000
        third order                    shell-resolved
        anisotropic                    true
        a3                             3.000000
        a5                             4.000000
        cn-shift                       1.200000
        cn-exp                         4.000000
        max-rad                        5.000000


          ...................................................
          :                      SETUP                      :
          :.................................................:
          :  # basis functions                  93          :
          :  # atomic orbitals                  93          :
          :  # shells                           57          :
          :  # electrons                        94          :
          :  max. iterations                   250          :
          :  Hamiltonian                  GFN2-xTB          :
          :  restarted?                      false          :
          :  GBSA solvation                  false          :
          :  PC potential                    false          :
          :  electronic temp.          300.0000000     K    :
          :  accuracy                    1.0000000          :
          :  -> integral cutoff          0.2500000E+02      :
          :  -> integral neglect         0.1000000E-07      :
          :  -> SCF convergence          0.1000000E-05 Eh   :
          :  -> wf. convergence          0.1000000E-03 e    :
          :  Broyden damping             0.4000000          :
          ...................................................

 iter      E             dE          RMSdq      gap      omega  full diag
   1    -50.8556098 -0.508556E+02  0.381E+00    0.39       0.0  T
   2    -50.9100216 -0.544118E-01  0.278E+00    0.46       1.0  T
   3    -50.6860345  0.223987E+00  0.346E+00    1.68       1.0  T
   4    -50.9911467 -0.305112E+00  0.111E+00    0.36       1.0  T
   5    -50.9500837  0.410630E-01  0.131E+00    0.36       1.0  T
   6    -50.9926300 -0.425463E-01  0.675E-01    0.34       1.0  T
   7    -51.0033618 -0.107318E-01  0.241E-01    0.32       1.0  T
   8    -51.0046633 -0.130147E-02  0.453E-02    0.32       1.0  T
   9    -51.0045898  0.735053E-04  0.591E-02    0.32       1.0  T
  10    -51.0045779  0.119070E-04  0.632E-02    0.32       1.0  T
  11    -51.0046931 -0.115202E-03  0.754E-03    0.32       2.1  T
  12    -51.0046913  0.178069E-05  0.107E-02    0.32       1.5  T
  13    -51.0046936 -0.228257E-05  0.600E-03    0.32       2.7  T
  14    -51.0046945 -0.896444E-06  0.213E-03    0.32       7.5  T
  15    -51.0046946 -0.129560E-06  0.751E-05    0.32     213.2  T
  16    -51.0046946  0.184407E-09  0.108E-04    0.32     148.5  T

   *** convergence criteria satisfied after 16 iterations ***

         #    Occupation            Energy/Eh            Energy/eV
      -------------------------------------------------------------
         1        2.0000           -0.9037963             -24.5935
       ...           ...                  ...                  ...
        41        2.0000           -0.4898400             -13.3292
        42        2.0000           -0.4873222             -13.2607
        43        2.0000           -0.4839199             -13.1681
        44        2.0000           -0.4695532             -12.7772
        45        2.0000           -0.4581357             -12.4665
        46        2.0000           -0.4213043             -11.4643
        47        1.9955           -0.3784431             -10.2980 (HOMO)
        48        0.0045           -0.3668533              -9.9826 (LUMO)
        49                         -0.2845450              -7.7429
        50                         -0.2771763              -7.5424
        51                         -0.2726052              -7.4180
        52                         -0.2657628              -7.2318
       ...                                ...                  ...
        93                          0.5976426              16.2627
      -------------------------------------------------------------
                  HL-Gap            0.0115898 Eh            0.3154 eV
             Fermi-level           -0.3726482 Eh          -10.1403 eV

 SCC (total)                   0 d,  0 h,  0 min,  0.109 sec
 SCC setup                      ...        0 min,  0.000 sec (  0.255%)
 Dispersion                     ...        0 min,  0.001 sec (  0.714%)
 classical contributions        ...        0 min,  0.000 sec (  0.085%)
 integral evaluation            ...        0 min,  0.002 sec (  2.116%)
 iterations                     ...        0 min,  0.099 sec ( 90.864%)
 molecular gradient             ...        0 min,  0.005 sec (  5.028%)
 printout                       ...        0 min,  0.001 sec (  0.634%)

         :::::::::::::::::::::::::::::::::::::::::::::::::::::
         ::                     SUMMARY                     ::
         :::::::::::::::::::::::::::::::::::::::::::::::::::::
         :: total energy             -50.212470619227 Eh    ::
         :: gradient norm              0.121411282987 Eh/a0 ::
         :: HOMO-LUMO gap              0.315375708550 eV    ::
         ::.................................................::
         :: SCC energy               -51.004694599331 Eh    ::
         :: -> isotropic ES            0.116889605616 Eh    ::
         :: -> anisotropic ES         -0.002917798374 Eh    ::
         :: -> anisotropic XC          0.032460555552 Eh    ::
         :: -> dispersion             -0.037356644249 Eh    ::
         :: repulsion energy           0.792005039560 Eh    ::
         :: add. restraining           0.000000000000 Eh    ::
         :: total charge               1.000000000000 e     ::
         :::::::::::::::::::::::::::::::::::::::::::::::::::::

      ----------------------------------------------------------- 
     |                   =====================                   |
     |                        A N C O P T                        |
     |                   =====================                   |
     |               Approximate Normal Coordinate               |
     |                Rational Function Optimizer                |
      ----------------------------------------------------------- 

          ...................................................
          :                      SETUP                      :
          :.................................................:
          :   optimization level            normal          :
          :   max. optcycles                   200          :
          :   ANC micro-cycles                  20          :
          :   degrees of freedom               111          :
          :.................................................:
          :   RF solver                   davidson          :
          :   write xtbopt.log                true          :
          :   linear?                        false          :
          :   energy convergence         0.5000000E-05 Eh   :
          :   grad. convergence          0.1000000E-02 Eh/α :
          :   maximium RF displ.         1.0000000          :
          :   Hlow (freq-cutoff)         0.1000000E-01      :
          :   Hmax (freq-cutoff)         5.0000000          :
          :   S6 in model hess.         20.0000000          :
          ...................................................

generating ANC from model Hessian ...
Using Lindh-Hessian (1995)
 Shifting diagonal of input Hessian by    9.5450428877658210E-003
 Lowest  eigenvalues of input Hessian
    0.000000    0.000000    0.000000    0.000000    0.000000    0.000000
    0.010000    0.010266    0.011077    0.011703    0.012746    0.013229
    0.013670    0.015211    0.015491    0.019466    0.020357    0.021424
 Highest eigenvalues
    1.722017    1.745381    1.849649    1.879803    1.983797    2.066223


........................................................................
.............................. CYCLE    1 ..............................
........................................................................
   1    -51.0046946 -0.510047E+02  0.197E-04    0.32       0.0  T
   2    -51.0046945  0.100656E-06  0.180E-03    0.32       8.9  T
   3    -51.0046946 -0.101643E-06  0.692E-05    0.32     231.4  T
   4    -51.0046946 -0.118597E-09  0.228E-05    0.32     700.9  T
     SCC iter.                  ...        0 min,  0.026 sec
     gradient                   ...        0 min,  0.006 sec
 * total energy  :   -50.2124706 Eh     change       -0.3107914E-09 Eh
   gradient norm :     0.1214115 Eh/α   predicted     0.0000000E+00 (-100.00%)
   displ. norm   :     0.5560188 α      lambda       -0.4098772E-01
   maximum displ.:     0.2398834 α      in ANC's #17, #61, #20, ...

........................................................................
.............................. CYCLE    2 ..............................
........................................................................
   1    -51.0341109 -0.510341E+02  0.408E-01    1.03       0.0  T
   2    -51.0341516 -0.407487E-04  0.245E-01    1.02       1.0  T
   3    -51.0309679  0.318376E-02  0.304E-01    1.03       1.0  T
   4    -51.0328330 -0.186513E-02  0.207E-01    1.03       1.0  T
   5    -51.0343204 -0.148745E-02  0.143E-02    1.02       1.1  T
   6    -51.0343266 -0.614706E-05  0.444E-03    1.02       3.6  T
   7    -51.0343266 -0.115327E-08  0.217E-03    1.02       7.4  T
   8    -51.0343266 -0.521912E-07  0.652E-04    1.02      24.6  T
   9    -51.0343266 -0.528586E-08  0.210E-04    1.02      76.1  T
     SCC iter.                  ...        0 min,  0.060 sec
     gradient                   ...        0 min,  0.005 sec
 * total energy  :   -50.2406615 Eh     change       -0.2819085E-01 Eh
   gradient norm :     0.0447968 Eh/α   predicted    -0.2683238E-01 (  -4.82%)
   displ. norm   :     0.5309070 α      lambda       -0.1481306E-01
   maximum displ.:     0.2440357 α      in ANC's #17, #11, #15, ...

........................................................................
.............................. CYCLE    3 ..............................
........................................................................
   1    -51.0509575 -0.510510E+02  0.319E-01    1.51       0.0  T
   2    -51.0508795  0.779663E-04  0.193E-01    1.50       1.0  T
   3    -51.0476985  0.318109E-02  0.305E-01    1.52       1.0  T
   4    -51.0509227 -0.322426E-02  0.588E-02    1.51       1.0  T
   5    -51.0510456 -0.122906E-03  0.889E-03    1.51       1.8  T
   6    -51.0510476 -0.200372E-05  0.312E-03    1.51       5.1  T
   7    -51.0510477 -0.438120E-07  0.166E-03    1.51       9.6  T
   8    -51.0510477 -0.317630E-07  0.369E-04    1.51      43.3  T
   9    -51.0510477 -0.123229E-08  0.161E-04    1.51      99.4  T
     SCC iter.                  ...        0 min,  0.056 sec
     gradient                   ...        0 min,  0.005 sec
 * total energy  :   -50.2507479 Eh     change       -0.1008640E-01 Eh
   gradient norm :     0.0357081 Eh/α   predicted    -0.9494176E-02 (  -5.87%)
   displ. norm   :     0.4549077 α      lambda       -0.5854676E-02
   maximum displ.:     0.1831619 α      in ANC's #11, #5, #8, ...

........................................................................
.............................. CYCLE    4 ..............................
........................................................................
   1    -51.0598627 -0.510599E+02  0.202E-01    1.81       0.0  T
   2    -51.0598471  0.156158E-04  0.123E-01    1.81       1.0  T
   3    -51.0589395  0.907613E-03  0.164E-01    1.82       1.0  T
   4    -51.0598837 -0.944209E-03  0.167E-02    1.81       1.0  T
   5    -51.0598927 -0.896476E-05  0.536E-03    1.81       3.0  T
   6    -51.0598934 -0.726170E-06  0.202E-03    1.81       7.9  T
   7    -51.0598934 -0.546968E-07  0.112E-03    1.81      14.3  T
   8    -51.0598935 -0.178696E-07  0.220E-04    1.81      72.9  T
   9    -51.0598935 -0.495866E-09  0.898E-05    1.81     178.3  T
     SCC iter.                  ...        0 min,  0.055 sec
     gradient                   ...        0 min,  0.005 sec
 * total energy  :   -50.2549787 Eh     change       -0.4230816E-02 Eh
   gradient norm :     0.0270390 Eh/α   predicted    -0.3533469E-02 ( -16.48%)
   displ. norm   :     0.4131283 α      lambda       -0.3171446E-02
   maximum displ.:     0.2346027 α      in ANC's #5, #8, #11, ...

........................................................................
.............................. CYCLE    5 ..............................
........................................................................
   1    -51.0679842 -0.510680E+02  0.155E-01    1.98       0.0  T
   2    -51.0679646  0.196500E-04  0.985E-02    1.99       1.0  T
   3    -51.0674968  0.467762E-03  0.127E-01    1.99       1.0  T
   4    -51.0680119 -0.515136E-03  0.129E-02    1.99       1.2  T
   5    -51.0680176 -0.571946E-05  0.536E-03    1.99       3.0  T
   6    -51.0680186 -0.942709E-06  0.162E-03    1.99       9.9  T
   7    -51.0680186 -0.153428E-07  0.922E-04    1.99      17.4  T
   8    -51.0680186 -0.138580E-07  0.193E-04    1.99      82.9  T
     SCC iter.                  ...        0 min,  0.049 sec
     gradient                   ...        0 min,  0.005 sec
 * total energy  :   -50.2571033 Eh     change       -0.2124587E-02 Eh
   gradient norm :     0.0128279 Eh/α   predicted    -0.1856368E-02 ( -12.62%)
   displ. norm   :     0.3128184 α      lambda       -0.1123304E-02
   maximum displ.:     0.2187242 α      in ANC's #5, #8, #11, ...

........................................................................
.............................. CYCLE    6 ..............................
........................................................................
   1    -51.0709580 -0.510710E+02  0.106E-01    2.01       0.0  T
   2    -51.0709417  0.162752E-04  0.684E-02    2.01       1.0  T
   3    -51.0707253  0.216442E-03  0.868E-02    2.01       1.0  T
   4    -51.0709699 -0.244580E-03  0.666E-03    2.01       2.4  T
   5    -51.0709714 -0.154923E-05  0.293E-03    2.01       5.5  T
   6    -51.0709717 -0.271497E-06  0.882E-04    2.01      18.2  T
   7    -51.0709717 -0.329322E-09  0.420E-04    2.01      38.2  T
     SCC iter.                  ...        0 min,  0.043 sec
     gradient                   ...        0 min,  0.005 sec
 * total energy  :   -50.2579112 Eh     change       -0.8079533E-03 Eh
   gradient norm :     0.0094172 Eh/α   predicted    -0.6166178E-03 ( -23.68%)
   displ. norm   :     0.3325312 α      lambda       -0.7472205E-03
   maximum displ.:     0.2502743 α      in ANC's #5, #4, #6, ...

........................................................................
.............................. CYCLE    7 ..............................
........................................................................
   1    -51.0726535 -0.510727E+02  0.109E-01    1.99       0.0  T
   2    -51.0726527  0.804959E-06  0.649E-02    1.99       1.0  T
   3    -51.0725493  0.103403E-03  0.541E-02    2.00       1.0  T
   4    -51.0726566 -0.107311E-03  0.251E-03    1.99       6.4  T
   5    -51.0726567 -0.133847E-06  0.112E-03    1.99      14.3  T
   6    -51.0726567 -0.561757E-08  0.572E-04    1.99      28.0  T
   7    -51.0726567 -0.561332E-08  0.196E-04    1.99      81.7  T
     SCC iter.                  ...        0 min,  0.044 sec
     gradient                   ...        0 min,  0.005 sec
 * total energy  :   -50.2584730 Eh     change       -0.5617991E-03 Eh
   gradient norm :     0.0074609 Eh/α   predicted    -0.4149242E-03 ( -26.14%)
   displ. norm   :     0.3467919 α      lambda       -0.5855139E-03
   maximum displ.:     0.2465085 α      in ANC's #5, #4, #6, ...

........................................................................
.............................. CYCLE    8 ..............................
........................................................................
   1    -51.0730668 -0.510731E+02  0.119E-01    1.97       0.0  T
   2    -51.0730682 -0.138007E-05  0.701E-02    1.97       1.0  T
   3    -51.0730584  0.978411E-05  0.177E-02    1.97       1.0  T
   4    -51.0730685 -0.100215E-04  0.487E-03    1.97       3.3  T
   5    -51.0730691 -0.622373E-06  0.224E-03    1.97       7.2  T
   6    -51.0730692 -0.134218E-06  0.812E-04    1.97      19.7  T
   7    -51.0730692 -0.956869E-08  0.229E-04    1.97      70.1  T
     SCC iter.                  ...        0 min,  0.044 sec
     gradient                   ...        0 min,  0.005 sec
 * total energy  :   -50.2589527 Eh     change       -0.4796567E-03 Eh
   gradient norm :     0.0075493 Eh/α   predicted    -0.3279696E-03 ( -31.62%)
   displ. norm   :     0.4539753 α      lambda       -0.6902905E-03
   maximum displ.:     0.3080899 α      in ANC's #5, #4, #6, ...

........................................................................
.............................. CYCLE    9 ..............................
........................................................................
   1    -51.0725021 -0.510725E+02  0.165E-01    1.95       0.0  T
   2    -51.0725045 -0.238205E-05  0.979E-02    1.95       1.0  T
   3    -51.0724654  0.390607E-04  0.317E-02    1.95       1.0  T
   4    -51.0725047 -0.393002E-04  0.844E-03    1.95       1.9  T
   5    -51.0725068 -0.210360E-05  0.294E-03    1.95       5.4  T
   6    -51.0725070 -0.160683E-06  0.114E-03    1.95      14.0  T
   7    -51.0725070 -0.145584E-07  0.292E-04    1.95      54.9  T
   8    -51.0725070 -0.774847E-09  0.135E-04    1.95     118.3  T
     SCC iter.                  ...        0 min,  0.051 sec
     gradient                   ...        0 min,  0.005 sec
 * total energy  :   -50.2595220 Eh     change       -0.5693050E-03 Eh
   gradient norm :     0.0092228 Eh/α   predicted    -0.4162784E-03 ( -26.88%)
   displ. norm   :     0.5405080 α      lambda       -0.7650452E-03
   maximum displ.:     0.3581727 α      in ANC's #5, #4, #6, ...

........................................................................
.............................. CYCLE   10 ..............................
........................................................................
   1    -51.0702618 -0.510703E+02  0.206E-01    1.94       0.0  T
   2    -51.0702635 -0.169078E-05  0.122E-01    1.94       1.0  T
   3    -51.0701048  0.158680E-03  0.657E-02    1.94       1.0  T
   4    -51.0702687 -0.163851E-03  0.675E-03    1.94       2.4  T
   5    -51.0702697 -0.102847E-05  0.334E-03    1.94       4.8  T
   6    -51.0702698 -0.142774E-06  0.161E-03    1.94      10.0  T
   7    -51.0702699 -0.496508E-07  0.349E-04    1.94      45.9  T
   8    -51.0702699 -0.114936E-08  0.177E-04    1.94      90.5  T
     SCC iter.                  ...        0 min,  0.053 sec
     gradient                   ...        0 min,  0.007 sec
 * total energy  :   -50.2601281 Eh     change       -0.6060928E-03 Eh
   gradient norm :     0.0111632 Eh/α   predicted    -0.4942810E-03 ( -18.45%)
   displ. norm   :     0.5089962 α      lambda       -0.7780539E-03
   maximum displ.:     0.3255605 α      in ANC's #5, #4, #8, ...

........................................................................
.............................. CYCLE   11 ..............................
........................................................................
   1    -51.0710222 -0.510710E+02  0.205E-01    1.94       0.0  T
   2    -51.0709673  0.549457E-04  0.131E-01    1.94       1.0  T
   3    -51.0700323  0.934935E-03  0.172E-01    1.94       1.0  T
   4    -51.0710505 -0.101818E-02  0.689E-03    1.94       2.3  T
   5    -51.0710517 -0.113620E-05  0.312E-03    1.94       5.1  T
   6    -51.0710517 -0.761746E-07  0.188E-03    1.94       8.5  T
   7    -51.0710518 -0.799346E-07  0.467E-04    1.94      34.3  T
   8    -51.0710518 -0.407991E-08  0.192E-04    1.94      83.6  T
     SCC iter.                  ...        0 min,  0.050 sec
     gradient                   ...        0 min,  0.005 sec
 * total energy  :   -50.2606989 Eh     change       -0.5707914E-03 Eh
   gradient norm :     0.0108822 Eh/α   predicted    -0.4898158E-03 ( -14.19%)
   displ. norm   :     0.4640376 α      lambda       -0.7273746E-03
   maximum displ.:     0.2876303 α      in ANC's #5, #4, #8, ...

........................................................................
.............................. CYCLE   12 ..............................
........................................................................
   1    -51.0702990 -0.510703E+02  0.186E-01    1.95       0.0  T
   2    -51.0703026 -0.363585E-05  0.110E-01    1.95       1.0  T
   3    -51.0700593  0.243334E-03  0.870E-02    1.95       1.0  T
   4    -51.0703100 -0.250683E-03  0.123E-02    1.95       1.3  T
   5    -51.0703147 -0.477125E-05  0.527E-03    1.95       3.0  T
   6    -51.0703154 -0.652349E-06  0.221E-03    1.95       7.3  T
   7    -51.0703154 -0.564315E-07  0.686E-04    1.95      23.3  T
   8    -51.0703154 -0.115758E-07  0.210E-04    1.95      76.2  T
     SCC iter.                  ...        0 min,  0.050 sec
     gradient                   ...        0 min,  0.005 sec
 * total energy  :   -50.2611352 Eh     change       -0.4363003E-03 Eh
   gradient norm :     0.0133475 Eh/α   predicted    -0.4420030E-03 (   1.31%)
   displ. norm   :     0.2914755 α      lambda       -0.6387194E-03
   maximum displ.:     0.1587350 α      in ANC's #5, #4, #8, ...

........................................................................
.............................. CYCLE   13 ..............................
........................................................................
   1    -51.0767209 -0.510767E+02  0.124E-01    1.97       0.0  T
   2    -51.0766764  0.445521E-04  0.867E-02    1.97       1.0  T
   3    -51.0765289  0.147511E-03  0.905E-02    1.97       1.0  T
   4    -51.0767466 -0.217737E-03  0.185E-02    1.97       1.0  T
   5    -51.0767595 -0.129247E-04  0.370E-03    1.97       4.3  T
   6    -51.0767598 -0.275225E-06  0.182E-03    1.97       8.8  T
   7    -51.0767598 -0.290940E-07  0.743E-04    1.97      21.6  T
   8    -51.0767598 -0.978457E-08  0.161E-04    1.97      99.5  T
     SCC iter.                  ...        0 min,  0.049 sec
     gradient                   ...        0 min,  0.005 sec
 * total energy  :   -50.2614767 Eh     change       -0.3415438E-03 Eh
   gradient norm :     0.0090178 Eh/α   predicted    -0.3465017E-03 (   1.45%)
   displ. norm   :     0.5234355 α      lambda       -0.5187638E-03
   maximum displ.:     0.3341264 α      in ANC's #5, #4, #6, ...

........................................................................
.............................. CYCLE   14 ..............................
........................................................................
   1    -51.0681076 -0.510681E+02  0.203E-01    1.94       0.0  T
   2    -51.0681177 -0.101580E-04  0.123E-01    1.95       1.0  T
   3    -51.0677709  0.346836E-03  0.102E-01    1.95       1.0  T
   4    -51.0681231 -0.352189E-03  0.221E-02    1.94       1.0  T
   5    -51.0681387 -0.155635E-04  0.468E-03    1.95       3.4  T
   6    -51.0681392 -0.575525E-06  0.229E-03    1.95       7.0  T
   7    -51.0681393 -0.606133E-07  0.102E-03    1.95      15.8  T
   8    -51.0681393 -0.207756E-07  0.208E-04    1.95      76.9  T
   9    -51.0681393 -0.441872E-09  0.107E-04    1.95     150.0  T
     SCC iter.                  ...        0 min,  0.052 sec
     gradient                   ...        0 min,  0.004 sec
 * total energy  :   -50.2616390 Eh     change       -0.1622791E-03 Eh
   gradient norm :     0.0134272 Eh/α   predicted    -0.3304501E-03 ( 103.63%)
   displ. norm   :     0.0985351 α      lambda       -0.3898439E-03
   maximum displ.:     0.0568736 α      in ANC's #5, #4, #10, ...

........................................................................
.............................. CYCLE   15 ..............................
........................................................................
   1    -51.0748161 -0.510748E+02  0.488E-02    1.94       0.0  T
   2    -51.0747934  0.226877E-04  0.414E-02    1.95       1.0  T
   3    -51.0748036 -0.101694E-04  0.315E-02    1.94       1.0  T
   4    -51.0748262 -0.225981E-04  0.309E-03    1.95       5.2  T
   5    -51.0748264 -0.210728E-06  0.163E-03    1.95       9.8  T
   6    -51.0748265 -0.463584E-07  0.945E-04    1.95      17.0  T
   7    -51.0748265 -0.132484E-07  0.356E-04    1.95      45.0  T
     SCC iter.                  ...        0 min,  0.037 sec
     gradient                   ...        0 min,  0.004 sec
 * total energy  :   -50.2618680 Eh     change       -0.2290052E-03 Eh
   gradient norm :     0.0072355 Eh/α   predicted    -0.1968132E-03 ( -14.06%)
   displ. norm   :     0.1577122 α      lambda       -0.1499153E-03
   maximum displ.:     0.0659947 α      in ANC's #5, #1, #4, ...

........................................................................
.............................. CYCLE   16 ..............................
........................................................................
   1    -51.0759312 -0.510759E+02  0.591E-02    1.94       0.0  T
   2    -51.0759251  0.605048E-05  0.368E-02    1.94       1.0  T
   3    -51.0758658  0.592965E-04  0.480E-02    1.93       1.0  T
   4    -51.0759353 -0.694457E-04  0.724E-03    1.94       2.2  T
   5    -51.0759370 -0.171595E-05  0.168E-03    1.94       9.5  T
   6    -51.0759371 -0.561045E-07  0.802E-04    1.94      20.0  T
   7    -51.0759371 -0.653723E-08  0.285E-04    1.94      56.1  T
     SCC iter.                  ...        0 min,  0.037 sec
     gradient                   ...        0 min,  0.004 sec
 * total energy  :   -50.2619755 Eh     change       -0.1075221E-03 Eh
   gradient norm :     0.0046782 Eh/α   predicted    -0.7682304E-04 ( -28.55%)
   displ. norm   :     0.2843672 α      lambda       -0.1746198E-03
   maximum displ.:     0.1270074 α      in ANC's #5, #1, #4, ...

........................................................................
.............................. CYCLE   17 ..............................
........................................................................
   1    -51.0753383 -0.510753E+02  0.110E-01    1.90       0.0  T
   2    -51.0753359  0.248154E-05  0.632E-02    1.90       1.0  T
   3    -51.0751724  0.163490E-03  0.744E-02    1.89       1.0  T
   4    -51.0753445 -0.172105E-03  0.106E-02    1.90       1.5  T
   5    -51.0753484 -0.388068E-05  0.253E-03    1.90       6.3  T
   6    -51.0753485 -0.159812E-06  0.104E-03    1.90      15.4  T
   7    -51.0753485 -0.100031E-07  0.452E-04    1.90      35.4  T
   8    -51.0753485 -0.300317E-08  0.128E-04    1.90     125.2  T
     SCC iter.                  ...        0 min,  0.042 sec
     gradient                   ...        0 min,  0.004 sec
 * total energy  :   -50.2620753 Eh     change       -0.9976386E-04 Eh
   gradient norm :     0.0052385 Eh/α   predicted    -0.9438243E-04 (  -5.39%)
   displ. norm   :     0.1928369 α      lambda       -0.1194765E-03
   maximum displ.:     0.0902139 α      in ANC's #1, #5, #4, ...

........................................................................
.............................. CYCLE   18 ..............................
........................................................................
   1    -51.0744067 -0.510744E+02  0.763E-02    1.88       0.0  T
   2    -51.0744012  0.549240E-05  0.447E-02    1.89       1.0  T
   3    -51.0742985  0.102658E-03  0.612E-02    1.88       1.0  T
   4    -51.0744112 -0.112654E-03  0.510E-03    1.89       3.1  T
   5    -51.0744121 -0.893344E-06  0.167E-03    1.89       9.6  T
   6    -51.0744121 -0.533950E-07  0.827E-04    1.89      19.4  T
   7    -51.0744121 -0.103626E-07  0.198E-04    1.89      80.7  T
     SCC iter.                  ...        0 min,  0.037 sec
     gradient                   ...        0 min,  0.004 sec
 * total energy  :   -50.2621466 Eh     change       -0.7134764E-04 Eh
   gradient norm :     0.0049037 Eh/α   predicted    -0.6196151E-04 ( -13.16%)
   displ. norm   :     0.1434355 α      lambda       -0.8841680E-04
   maximum displ.:     0.0799576 α      in ANC's #1, #2, #8, ...

........................................................................
.............................. CYCLE   19 ..............................
........................................................................
   1    -51.0748964 -0.510749E+02  0.505E-02    1.87       0.0  T
   2    -51.0748973 -0.918568E-06  0.289E-02    1.87       1.0  T
   3    -51.0748834  0.139411E-04  0.223E-02    1.87       1.0  T
   4    -51.0748969 -0.135192E-04  0.601E-03    1.87       2.7  T
   5    -51.0748983 -0.138575E-05  0.760E-04    1.87      21.1  T
   6    -51.0748983 -0.690947E-08  0.426E-04    1.87      37.6  T
   7    -51.0748983 -0.225361E-08  0.113E-04    1.87     141.6  T
     SCC iter.                  ...        0 min,  0.038 sec
     gradient                   ...        0 min,  0.004 sec
 * total energy  :   -50.2622138 Eh     change       -0.6720804E-04 Eh
   gradient norm :     0.0043650 Eh/α   predicted    -0.4511883E-04 ( -32.87%)
   displ. norm   :     0.2871337 α      lambda       -0.1372825E-03
   maximum displ.:     0.1564143 α      in ANC's #2, #1, #3, ...

........................................................................
.............................. CYCLE   20 ..............................
........................................................................
   1    -51.0750024 -0.510750E+02  0.107E-01    1.85       0.0  T
   2    -51.0750080 -0.556655E-05  0.626E-02    1.85       1.0  T
   3    -51.0749968  0.111656E-04  0.179E-02    1.85       1.0  T
   4    -51.0750045 -0.768731E-05  0.126E-02    1.85       1.3  T
   5    -51.0750095 -0.501030E-05  0.177E-03    1.85       9.1  T
   6    -51.0750095 -0.483964E-07  0.938E-04    1.85      17.1  T
   7    -51.0750096 -0.122039E-07  0.319E-04    1.85      50.2  T
     SCC iter.                  ...        0 min,  0.038 sec
     gradient                   ...        0 min,  0.007 sec
 * total energy  :   -50.2622976 Eh     change       -0.8373396E-04 Eh
   gradient norm :     0.0046949 Eh/α   predicted    -0.7430238E-04 ( -11.26%)
   displ. norm   :     0.1896932 α      lambda       -0.1010776E-03
   maximum displ.:     0.1360920 α      in ANC's #2, #1, #5, ...
 * RMSD in coord.:     0.7969120 α      energy gain  -0.4982695E-01 Eh

generating ANC from model Hessian ...
Using Lindh-Hessian (1995)
 Shifting diagonal of input Hessian by    9.5389179713734566E-003
 Lowest  eigenvalues of input Hessian
    0.000000    0.000000    0.000000    0.000000    0.000000    0.000000
    0.010000    0.010315    0.011087    0.011961    0.012812    0.013451
    0.013857    0.015002    0.015583    0.019190    0.022047    0.023023
 Highest eigenvalues
    1.722917    1.783635    1.820347    1.939070    2.041687    2.122440


........................................................................
.............................. CYCLE   21 ..............................
........................................................................
   1    -51.0775906 -0.510776E+02  0.495E-02    1.84       0.0  T
   2    -51.0775928 -0.223233E-05  0.295E-02    1.84       1.0  T
   3    -51.0775784  0.144879E-04  0.216E-02    1.85       1.0  T
   4    -51.0775912 -0.128579E-04  0.101E-02    1.84       1.6  T
   5    -51.0775945 -0.325532E-05  0.122E-03    1.84      13.1  T
   6    -51.0775945 -0.211154E-07  0.576E-04    1.84      27.8  T
   7    -51.0775945 -0.138733E-08  0.170E-04    1.84      94.1  T
     SCC iter.                  ...        0 min,  0.038 sec
     gradient                   ...        0 min,  0.004 sec
 * total energy  :   -50.2623483 Eh     change       -0.5072519E-04 Eh
   gradient norm :     0.0052843 Eh/α   predicted     0.0000000E+00 (-100.00%)
   displ. norm   :     0.0508090 α      lambda       -0.7900207E-04
   maximum displ.:     0.0318200 α      in ANC's #2, #7, #1, ...

........................................................................
.............................. CYCLE   22 ..............................
........................................................................
   1    -51.0759190 -0.510759E+02  0.224E-02    1.86       0.0  T
   2    -51.0759176  0.144369E-05  0.150E-02    1.86       1.1  T
   3    -51.0759096  0.799864E-05  0.186E-02    1.86       1.0  T
   4    -51.0759197 -0.101398E-04  0.108E-03    1.86      14.8  T
   5    -51.0759198 -0.437426E-07  0.282E-04    1.86      56.8  T
   6    -51.0759198 -0.778847E-09  0.163E-04    1.86      98.4  T
     SCC iter.                  ...        0 min,  0.033 sec
     gradient                   ...        0 min,  0.004 sec
 * total energy  :   -50.2624075 Eh     change       -0.5918078E-04 Eh
   gradient norm :     0.0025148 Eh/α   predicted    -0.3979786E-04 ( -32.75%)
   displ. norm   :     0.0981527 α      lambda       -0.7162093E-04
   maximum displ.:     0.0661961 α      in ANC's #2, #7, #1, ...

........................................................................
.............................. CYCLE   23 ..............................
........................................................................
   1    -51.0746420 -0.510746E+02  0.366E-02    1.87       0.0  T
   2    -51.0746352  0.683211E-05  0.269E-02    1.86       1.0  T
   3    -51.0746238  0.113953E-04  0.280E-02    1.87       1.0  T
   4    -51.0746449 -0.211050E-04  0.187E-03    1.87       8.6  T
   5    -51.0746451 -0.142237E-06  0.475E-04    1.87      33.7  T
   6    -51.0746451 -0.425314E-08  0.270E-04    1.87      59.2  T
     SCC iter.                  ...        0 min,  0.033 sec
     gradient                   ...        0 min,  0.004 sec
 * total energy  :   -50.2624555 Eh     change       -0.4800453E-04 Eh
   gradient norm :     0.0017557 Eh/α   predicted    -0.3615918E-04 ( -24.68%)
   displ. norm   :     0.1264410 α      lambda       -0.3264162E-04
   maximum displ.:     0.0889264 α      in ANC's #2, #1, #7, ...

........................................................................
.............................. CYCLE   24 ..............................
........................................................................
   1    -51.0748242 -0.510748E+02  0.415E-02    1.88       0.0  T
   2    -51.0748221  0.206888E-05  0.262E-02    1.88       1.0  T
   3    -51.0747892  0.329739E-04  0.334E-02    1.88       1.0  T
   4    -51.0748254 -0.362077E-04  0.181E-03    1.88       8.8  T
   5    -51.0748255 -0.136738E-06  0.350E-04    1.88      45.7  T
   6    -51.0748255 -0.136403E-08  0.207E-04    1.88      77.3  T
     SCC iter.                  ...        0 min,  0.033 sec
     gradient                   ...        0 min,  0.004 sec
 * total energy  :   -50.2624914 Eh     change       -0.3590567E-04 Eh
   gradient norm :     0.0028513 Eh/α   predicted    -0.1643748E-04 ( -54.22%)
   displ. norm   :     0.0744513 α      lambda       -0.2986764E-04
   maximum displ.:     0.0540183 α      in ANC's #2, #1, #7, ...

........................................................................
.............................. CYCLE   25 ..............................
........................................................................
   1    -51.0755649 -0.510756E+02  0.220E-02    1.88       0.0  T
   2    -51.0755649  0.325951E-07  0.130E-02    1.88       1.2  T
   3    -51.0755608  0.406431E-05  0.113E-02    1.88       1.4  T
   4    -51.0755650 -0.421327E-05  0.103E-03    1.88      15.5  T
   5    -51.0755651 -0.377848E-07  0.336E-04    1.88      47.7  T
   6    -51.0755651 -0.221476E-08  0.158E-04    1.88     101.1  T
     SCC iter.                  ...        0 min,  0.033 sec
     gradient                   ...        0 min,  0.004 sec
 * total energy  :   -50.2625180 Eh     change       -0.2660007E-04 Eh
   gradient norm :     0.0021907 Eh/α   predicted    -0.1501838E-04 ( -43.54%)
   displ. norm   :     0.1266717 α      lambda       -0.4625294E-04
   maximum displ.:     0.0915200 α      in ANC's #2, #1, #7, ...

........................................................................
.............................. CYCLE   26 ..............................
........................................................................
   1    -51.0764447 -0.510764E+02  0.360E-02    1.88       0.0  T
   2    -51.0764432  0.159161E-05  0.220E-02    1.88       1.0  T
   3    -51.0764199  0.232160E-04  0.293E-02    1.88       1.0  T
   4    -51.0764457 -0.258052E-04  0.258E-03    1.88       6.2  T
   5    -51.0764460 -0.259146E-06  0.669E-04    1.88      23.9  T
   6    -51.0764460 -0.763217E-08  0.333E-04    1.88      48.1  T
     SCC iter.                  ...        0 min,  0.033 sec
     gradient                   ...        0 min,  0.004 sec
 * total energy  :   -50.2625568 Eh     change       -0.3884258E-04 Eh
   gradient norm :     0.0013736 Eh/α   predicted    -0.2350225E-04 ( -39.49%)
   displ. norm   :     0.2300073 α      lambda       -0.4363651E-04
   maximum displ.:     0.1678128 α      in ANC's #2, #1, #7, ...

........................................................................
.............................. CYCLE   27 ..............................
........................................................................
   1    -51.0768496 -0.510768E+02  0.622E-02    1.88       0.0  T
   2    -51.0768449  0.464690E-05  0.377E-02    1.88       1.0  T
   3    -51.0767791  0.658211E-04  0.503E-02    1.88       1.0  T
   4    -51.0768527 -0.736331E-04  0.537E-03    1.88       3.0  T
   5    -51.0768539 -0.112813E-05  0.125E-03    1.88      12.8  T
   6    -51.0768539 -0.250831E-07  0.648E-04    1.88      24.7  T
   7    -51.0768539 -0.450727E-08  0.284E-04    1.88      56.4  T
     SCC iter.                  ...        0 min,  0.038 sec
     gradient                   ...        0 min,  0.004 sec
 * total energy  :   -50.2626081 Eh     change       -0.5123185E-04 Eh
   gradient norm :     0.0021682 Eh/α   predicted    -0.2233260E-04 ( -56.41%)
   displ. norm   :     0.1142804 α      lambda       -0.2876098E-04
   maximum displ.:     0.0850418 α      in ANC's #2, #1, #4, ...

........................................................................
.............................. CYCLE   28 ..............................
........................................................................
   1    -51.0768198 -0.510768E+02  0.285E-02    1.88       0.0  T
   2    -51.0768197  0.104089E-06  0.166E-02    1.88       1.0  T
   3    -51.0768101  0.963374E-05  0.186E-02    1.88       1.0  T
   4    -51.0768202 -0.100815E-04  0.290E-03    1.88       5.5  T
   5    -51.0768205 -0.319795E-06  0.604E-04    1.88      26.5  T
   6    -51.0768205 -0.580393E-08  0.318E-04    1.88      50.3  T
     SCC iter.                  ...        0 min,  0.032 sec
     gradient                   ...        0 min,  0.004 sec
 * total energy  :   -50.2626348 Eh     change       -0.2669779E-04 Eh
   gradient norm :     0.0019871 Eh/α   predicted    -0.1456864E-04 ( -45.43%)
   displ. norm   :     0.1951778 α      lambda       -0.3581301E-04
   maximum displ.:     0.1445544 α      in ANC's #2, #1, #4, ...

........................................................................
.............................. CYCLE   29 ..............................
........................................................................
   1    -51.0765478 -0.510765E+02  0.464E-02    1.88       0.0  T
   2    -51.0765488 -0.103364E-05  0.269E-02    1.88       1.0  T
   3    -51.0765457  0.308579E-05  0.110E-02    1.88       1.5  T
   4    -51.0765485 -0.275852E-05  0.484E-03    1.88       3.3  T
   5    -51.0765493 -0.771666E-06  0.113E-03    1.88      14.2  T
   6    -51.0765493 -0.258289E-07  0.514E-04    1.88      31.1  T
   7    -51.0765493 -0.203192E-08  0.270E-04    1.88      59.4  T
     SCC iter.                  ...        0 min,  0.038 sec
     gradient                   ...        0 min,  0.004 sec
 * total energy  :   -50.2626810 Eh     change       -0.4624566E-04 Eh
   gradient norm :     0.0012440 Eh/α   predicted    -0.1821029E-04 ( -60.62%)
   displ. norm   :     0.2083860 α      lambda       -0.3150705E-04
   maximum displ.:     0.1532099 α      in ANC's #2, #1, #3, ...

........................................................................
.............................. CYCLE   30 ..............................
........................................................................
   1    -51.0761651 -0.510762E+02  0.491E-02    1.88       0.0  T
   2    -51.0761656 -0.531638E-06  0.297E-02    1.88       1.0  T
   3    -51.0761469  0.186884E-04  0.229E-02    1.88       1.0  T
   4    -51.0761659 -0.190165E-04  0.464E-03    1.88       3.5  T
   5    -51.0761666 -0.640194E-06  0.833E-04    1.88      19.2  T
   6    -51.0761666 -0.710916E-08  0.425E-04    1.88      37.7  T
     SCC iter.                  ...        0 min,  0.032 sec
     gradient                   ...        0 min,  0.004 sec
 * total energy  :   -50.2627216 Eh     change       -0.4057461E-04 Eh
   gradient norm :     0.0010708 Eh/α   predicted    -0.1605814E-04 ( -60.42%)
   displ. norm   :     0.2104934 α      lambda       -0.2659306E-04
   maximum displ.:     0.1530523 α      in ANC's #2, #1, #3, ...

........................................................................
.............................. CYCLE   31 ..............................
........................................................................
   1    -51.0761737 -0.510762E+02  0.504E-02    1.87       0.0  T
   2    -51.0761733  0.456155E-06  0.315E-02    1.87       1.0  T
   3    -51.0761334  0.398603E-04  0.340E-02    1.87       1.0  T
   4    -51.0761750 -0.416415E-04  0.296E-03    1.87       5.4  T
   5    -51.0761753 -0.251506E-06  0.753E-04    1.87      21.3  T
   6    -51.0761753 -0.478143E-08  0.422E-04    1.87      38.0  T
     SCC iter.                  ...        0 min,  0.032 sec
     gradient                   ...        0 min,  0.004 sec
 * total energy  :   -50.2627561 Eh     change       -0.3452616E-04 Eh
   gradient norm :     0.0011923 Eh/α   predicted    -0.1355872E-04 ( -60.73%)
   displ. norm   :     0.2378035 α      lambda       -0.2582355E-04
   maximum displ.:     0.1710346 α      in ANC's #2, #1, #3, ...

........................................................................
.............................. CYCLE   32 ..............................
........................................................................
   1    -51.0760810 -0.510761E+02  0.583E-02    1.87       0.0  T
   2    -51.0760810  0.259386E-08  0.355E-02    1.87       1.0  T
   3    -51.0760474  0.336068E-04  0.311E-02    1.87       1.0  T
   4    -51.0760822 -0.347934E-04  0.286E-03    1.87       5.6  T
   5    -51.0760824 -0.231075E-06  0.781E-04    1.87      20.5  T
   6    -51.0760824 -0.409548E-08  0.467E-04    1.87      34.3  T
     SCC iter.                  ...        0 min,  0.032 sec
     gradient                   ...        0 min,  0.004 sec
 * total energy  :   -50.2627892 Eh     change       -0.3307609E-04 Eh
   gradient norm :     0.0012849 Eh/α   predicted    -0.1323655E-04 ( -59.98%)
   displ. norm   :     0.3356764 α      lambda       -0.3030205E-04
   maximum displ.:     0.2392081 α      in ANC's #2, #1, #3, ...

........................................................................
.............................. CYCLE   33 ..............................
........................................................................
   1    -51.0758878 -0.510759E+02  0.841E-02    1.86       0.0  T
   2    -51.0758882 -0.402661E-06  0.507E-02    1.86       1.0  T
   3    -51.0758385  0.497401E-04  0.378E-02    1.86       1.0  T
   4    -51.0758898 -0.513252E-04  0.391E-03    1.86       4.1  T
   5    -51.0758902 -0.428266E-06  0.104E-03    1.86      15.4  T
   6    -51.0758902 -0.643114E-08  0.632E-04    1.86      25.3  T
   7    -51.0758902 -0.619656E-08  0.209E-04    1.86      76.8  T
     SCC iter.                  ...        0 min,  0.038 sec
     gradient                   ...        0 min,  0.004 sec
 * total energy  :   -50.2628241 Eh     change       -0.3494104E-04 Eh
   gradient norm :     0.0014197 Eh/α   predicted    -0.1591053E-04 ( -54.46%)
   displ. norm   :     0.4065756 α      lambda       -0.2677608E-04
   maximum displ.:     0.2871283 α      in ANC's #2, #1, #5, ...

........................................................................
.............................. CYCLE   34 ..............................
........................................................................
   1    -51.0756487 -0.510756E+02  0.102E-01    1.86       0.0  T
   2    -51.0756505 -0.184733E-05  0.593E-02    1.86       1.0  T
   3    -51.0756492  0.128535E-05  0.704E-03    1.86       2.3  T
   4    -51.0756508 -0.156346E-05  0.306E-03    1.86       5.2  T
   5    -51.0756510 -0.179108E-06  0.176E-03    1.86       9.1  T
   6    -51.0756510 -0.556570E-07  0.842E-04    1.86      19.0  T
   7    -51.0756510 -0.172489E-07  0.255E-04    1.86      62.8  T
     SCC iter.                  ...        0 min,  0.038 sec
     gradient                   ...        0 min,  0.004 sec
 * total energy  :   -50.2628486 Eh     change       -0.2448314E-04 Eh
   gradient norm :     0.0016775 Eh/α   predicted    -0.1437232E-04 ( -41.30%)
   displ. norm   :     0.1939372 α      lambda       -0.1302008E-04
   maximum displ.:     0.1321080 α      in ANC's #2, #1, #5, ...

........................................................................
.............................. CYCLE   35 ..............................
........................................................................
   1    -51.0767707 -0.510768E+02  0.488E-02    1.86       0.0  T
   2    -51.0767711 -0.399563E-06  0.285E-02    1.86       1.0  T
   3    -51.0767708  0.295725E-06  0.361E-03    1.86       4.4  T
   4    -51.0767711 -0.294755E-06  0.189E-03    1.86       8.5  T
   5    -51.0767712 -0.972508E-07  0.803E-04    1.86      19.9  T
   6    -51.0767712 -0.146519E-07  0.289E-04    1.86      55.5  T
     SCC iter.                  ...        0 min,  0.033 sec
     gradient                   ...        0 min,  0.004 sec
 * total energy  :   -50.2628613 Eh     change       -0.1274213E-04 Eh
   gradient norm :     0.0009009 Eh/α   predicted    -0.6621476E-05 ( -48.03%)
   displ. norm   :     0.1859473 α      lambda       -0.8189627E-05
   maximum displ.:     0.1237437 α      in ANC's #1, #2, #5, ...

........................................................................
.............................. CYCLE   36 ..............................
........................................................................
   1    -51.0772151 -0.510772E+02  0.476E-02    1.86       0.0  T
   2    -51.0772152 -0.191475E-07  0.274E-02    1.86       1.0  T
   3    -51.0772024  0.127442E-04  0.204E-02    1.86       1.0  T
   4    -51.0772156 -0.131723E-04  0.214E-03    1.86       7.5  T
   5    -51.0772157 -0.162376E-06  0.633E-04    1.86      25.3  T
   6    -51.0772157 -0.453332E-08  0.320E-04    1.86      50.1  T
     SCC iter.                  ...        0 min,  0.032 sec
     gradient                   ...        0 min,  0.004 sec
 * total energy  :   -50.2628698 Eh     change       -0.8448083E-05 Eh
   gradient norm :     0.0006235 Eh/α   predicted    -0.4159126E-05 ( -50.77%)
   displ. norm   :     0.1050780 α      lambda       -0.5405147E-05
   maximum displ.:     0.0662962 α      in ANC's #1, #2, #5, ...

........................................................................
.............................. CYCLE   37 ..............................
........................................................................
   1    -51.0776881 -0.510777E+02  0.280E-02    1.86       0.0  T
   2    -51.0776876  0.512827E-06  0.163E-02    1.86       1.0  T
   3    -51.0776747  0.128559E-04  0.212E-02    1.86       1.0  T
   4    -51.0776885 -0.137678E-04  0.129E-03    1.86      12.5  T
   5    -51.0776886 -0.580589E-07  0.446E-04    1.86      35.9  T
   6    -51.0776886 -0.176375E-08  0.243E-04    1.86      65.9  T
     SCC iter.                  ...        0 min,  0.032 sec
     gradient                   ...        0 min,  0.004 sec
 * total energy  :   -50.2628751 Eh     change       -0.5306712E-05 Eh
   gradient norm :     0.0006606 Eh/α   predicted    -0.2716953E-05 ( -48.80%)
   displ. norm   :     0.1158604 α      lambda       -0.3593483E-05
   maximum displ.:     0.0744746 α      in ANC's #1, #2, #5, ...

........................................................................
.............................. CYCLE   38 ..............................
........................................................................
   1    -51.0772450 -0.510772E+02  0.300E-02    1.86       0.0  T
   2    -51.0772452 -0.206730E-06  0.175E-02    1.86       1.0  T
   3    -51.0772442  0.950510E-06  0.566E-03    1.86       2.8  T
   4    -51.0772451 -0.931547E-06  0.203E-03    1.86       7.9  T
   5    -51.0772453 -0.124491E-06  0.675E-04    1.86      23.7  T
   6    -51.0772453 -0.981006E-08  0.288E-04    1.86      55.7  T
     SCC iter.                  ...        0 min,  0.032 sec
     gradient                   ...        0 min,  0.004 sec
 * total energy  :   -50.2628777 Eh     change       -0.2614542E-05 Eh
   gradient norm :     0.0006771 Eh/α   predicted    -0.1808034E-05 ( -30.85%)
   displ. norm   :     0.0210418 α      lambda       -0.1335476E-05
   maximum displ.:     0.0137101 α      in ANC's #2, #4, #5, ...

   *** GEOMETRY OPTIMIZATION CONVERGED AFTER 38 ITERATIONS ***

------------------------------------------------------------------------
 total energy gain   :        -0.0504071 Eh      -31.6309 kcal/mol
 total RMSD          :         1.0372108 a0        0.5489 Å
 total power (kW/mol):        -3.4827320 (step)  -70.2443 (real)
------------------------------------------------------------------------

 ANCopt (total)                0 d,  0 h,  0 min,  1.884 sec
 optimizer setup                ...        0 min,  0.000 sec (  0.008%)
 model hessian                  ...        0 min,  0.036 sec (  1.934%)
 ANC generation                 ...        0 min,  0.012 sec (  0.611%)
 coordinate transformation      ...        0 min,  0.002 sec (  0.113%)
 single point calculation       ...        0 min,  1.808 sec ( 95.970%)
 optimization log               ...        0 min,  0.006 sec (  0.293%)
 hessian update                 ...        0 min,  0.002 sec (  0.123%)
 rational function              ...        0 min,  0.006 sec (  0.326%)

================
 final structure:
================
39
 xtb: 6.5.1 (fef0646)
N           16.32804111819154        3.51121799185397       -2.12143642320019
C           15.04008625395913        3.40804827631683       -1.36018728252571
C           14.60244317081825        1.95703373134456       -1.23013972009144
C           13.27207158621298        1.86942860347641       -0.48082153946394
C           12.77783296224783        0.41735218740667       -0.33936246382906
N           11.50824802986060        0.38813365094526        0.31727661338110
C           11.37171373205088       -0.08677762681895        1.68970206130932
C            9.78488101426101        0.00676065014113        1.91528007620650
C            9.82634845355357        1.31773013158903        2.60815222845535
C           10.38242907270932        1.30493667633882        3.86361824216089
C           11.81537479498146        1.42263047911681        3.73022016824475
C           12.23766946423448        0.71751071484466        2.65756933537849
C           10.30679862577910        0.33033543203086       -0.35842014105696
C            9.25257169235755        0.05616142840278        0.52100245217550
C            7.95880252684434       -0.03868462396276        0.06645027677716
C            7.71312857590128        0.13329358834709       -1.29193556374105
C            8.75290909045811        0.41465435372162       -2.15925925712554
C           10.06184338483081        0.52298557021473       -1.70743790651126
H           16.63434450420219        4.48825153846856       -2.21098399156941
H           16.20836260787461        3.11338751231267       -3.06264643353411
H           17.06229480501488        2.97623425839588       -1.63860296652767
H           14.28084937579440        3.98509170343545       -1.88974550561957
H           15.18679993583127        3.84930796064567       -0.37355149557283
H           15.35617728078351        1.38317779640872       -0.68698333558489
H           14.48019598916150        1.51196507328926       -2.21998044356146
H           12.50728578144332        2.43599949524070       -1.01315639002255
H           13.37268332167777        2.30019890000708        0.51625393342978
H           13.50332535557707       -0.16643129187205        0.23566229594408
H           12.69336136307242       -0.03615286377956       -1.33405220754976
H           11.70882416583937       -1.14060266926922        1.73704957941190
H            9.41014465395069       -0.80788652317138        2.53222416245253
H           10.18759459864492        2.10108716253520        1.94333590318572
H            9.99566333125216        0.68155759472940        4.65791443552237
H           12.50093257951057        1.81583092885744        4.46797703103911
H           13.30141222551533        0.57347387214799        2.50618117311150
H            7.15101266310833       -0.24504565041170        0.75157691187961
H            6.70587374814845        0.05318432523405       -1.66889164281616
H            8.54818522982210        0.55444200739609       -3.21041618749702
H           10.85668293452457        0.74660765409178       -2.40417598266263

 Bond Distances (Angstroems)
 ---------------------------
N1-C2=1.4997         N1-H19=1.0278        N1-H20=1.0288        N1-H21=1.0288        C2-N1=1.4997         C2-C3=1.5211         
C2-H22=1.0908        C2-H23=1.0907        C3-C2=1.5211         C3-C4=1.5294         C3-H24=1.0920        C3-H25=1.0922        
C4-C3=1.5294         C4-C5=1.5404         C4-H26=1.0905        C4-H27=1.0908        C5-C4=1.5404         C5-N6=1.4296         
C5-H28=1.0944        C5-H29=1.0965        N6-C5=1.4296         N6-C7=1.4587         N6-C13=1.3796        C7-N6=1.4587         
C7-C8=1.6055         C7-C12=1.5276        C7-H30=1.1074        C8-C7=1.6055         C8-C9=1.4834         C8-C14=1.4933        
C8-H31=1.0884        C9-C8=1.4834         C9-C10=1.3732        C9-H32=1.0891        C10-C9=1.3732        C10-C11=1.4439       
C10-H33=1.0812       C11-C10=1.4439       C11-C12=1.3513       C11-H34=1.0811       C12-C7=1.5276        C12-C11=1.3513       
C12-H35=1.0841       C13-N6=1.3796        C13-C14=1.4000       C13-C18=1.3845       C14-C8=1.4933        C14-C13=1.4000       
C14-C15=1.3746       C15-C14=1.3746       C15-C16=1.3911       C15-H36=1.0791       C16-C15=1.3911       C16-C17=1.3830       
C16-H37=1.0785       C17-C16=1.3830       C17-C18=1.3890       C17-H38=1.0800       C18-C13=1.3845       C18-C17=1.3890       
C18-H39=1.0804       H19-N1=1.0278        H20-N1=1.0288        H21-N1=1.0288        H22-C2=1.0908        H23-C2=1.0907        
H24-C3=1.0920        H25-C3=1.0922        H26-C4=1.0905        H27-C4=1.0908        H28-C5=1.0944        H29-C5=1.0965        
H30-C7=1.1074        H31-C8=1.0884        H32-C9=1.0891        H33-C10=1.0812       H34-C11=1.0811       H35-C12=1.0841       
H36-C15=1.0791       H37-C16=1.0785       H38-C17=1.0800       H39-C18=1.0804       
 C  H  Rav=1.0882 sigma=0.0073  Rmin=1.0785  Rmax=1.1074    18
 C  C  Rav=1.4495 sigma=0.0761  Rmin=1.3513  Rmax=1.6055    16
 N  H  Rav=1.0285 sigma=0.0005  Rmin=1.0278  Rmax=1.0288     3
 N  C  Rav=1.4419 sigma=0.0437  Rmin=1.3796  Rmax=1.4997     4

 selected bond angles (degree)
 --------------------
H19-N1-C2=111.44               H20-N1-C2=109.75               H20-N1-H19=108.82              H21-N1-C2=109.81               
H21-N1-H19=108.81              H21-N1-H20=108.14              C3-C2-N1=110.86                H22-C2-N1=108.36               
H22-C2-C3=110.23               H23-C2-N1=108.41               H23-C2-C3=110.32               H23-C2-H22=108.59              
C4-C3-C2=110.29                H24-C3-C2=110.20               H24-C3-C4=109.06               H25-C3-C2=110.09               
H25-C3-C4=108.86               H25-C3-H24=108.29              C5-C4-C3=112.22                H26-C4-C3=109.94               
H26-C4-C5=108.03               H27-C4-C3=110.18               H27-C4-C5=108.54               H27-C4-H26=107.80              
N6-C5-C4=110.27                H28-C5-C4=109.78               H28-C5-N6=109.66               H29-C5-C4=109.35               
H29-C5-N6=109.87               H29-C5-H28=107.88              C7-N6-C5=121.46                C13-N6-C5=123.32               
C13-N6-C7=111.45               C8-C7-N6=101.87                C12-C7-N6=111.82               C12-C7-C8=116.14               
H30-C7-N6=108.76               H30-C7-C8=110.51               H30-C7-C12=107.54              C9-C8-C7= 95.13                
C14-C8-C7=102.89               C14-C8-C9=114.64               H31-C8-C7=112.11               H31-C8-C9=113.97               
H31-C8-C14=115.55              C10-C9-C8=115.48               H32-C9-C8=111.09               H32-C9-C10=115.50              
C11-C10-C9=108.46              H33-C10-C9=122.15              H33-C10-C11=118.02             

 selected dihedral angles (degree)
 ---------------------------------
C3-C2-N1-H19=180.25           C3-C2-N1-H20= 59.65           C3-C2-N1-H21=300.90           H22-C2-N1-H19= 59.16          
H22-C2-N1-H20=298.55          H22-C2-N1-H21=179.81          H23-C2-N1-H19=301.49          H23-C2-N1-H20=180.88          
H23-C2-N1-H21= 62.14          C4-C3-C2-N1=181.32            C4-C3-C2-H22=301.30           C4-C3-C2-H23= 61.22           
H24-C3-C2-N1= 60.86           H24-C3-C2-H22=180.84          H24-C3-C2-H23=300.76          H25-C3-C2-N1=301.47           
H25-C3-C2-H22= 61.45          H25-C3-C2-H23=181.37          C5-C4-C3-C2=179.28            C5-C4-C3-H24=300.42           
C5-C4-C3-H25= 58.40           H26-C4-C3-C2= 59.02           H26-C4-C3-H24=180.16          H26-C4-C3-H25=298.14          
H27-C4-C3-C2=300.34           H27-C4-C3-H24= 61.49          H27-C4-C3-H25=179.46          N6-C5-C4-C3=182.36            
N6-C5-C4-H26=303.72           N6-C5-C4-H27= 60.35           H28-C5-C4-C3= 61.43           H28-C5-C4-H26=182.79          
H28-C5-C4-H27=299.43          H29-C5-C4-C3=303.26           H29-C5-C4-H26= 64.62          H29-C5-C4-H27=181.25          
C7-N6-C5-C4=252.35            C7-N6-C5-H28= 13.35           C7-N6-C5-H29=131.76           C13-N6-C5-C4= 96.13           
C13-N6-C5-H28=217.12          C13-N6-C5-H29=335.54          C8-C7-N6-C5=182.90            C8-C7-N6-C13=341.68           
C12-C7-N6-C5= 58.21           C12-C7-N6-C13=216.99          H30-C7-N6-C5=299.61           H30-C7-N6-C13= 98.39          
C9-C8-C7-N6=262.29            C9-C8-C7-C12= 24.04           C9-C8-C7-H30=146.86           C14-C8-C7-N6= 19.03           
C14-C8-C7-C12=140.78          C14-C8-C7-H30=263.60          H31-C8-C7-N6=143.81           H31-C8-C7-C12=265.57          
H31-C8-C7-H30= 28.38          C10-C9-C8-C7=290.22           C10-C9-C8-C14=183.51          C10-C9-C8-H31= 47.19          
H32-C9-C8-C7= 64.24           H32-C9-C8-C14=317.52          H32-C9-C8-H31=181.20          C11-C10-C9-C8= 84.67          
C11-C10-C9-H32=312.69         H33-C10-C9-C8=302.02          H33-C10-C9-H32=170.05         
           -------------------------------------------------
          |                Final Singlepoint                |
           -------------------------------------------------

          ...................................................
          :                      SETUP                      :
          :.................................................:
          :  # basis functions                  93          :
          :  # atomic orbitals                  93          :
          :  # shells                           57          :
          :  # electrons                        94          :
          :  max. iterations                   250          :
          :  Hamiltonian                  GFN2-xTB          :
          :  restarted?                      false          :
          :  GBSA solvation                  false          :
          :  PC potential                    false          :
          :  electronic temp.          300.0000000     K    :
          :  accuracy                    1.0000000          :
          :  -> integral cutoff          0.2500000E+02      :
          :  -> integral neglect         0.1000000E-07      :
          :  -> SCF convergence          0.1000000E-05 Eh   :
          :  -> wf. convergence          0.1000000E-03 e    :
          :  Broyden damping             0.4000000          :
          ...................................................

 iter      E             dE          RMSdq      gap      omega  full diag
   1    -51.0772453 -0.510772E+02  0.129E-04    1.86       0.0  T
   2    -51.0772453  0.466471E-10  0.110E-04    1.86     146.0  T
   3    -51.0772453 -0.389399E-09  0.510E-05    1.86     314.0  T

   *** convergence criteria satisfied after 3 iterations ***

         #    Occupation            Energy/Eh            Energy/eV
      -------------------------------------------------------------
         1        2.0000           -0.9001172             -24.4934
       ...           ...                  ...                  ...
        41        2.0000           -0.4948661             -13.4660
        42        2.0000           -0.4887603             -13.2998
        43        2.0000           -0.4863699             -13.2348
        44        2.0000           -0.4778524             -13.0030
        45        2.0000           -0.4608007             -12.5390
        46        2.0000           -0.4189894             -11.4013
        47        2.0000           -0.4077422             -11.0952 (HOMO)
        48                         -0.3393547              -9.2343 (LUMO)
        49                         -0.2830322              -7.7017
        50                         -0.2774973              -7.5511
        51                         -0.2716689              -7.3925
        52                         -0.2686228              -7.3096
       ...                                ...                  ...
        93                          0.6332087              17.2305
      -------------------------------------------------------------
                  HL-Gap            0.0683875 Eh            1.8609 eV
             Fermi-level           -0.3735485 Eh          -10.1648 eV

 SCC (total)                   0 d,  0 h,  0 min,  0.024 sec
 SCC setup                      ...        0 min,  0.000 sec (  0.526%)
 Dispersion                     ...        0 min,  0.000 sec (  1.752%)
 classical contributions        ...        0 min,  0.000 sec (  0.171%)
 integral evaluation            ...        0 min,  0.001 sec (  6.052%)
 iterations                     ...        0 min,  0.017 sec ( 70.226%)
 molecular gradient             ...        0 min,  0.004 sec ( 17.958%)
 printout                       ...        0 min,  0.001 sec (  2.512%)

         :::::::::::::::::::::::::::::::::::::::::::::::::::::
         ::                     SUMMARY                     ::
         :::::::::::::::::::::::::::::::::::::::::::::::::::::
         :: total energy             -50.262877718277 Eh    ::
         :: gradient norm              0.000677933517 Eh/a0 ::
         :: HOMO-LUMO gap              1.860918869526 eV    ::
         ::.................................................::
         :: SCC energy               -51.077245275411 Eh    ::
         :: -> isotropic ES            0.115437073314 Eh    ::
         :: -> anisotropic ES         -0.004178762378 Eh    ::
         :: -> anisotropic XC          0.032975471720 Eh    ::
         :: -> dispersion             -0.038127016079 Eh    ::
         :: repulsion energy           0.814097206365 Eh    ::
         :: add. restraining           0.000000000000 Eh    ::
         :: total charge               1.000000000000 e     ::
         :::::::::::::::::::::::::::::::::::::::::::::::::::::

           -------------------------------------------------
          |                Property Printout                |
           -------------------------------------------------

    * Orbital Energies and Occupations

         #    Occupation            Energy/Eh            Energy/eV
      -------------------------------------------------------------
         1        2.0000           -0.9001172             -24.4934
       ...           ...                  ...                  ...
        35        2.0000           -0.5451005             -14.8329
        36        2.0000           -0.5414267             -14.7330
        37        2.0000           -0.5364418             -14.5973
        38        2.0000           -0.5292575             -14.4018
        39        2.0000           -0.5156204             -14.0307
        40        2.0000           -0.5108364             -13.9006
        41        2.0000           -0.4948661             -13.4660
        42        2.0000           -0.4887603             -13.2998
        43        2.0000           -0.4863699             -13.2348
        44        2.0000           -0.4778524             -13.0030
        45        2.0000           -0.4608007             -12.5390
        46        2.0000           -0.4189894             -11.4013
        47        2.0000           -0.4077422             -11.0952 (HOMO)
        48                         -0.3393547              -9.2343 (LUMO)
        49                         -0.2830322              -7.7017
        50                         -0.2774973              -7.5511
        51                         -0.2716689              -7.3925
        52                         -0.2686228              -7.3096
        53                         -0.1670125              -4.5446
        54                         -0.1505006              -4.0953
        55                         -0.1115700              -3.0360
        56                         -0.1061087              -2.8874
        57                         -0.0837161              -2.2780
        58                         -0.0709646              -1.9310
       ...                                ...                  ...
        93                          0.6332087              17.2305
      -------------------------------------------------------------
                  HL-Gap            0.0683875 Eh            1.8609 eV
             Fermi-level           -0.3735485 Eh          -10.1648 eV

     #   Z          covCN         q      C6AA      α(0)
     1   7 N        3.482    -0.128    23.767     7.241
     2   6 C        3.732    -0.034    21.273     6.583
     3   6 C        3.802    -0.080    22.021     6.681
     4   6 C        3.804    -0.075    21.931     6.667
     5   6 C        3.740     0.005    20.574     6.472
     6   7 N        2.768    -0.117    23.548     7.207
     7   6 C        3.882     0.041    19.841     6.333
     8   6 C        3.895    -0.008    20.662     6.462
     9   6 C        3.021    -0.038    28.913     8.820
    10   6 C        2.960    -0.064    29.579     8.921
    11   6 C        2.950    -0.019    28.477     8.753
    12   6 C        2.949    -0.054    29.349     8.885
    13   6 C        2.973     0.054    26.782     8.489
    14   6 C        3.017    -0.016    28.384     8.739
    15   6 C        2.916    -0.032    28.806     8.801
    16   6 C        2.921    -0.042    29.054     8.839
    17   6 C        2.923    -0.032    28.802     8.801
    18   6 C        2.914    -0.065    29.607     8.923
    19   1 H        0.859     0.271     0.807     1.407
    20   1 H        0.859     0.273     0.800     1.401
    21   1 H        0.859     0.272     0.802     1.403
    22   1 H        0.924     0.109     1.705     2.042
    23   1 H        0.924     0.108     1.711     2.046
    24   1 H        0.924     0.061     2.184     2.311
    25   1 H        0.924     0.062     2.177     2.307
    26   1 H        0.924     0.060     2.200     2.319
    27   1 H        0.924     0.058     2.227     2.334
    28   1 H        0.924     0.042     2.423     2.434
    29   1 H        0.924     0.046     2.372     2.408
    30   1 H        0.922     0.025     2.661     2.551
    31   1 H        0.925     0.051     2.312     2.378
    32   1 H        0.925     0.031     2.571     2.508
    33   1 H        0.925     0.046     2.374     2.409
    34   1 H        0.926     0.041     2.441     2.443
    35   1 H        0.925     0.027     2.625     2.534
    36   1 H        0.926     0.039     2.457     2.451
    37   1 H        0.926     0.038     2.477     2.461
    38   1 H        0.926     0.032     2.552     2.498
    39   1 H        0.926     0.011     2.868     2.648

 Mol. C6AA /au·bohr⁶  :      14631.982058
 Mol. C8AA /au·bohr⁸  :     343992.889437
 Mol. α(0) /au        :        188.909751


Wiberg/Mayer (AO) data.
largest (>0.10) Wiberg bond orders for each atom

 ---------------------------------------------------------------------------
     #   Z sym  total        # sym  WBO       # sym  WBO       # sym  WBO
 ---------------------------------------------------------------------------
     1   7 N    3.674 --     2 C    0.919    19 H    0.912    21 H    0.910
                            20 H    0.910
     2   6 C    3.884 --     3 C    1.009    23 H    0.966    22 H    0.966
                             1 N    0.919
     3   6 C    3.980 --     2 C    1.009     4 C    0.995    24 H    0.972
                            25 H    0.972
     4   6 C    3.984 --     3 C    0.995     5 C    0.985    26 H    0.975
                            27 H    0.974
     5   6 C    3.985 --     6 N    1.017     4 C    0.985    28 H    0.969
                            29 H    0.964
     6   7 N    3.370 --    13 C    1.120     5 C    1.017     7 C    0.972
     7   6 C    3.973 --    12 C    1.018     6 N    0.972    30 H    0.948
                             8 C    0.903
     8   6 C    3.987 --     9 C    1.024    14 C    1.004    31 H    0.962
                             7 C    0.903
     9   6 C    3.959 --    10 C    1.743     8 C    1.024    32 H    0.963
                            12 C    0.123
    10   6 C    3.955 --     9 C    1.743    11 C    1.137    33 H    0.944
    11   6 C    3.982 --    12 C    1.798    10 C    1.137    34 H    0.961
    12   6 C    3.983 --    11 C    1.798     7 C    1.018    35 H    0.961
                             9 C    0.123
    13   6 C    3.968 --    18 C    1.376    14 C    1.296     6 N    1.120
    14   6 C    3.983 --    15 C    1.461    13 C    1.296     8 C    1.004
                            17 C    0.103
    15   6 C    3.990 --    14 C    1.461    16 C    1.402    36 H    0.969
    16   6 C    3.987 --    17 C    1.454    15 C    1.402    37 H    0.971
    17   6 C    3.991 --    16 C    1.454    18 C    1.423    38 H    0.971
                            14 C    0.103
    18   6 C    3.983 --    17 C    1.423    13 C    1.376    39 H    0.967
    19   1 H    0.926 --     1 N    0.912
    20   1 H    0.926 --     1 N    0.910
    21   1 H    0.926 --     1 N    0.910
    22   1 H    0.988 --     2 C    0.966
    23   1 H    0.988 --     2 C    0.966
    24   1 H    0.996 --     3 C    0.972
    25   1 H    0.996 --     3 C    0.972
    26   1 H    0.996 --     4 C    0.975
    27   1 H    0.997 --     4 C    0.974
    28   1 H    0.997 --     5 C    0.969
    29   1 H    0.997 --     5 C    0.964
    30   1 H    0.999 --     7 C    0.948
    31   1 H    0.997 --     8 C    0.962
    32   1 H    0.999 --     9 C    0.963
    33   1 H    0.998 --    10 C    0.944
    34   1 H    0.997 --    11 C    0.961
    35   1 H    0.999 --    12 C    0.961
    36   1 H    0.998 --    15 C    0.969
    37   1 H    0.998 --    16 C    0.971
    38   1 H    0.998 --    17 C    0.971
    39   1 H    1.000 --    18 C    0.967
 ---------------------------------------------------------------------------

Topologies differ in total number of bonds
Writing topology from bond orders to xtbtopo.mol

molecular dipole:
                 x           y           z       tot (Debye)
 q only:       30.153       5.991      -3.301
   full:       30.644       5.861      -3.472      79.791
molecular quadrupole (traceless):
                xx          xy          yy          xz          yz          zz
 q only:      885.793     277.898    -424.770    -156.034     -36.210    -461.023
  q+dip:      910.061     277.961    -440.268    -162.138     -39.932    -469.793
   full:      909.719     277.543    -437.981    -163.105     -39.839    -471.738

           -------------------------------------------------
          |                Geometry Summary                 |
           -------------------------------------------------

      molecular mass/u    :      241.3519366
   center of mass at/Å    :       11.4247599       1.0367384       0.2897274
  moments of inertia/u·Å² :        0.9052804E+03   0.1874832E+04   0.2587312E+04
rotational constants/cm⁻¹ :        0.1862145E-01   0.8991542E-02   0.6515501E-02

 * 37 selected distances

     #   Z          #   Z                                           value/Å
     1   7 N        2   6 C                                       1.4996574
     2   6 C        3   6 C                                       1.5211468
     3   6 C        4   6 C                                       1.5293925
     4   6 C        5   6 C                                       1.5403924 (max)
     5   6 C        6   7 N                                       1.4296415
     6   7 N        7   6 C                                       1.4586755
     8   6 C        9   6 C                                       1.4833856
     9   6 C       10   6 C                                       1.3731659
    11   6 C       12   6 C                                       1.3513352
     6   7 N       13   6 C                                       1.3796332
    13   6 C       14   6 C                                       1.3999822
    14   6 C       15   6 C                                       1.3745736
    15   6 C       16   6 C                                       1.3910948
    16   6 C       17   6 C                                       1.3829527
    13   6 C       18   6 C                                       1.3845456
    17   6 C       18   6 C                                       1.3889520
     1   7 N       19   1 H                                       1.0278304 (min)
     1   7 N       20   1 H                                       1.0288190
     1   7 N       21   1 H                                       1.0288170
     2   6 C       22   1 H                                       1.0908033
     2   6 C       23   1 H                                       1.0907270
     3   6 C       24   1 H                                       1.0919912
     3   6 C       25   1 H                                       1.0921609
     4   6 C       26   1 H                                       1.0905414
     4   6 C       27   1 H                                       1.0908004
     5   6 C       28   1 H                                       1.0944387
     5   6 C       29   1 H                                       1.0964535
     7   6 C       30   1 H                                       1.1074442
     8   6 C       31   1 H                                       1.0884381
     9   6 C       32   1 H                                       1.0890950
    10   6 C       33   1 H                                       1.0812474
    11   6 C       34   1 H                                       1.0811482
    12   6 C       35   1 H                                       1.0840728
    15   6 C       36   1 H                                       1.0791237
    16   6 C       37   1 H                                       1.0784600
    17   6 C       38   1 H                                       1.0799924
    18   6 C       39   1 H                                       1.0803800

 * 4 distinct bonds (by element types)

   Z      Z             #   av. dist./Å        max./Å        min./Å
   1 H    6 C          18     1.0881843     1.1074442     1.0784600
   6 C    6 C          12     1.4267433     1.5403924     1.3513352
   1 H    7 N           3     1.0284888     1.0288190     1.0278304
   6 C    7 N           4     1.4419019     1.4996574     1.3796332


optimized geometry written to: xtbopt.xyz


           -------------------------------------------------
          | TOTAL ENERGY              -50.262877718277 Eh   |
          | GRADIENT NORM               0.000677933517 Eh/α |
          | HOMO-LUMO GAP               1.860918869526 eV   |
           -------------------------------------------------

------------------------------------------------------------------------
 * finished run on 2023/01/23 at 14:21:25.768     
------------------------------------------------------------------------
 total:
 * wall-time:     0 d,  0 h,  0 min,  2.043 sec
 *  cpu-time:     0 d,  0 h,  3 min, 50.464 sec
 * ratio c/w:   112.790 speedup
 SCF:
 * wall-time:     0 d,  0 h,  0 min,  0.109 sec
 *  cpu-time:     0 d,  0 h,  0 min, 15.545 sec
 * ratio c/w:   142.171 speedup
 ANC optimizer:
 * wall-time:     0 d,  0 h,  0 min,  1.909 sec
 *  cpu-time:     0 d,  0 h,  3 min, 31.729 sec
 * ratio c/w:   110.882 speedup

