22
 energy: -27.478152173465 gnorm: 0.000944024651 xtb: 6.5.1 (fef0646)
N           -1.74858139511440       -0.12230955046919       -0.02057585636231
C           -0.53894713071047       -0.23081129929880       -0.83953117820966
C            0.26131878229546        1.07065109225015       -0.75231197756439
C            0.92225686784554        1.25079194975104        0.61211402511806
C            1.80299116714391        0.05104050438623        0.94852502368360
C            0.98785619765491       -1.23817300324186        0.91780648908634
C            0.34084817900394       -1.42794921411047       -0.45237324916776
Cl          -3.39280255103951        2.13476612144729       -0.82751054158243
H           -2.59135743953736        1.05968724914065       -0.44655091808426
H           -1.50883877547238        0.01950771951400        0.95434141532325
H           -2.31941866089001       -0.95586604993052       -0.10099595181112
H           -0.88272564084490       -0.36293175159660       -1.87202674600206
H           -0.40406763105773        1.90837365380837       -0.95931911236752
H            1.03370740287683        1.05034323983672       -1.52273263698885
H            0.16016270209709        1.37845394843470        1.38375866190311
H            1.52504733718910        2.16017115473033        0.60105544265364
H            2.25294533715411        0.18234354810149        1.93441607065310
H            2.61197091236536       -0.01880063627835        0.21810069139394
H            0.22076502590798       -1.20461621487057        1.69620805036470
H            1.63203428867284       -2.09222300173125        1.13565544409723
H           -0.25762807905993       -2.34294850493478       -0.46123206752683
H            1.12399310350483       -1.53819095494914       -1.20442107861331
