      -----------------------------------------------------------      
     |                   =====================                   |     
     |                           x T B                           |     
     |                   =====================                   |     
     |                         S. Grimme                         |     
     |          Mulliken Center for Theoretical Chemistry        |     
     |                    University of Bonn                     |     
      -----------------------------------------------------------      

   * xtb version 6.5.1 (fef0646) compiled by 'conda@b96dff2e9fd6' on 2023-01-04

   xtb is free software: you can redistribute it and/or modify it under
   the terms of the GNU Lesser General Public License as published by
   the Free Software Foundation, either version 3 of the License, or
   (at your option) any later version.
   
   xtb is distributed in the hope that it will be useful,
   but WITHOUT ANY WARRANTY; without even the implied warranty of
   MERCHANTABILITY or FITNESS FOR A PARTICULAR PURPOSE.  See the
   GNU Lesser General Public License for more details.
   
   Cite this work as:
   * C. Bannwarth, E. Caldeweyher, S. Ehlert, A. Hansen, P. Pracht,
     J. Seibert, S. Spicher, S. Grimme, WIREs Comput. Mol. Sci., 2020, 11,
     e01493. DOI: 10.1002/wcms.1493
   
   for GFN2-xTB:
   * C. Bannwarth, S. Ehlert and S. Grimme., J. Chem. Theory Comput., 2019,
     15, 1652-1671. DOI: 10.1021/acs.jctc.8b01176
   for GFN1-xTB:
   * S. Grimme, C. Bannwarth, P. Shushkov, J. Chem. Theory Comput., 2017,
     13, 1989-2009. DOI: 10.1021/acs.jctc.7b00118
   for GFN0-xTB:
   * P. Pracht, E. Caldeweyher, S. Ehlert, S. Grimme, ChemRxiv, 2019, preprint.
     DOI: 10.26434/chemrxiv.8326202.v1
   for GFN-FF:
   * S. Spicher and S. Grimme, Angew. Chem. Int. Ed., 2020, 59, 15665-15673.
     DOI: 10.1002/anie.202004239
   
   for ALPB and GBSA implicit solvation:
   * S. Ehlert, M. Stahn, S. Spicher, S. Grimme, J. Chem. Theory Comput.,
     2021, 17, 4250-4261. DOI: 10.1021/acs.jctc.1c00471
   
   for DFT-D4:
   * E. Caldeweyher, C. Bannwarth and S. Grimme, J. Chem. Phys., 2017,
     147, 034112. DOI: 10.1063/1.4993215
   * E. Caldeweyher, S. Ehlert, A. Hansen, H. Neugebauer, S. Spicher,
     C. Bannwarth and S. Grimme, J. Chem. Phys., 2019, 150, 154122.
     DOI: 10.1063/1.5090222
   * E. Caldeweyher, J.-M. Mewes, S. Ehlert and S. Grimme, Phys. Chem. Chem. Phys.
     2020, 22, 8499-8512. DOI: 10.1039/D0CP00502A
   
   for sTDA-xTB:
   * S. Grimme and C. Bannwarth, J. Chem. Phys., 2016, 145, 054103.
     DOI: 10.1063/1.4959605
   
   in the mass-spec context:
   * V. Asgeirsson, C. Bauer and S. Grimme, Chem. Sci., 2017, 8, 4879.
     DOI: 10.1039/c7sc00601b
   * J. Koopman and S. Grimme, ACS Omega 2019, 4, 12, 15120-15133.
     DOI: 10.1021/acsomega.9b02011
   
   for metadynamics refer to:
   * S. Grimme, J. Chem. Theory Comput., 2019, 155, 2847-2862
     DOI: 10.1021/acs.jctc.9b00143
   
   for SPH calculations refer to:
   * S. Spicher and S. Grimme, J. Chem. Theory Comput., 2021, 17, 1701-1714
     DOI: 10.1021/acs.jctc.0c01306
   
   with help from (in alphabetical order)
   P. Atkinson, C. Bannwarth, F. Bohle, G. Brandenburg, E. Caldeweyher
   M. Checinski, S. Dohm, S. Ehlert, S. Ehrlich, I. Gerasimov, C. Hölzer
   A. Katbashev, J. Koopman, C. Lavigne, S. Lehtola, F. März, M. Müller,
   F. Musil, H. Neugebauer, J. Pisarek, C. Plett, P. Pracht, F. Pultar,
   J. Seibert, P. Shushkov, S. Spicher, M. Stahn, M. Steiner, T. Strunk,
   J. Stückrath, T. Rose, and J. Unsleber
   
 * started run on 2023/01/24 at 14:57:49.305     

           -------------------------------------------------
          |                Calculation Setup                |
           -------------------------------------------------

          program call               : xtb init.xyz --opt -c 0 -u 0 -P 16 --alpb water
          hostname                   : gpg-woodward
          coordinate file            : init.xyz
          omp threads                :                    16

   ID    Z sym.   atoms
    1    7 N      1
    2    6 C      2-6
    3    8 O      7, 8
    4   17 Cl     9
    5    1 H      10-21

molecular fragmentation (1/2 indicates fragments):
111111112111111111111
# atoms in fragment 1/2:    20     1
 fragment masses (1/2) :      118.15       35.45
CMA distance (Bohr)    :   9.685
constraining FC (au)   :  0.0500

           -------------------------------------------------
          |                 G F N 2 - x T B                 |
           -------------------------------------------------

        Reference                      10.1021/acs.jctc.8b01176
      * Hamiltonian:
        H0-scaling (s, p, d)           1.850000    2.230000    2.230000
        zeta-weighting                 0.500000
      * Dispersion:
        s8                             2.700000
        a1                             0.520000
        a2                             5.000000
        s9                             5.000000
      * Repulsion:
        kExp                           1.500000    1.000000
        rExp                           1.000000
      * Coulomb:
        alpha                          2.000000
        third order                    shell-resolved
        anisotropic                    true
        a3                             3.000000
        a5                             4.000000
        cn-shift                       1.200000
        cn-exp                         4.000000
        max-rad                        5.000000

      * Solvation model:               ALPB
        Solvent                        water
        Parameter file                 internal GFN2-xTB/ALPB
        Dielectric constant                8.0200E+01
        Reference state                gsolv [1 M gas/solution]
        Free energy shift                  1.0808E-03 Eh       6.7819E-01 kcal/mol
        Temperature                        2.9815E+02 K
        Density                            1.0000E+00 kg/L
        Solvent mass                       1.8000E+01 g/mol
        Interaction kernel             P16
        Born radius scaling (c1)           1.4744E+00
        Born radii integrator          GBOBC
        Born offset                        0.0000E+00 a0       0.0000E+00 AA
        H-bond correction              true
        Ion screening                  false
        Surface tension                    1.0000E-05 Eh       1.5569E+01 dyn/cm
        Grid points                               230 per atom

          ...................................................
          :                      SETUP                      :
          :.................................................:
          :  # basis functions                  54          :
          :  # atomic orbitals                  53          :
          :  # shells                           31          :
          :  # electrons                        56          :
          :  max. iterations                   250          :
          :  Hamiltonian                  GFN2-xTB          :
          :  restarted?                      false          :
          :  GBSA solvation                   true          :
          :  PC potential                    false          :
          :  electronic temp.          300.0000000     K    :
          :  accuracy                    1.0000000          :
          :  -> integral cutoff          0.2500000E+02      :
          :  -> integral neglect         0.1000000E-07      :
          :  -> SCF convergence          0.1000000E-05 Eh   :
          :  -> wf. convergence          0.1000000E-03 e    :
          :  Broyden damping             0.4000000          :
          ...................................................

 iter      E             dE          RMSdq      gap      omega  full diag
   1    -32.6571031 -0.326571E+02  0.452E+00    4.71       0.0  T
   2    -32.7712972 -0.114194E+00  0.229E+00    4.12       1.0  T
   3    -32.7765933 -0.529608E-02  0.129E+00    4.47       1.0  T
   4    -32.7784771 -0.188384E-02  0.457E-01    4.31       1.0  T
   5    -32.7796697 -0.119262E-02  0.275E-01    4.41       1.0  T
   6    -32.7801880 -0.518246E-03  0.126E-01    4.35       1.0  T
   7    -32.7803118 -0.123854E-03  0.594E-02    4.35       1.0  T
   8    -32.7803251 -0.132957E-04  0.136E-02    4.34       1.6  T
   9    -32.7803261 -0.979608E-06  0.405E-03    4.34       5.4  T
  10    -32.7803261 -0.319077E-07  0.209E-03    4.34      10.4  T
  11    -32.7803261 -0.748739E-08  0.579E-04    4.33      37.7  T
  12    -32.7803261 -0.819092E-09  0.218E-04    4.33     100.3  T

   *** convergence criteria satisfied after 12 iterations ***

         #    Occupation            Energy/Eh            Energy/eV
      -------------------------------------------------------------
         1        2.0000           -1.0117983             -27.5324
       ...           ...                  ...                  ...
        22        2.0000           -0.4567499             -12.4288
        23        2.0000           -0.4328227             -11.7777
        24        2.0000           -0.4286394             -11.6639
        25        2.0000           -0.4177801             -11.3684
        26        2.0000           -0.4033899             -10.9768
        27        2.0000           -0.4030786             -10.9683
        28        2.0000           -0.4006449             -10.9021 (HOMO)
        29                         -0.2413561              -6.5676 (LUMO)
        30                         -0.0265094              -0.7214
        31                          0.0482687               1.3135
        32                          0.0711094               1.9350
        33                          0.0804607               2.1894
       ...                                ...                  ...
        53                          0.5778839              15.7250
      -------------------------------------------------------------
                  HL-Gap            0.1592888 Eh            4.3345 eV
             Fermi-level           -0.3210005 Eh           -8.7349 eV

 SCC (total)                   0 d,  0 h,  0 min,  0.028 sec
 SCC setup                      ...        0 min,  0.001 sec (  1.783%)
 Dispersion                     ...        0 min,  0.000 sec (  1.503%)
 classical contributions        ...        0 min,  0.000 sec (  0.380%)
 integral evaluation            ...        0 min,  0.001 sec (  4.349%)
 iterations                     ...        0 min,  0.023 sec ( 81.829%)
 molecular gradient             ...        0 min,  0.002 sec (  8.486%)
 printout                       ...        0 min,  0.000 sec (  0.537%)

         :::::::::::::::::::::::::::::::::::::::::::::::::::::
         ::                     SUMMARY                     ::
         :::::::::::::::::::::::::::::::::::::::::::::::::::::
         :: total energy             -32.478500217052 Eh    ::
         :: total w/o Gsasa/hb       -32.467921337243 Eh    ::
         :: gradient norm              0.043042515448 Eh/a0 ::
         :: HOMO-LUMO gap              4.334468122742 eV    ::
         ::.................................................::
         :: SCC energy               -32.780326122826 Eh    ::
         :: -> isotropic ES            0.174184187045 Eh    ::
         :: -> anisotropic ES         -0.029146238959 Eh    ::
         :: -> anisotropic XC         -0.000947316981 Eh    ::
         :: -> dispersion             -0.012702918251 Eh    ::
         :: -> Gsolv                  -0.080613962589 Eh    ::
         ::    -> Gelec               -0.070035082781 Eh    ::
         ::    -> Gsasa                0.002828217239 Eh    ::
         ::    -> Ghb                 -0.014487856746 Eh    ::
         ::    -> Gshift               0.001080759698 Eh    ::
         :: repulsion energy           0.301797621017 Eh    ::
         :: add. restraining           0.000000000000 Eh    ::
         :: total charge               0.000000000000 e     ::
         :::::::::::::::::::::::::::::::::::::::::::::::::::::

      ----------------------------------------------------------- 
     |                   =====================                   |
     |                        A N C O P T                        |
     |                   =====================                   |
     |               Approximate Normal Coordinate               |
     |                Rational Function Optimizer                |
      ----------------------------------------------------------- 

          ...................................................
          :                      SETUP                      :
          :.................................................:
          :   optimization level            normal          :
          :   max. optcycles                   200          :
          :   ANC micro-cycles                  20          :
          :   degrees of freedom                57          :
          :.................................................:
          :   RF solver                   davidson          :
          :   write xtbopt.log                true          :
          :   linear?                        false          :
          :   energy convergence         0.5000000E-05 Eh   :
          :   grad. convergence          0.1000000E-02 Eh/α :
          :   maximium RF displ.         1.0000000          :
          :   Hlow (freq-cutoff)         0.1000000E-01      :
          :   Hmax (freq-cutoff)         5.0000000          :
          :   S6 in model hess.         20.0000000          :
          ...................................................

generating ANC from model Hessian ...
Using Lindh-Hessian (1995)
 Shifting diagonal of input Hessian by    9.7786784693723316E-003
 Lowest  eigenvalues of input Hessian
    0.000000    0.000000    0.000000    0.000000    0.000000    0.000000
    0.010000    0.010726    0.011808    0.012141    0.013467    0.016959
    0.018973    0.020806    0.023505    0.024923    0.035487    0.043186
 Highest eigenvalues
    1.281711    1.320580    1.442790    1.558107    1.701626    2.254732


........................................................................
.............................. CYCLE    1 ..............................
........................................................................
   1    -32.7803261 -0.327803E+02  0.724E-05    4.33       0.0  T
   2    -32.7803261 -0.138556E-10  0.559E-05    4.33     390.3  T
   3    -32.7803261 -0.104166E-10  0.361E-05    4.33     604.6  T
     SCC iter.                  ...        0 min,  0.006 sec
     gradient                   ...        0 min,  0.002 sec
 * total energy  :   -32.4785002 Eh     change       -0.2385008E-09 Eh
   gradient norm :     0.0430436 Eh/α   predicted     0.0000000E+00 (-100.00%)
   displ. norm   :     0.3136821 α      lambda       -0.8021523E-02
   maximum displ.:     0.2460167 α      in ANC's #13, #16, #12, ...

........................................................................
.............................. CYCLE    2 ..............................
........................................................................
   1    -32.7918314 -0.327918E+02  0.247E-01    4.54       0.0  T
   2    -32.7919284 -0.970317E-04  0.137E-01    4.52       1.0  T
   3    -32.7919327 -0.433863E-05  0.395E-02    4.51       1.0  T
   4    -32.7919353 -0.258490E-05  0.105E-02    4.50       2.1  T
   5    -32.7919361 -0.737282E-06  0.517E-03    4.50       4.2  T
   6    -32.7919361 -0.723440E-07  0.291E-03    4.50       7.5  T
   7    -32.7919362 -0.375178E-07  0.174E-03    4.50      12.5  T
   8    -32.7919362 -0.168658E-07  0.812E-04    4.50      26.9  T
   9    -32.7919362 -0.395825E-08  0.307E-04    4.50      71.1  T
     SCC iter.                  ...        0 min,  0.016 sec
     gradient                   ...        0 min,  0.002 sec
 * total energy  :   -32.4832835 Eh     change       -0.4783283E-02 Eh
   gradient norm :     0.0225583 Eh/α   predicted    -0.4405556E-02 (  -7.90%)
   displ. norm   :     0.1868860 α      lambda       -0.1666223E-02
   maximum displ.:     0.0930766 α      in ANC's #13, #5, #6, ...

........................................................................
.............................. CYCLE    3 ..............................
........................................................................
   1    -32.7959453 -0.327959E+02  0.999E-02    4.54       0.0  T
   2    -32.7959632 -0.178862E-04  0.555E-02    4.54       1.0  T
   3    -32.7959643 -0.112824E-05  0.179E-02    4.54       1.2  T
   4    -32.7959649 -0.640971E-06  0.593E-03    4.53       3.7  T
   5    -32.7959651 -0.157624E-06  0.353E-03    4.53       6.2  T
   6    -32.7959651 -0.436455E-07  0.193E-03    4.53      11.3  T
   7    -32.7959652 -0.196231E-07  0.111E-03    4.53      19.6  T
   8    -32.7959652 -0.748157E-08  0.353E-04    4.53      61.8  T
   9    -32.7959652 -0.595065E-09  0.146E-04    4.53     149.6  T
     SCC iter.                  ...        0 min,  0.016 sec
     gradient                   ...        0 min,  0.002 sec
 * total energy  :   -32.4842477 Eh     change       -0.9642183E-03 Eh
   gradient norm :     0.0135671 Eh/α   predicted    -0.8622110E-03 ( -10.58%)
   displ. norm   :     0.1714673 α      lambda       -0.6669275E-03
   maximum displ.:     0.0824631 α      in ANC's #5, #3, #8, ...

........................................................................
.............................. CYCLE    4 ..............................
........................................................................
   1    -32.7963382 -0.327963E+02  0.843E-02    4.50       0.0  T
   2    -32.7963473 -0.912256E-05  0.487E-02    4.51       1.0  T
   3    -32.7963481 -0.772768E-06  0.120E-02    4.51       1.8  T
   4    -32.7963483 -0.227707E-06  0.450E-03    4.51       4.8  T
   5    -32.7963484 -0.580652E-07  0.322E-03    4.51       6.8  T
   6    -32.7963485 -0.530533E-07  0.161E-03    4.51      13.5  T
   7    -32.7963485 -0.157291E-07  0.849E-04    4.51      25.7  T
   8    -32.7963485 -0.368338E-08  0.150E-04    4.51     145.6  T
     SCC iter.                  ...        0 min,  0.014 sec
     gradient                   ...        0 min,  0.002 sec
 * total energy  :   -32.4846078 Eh     change       -0.3600508E-03 Eh
   gradient norm :     0.0057142 Eh/α   predicted    -0.3432690E-03 (  -4.66%)
   displ. norm   :     0.1245904 α      lambda       -0.1985171E-03
   maximum displ.:     0.0636299 α      in ANC's #5, #3, #8, ...

........................................................................
.............................. CYCLE    5 ..............................
........................................................................
   1    -32.7962992 -0.327963E+02  0.433E-02    4.49       0.0  T
   2    -32.7962999 -0.698003E-06  0.261E-02    4.49       1.0  T
   3    -32.7963002 -0.318249E-06  0.489E-03    4.49       4.5  T
   4    -32.7963003 -0.782841E-07  0.365E-03    4.49       6.0  T
   5    -32.7963003 -0.612959E-07  0.197E-03    4.49      11.1  T
   6    -32.7963004 -0.256350E-07  0.741E-04    4.49      29.5  T
   7    -32.7963004 -0.230549E-08  0.349E-04    4.49      62.5  T
     SCC iter.                  ...        0 min,  0.010 sec
     gradient                   ...        0 min,  0.001 sec
 * total energy  :   -32.4847576 Eh     change       -0.1497838E-03 Eh
   gradient norm :     0.0048806 Eh/α   predicted    -0.1008048E-03 ( -32.70%)
   displ. norm   :     0.2017780 α      lambda       -0.2079838E-03
   maximum displ.:     0.0983646 α      in ANC's #5, #3, #2, ...

........................................................................
.............................. CYCLE    6 ..............................
........................................................................
   1    -32.7963281 -0.327963E+02  0.681E-02    4.48       0.0  T
   2    -32.7963293 -0.113329E-05  0.409E-02    4.48       1.0  T
   3    -32.7963302 -0.888530E-06  0.758E-03    4.48       2.9  T
   4    -32.7963303 -0.158074E-06  0.583E-03    4.48       3.7  T
   5    -32.7963305 -0.202242E-06  0.212E-03    4.48      10.3  T
   6    -32.7963306 -0.269084E-07  0.916E-04    4.48      23.8  T
   7    -32.7963306 -0.232177E-08  0.248E-04    4.48      88.2  T
     SCC iter.                  ...        0 min,  0.009 sec
     gradient                   ...        0 min,  0.002 sec
 * total energy  :   -32.4849007 Eh     change       -0.1431288E-03 Eh
   gradient norm :     0.0062532 Eh/α   predicted    -0.1082279E-03 ( -24.38%)
   displ. norm   :     0.1904257 α      lambda       -0.1338488E-03
   maximum displ.:     0.0848286 α      in ANC's #5, #3, #2, ...

........................................................................
.............................. CYCLE    7 ..............................
........................................................................
   1    -32.7963707 -0.327964E+02  0.641E-02    4.48       0.0  T
   2    -32.7963717 -0.907522E-06  0.385E-02    4.48       1.0  T
   3    -32.7963724 -0.782543E-06  0.712E-03    4.48       3.1  T
   4    -32.7963726 -0.152805E-06  0.527E-03    4.48       4.1  T
   5    -32.7963727 -0.153910E-06  0.235E-03    4.48       9.3  T
   6    -32.7963728 -0.374695E-07  0.866E-04    4.48      25.2  T
   7    -32.7963728 -0.225391E-08  0.362E-04    4.48      60.4  T
     SCC iter.                  ...        0 min,  0.009 sec
     gradient                   ...        0 min,  0.001 sec
 * total energy  :   -32.4850061 Eh     change       -0.1054009E-03 Eh
   gradient norm :     0.0060603 Eh/α   predicted    -0.6935375E-04 ( -34.20%)
   displ. norm   :     0.2772742 α      lambda       -0.1727312E-03
   maximum displ.:     0.1253341 α      in ANC's #2, #7, #5, ...

........................................................................
.............................. CYCLE    8 ..............................
........................................................................
   1    -32.7962758 -0.327963E+02  0.939E-02    4.49       0.0  T
   2    -32.7962775 -0.169572E-05  0.564E-02    4.49       1.0  T
   3    -32.7962792 -0.173040E-05  0.105E-02    4.49       2.1  T
   4    -32.7962796 -0.370123E-06  0.729E-03    4.48       3.0  T
   5    -32.7962799 -0.336416E-06  0.264E-03    4.48       8.3  T
   6    -32.7962800 -0.380163E-07  0.112E-03    4.48      19.4  T
   7    -32.7962800 -0.346724E-08  0.391E-04    4.48      55.8  T
   8    -32.7962800 -0.628454E-09  0.121E-04    4.48     180.6  T
     SCC iter.                  ...        0 min,  0.011 sec
     gradient                   ...        0 min,  0.001 sec
 * total energy  :   -32.4851069 Eh     change       -0.1007969E-03 Eh
   gradient norm :     0.0047723 Eh/α   predicted    -0.9301385E-04 (  -7.72%)
   displ. norm   :     0.0846434 α      lambda       -0.7585546E-04
   maximum displ.:     0.0408532 α      in ANC's #6, #7, #2, ...

........................................................................
.............................. CYCLE    9 ..............................
........................................................................
   1    -32.7971368 -0.327971E+02  0.331E-02    4.50       0.0  T
   2    -32.7971374 -0.567599E-06  0.196E-02    4.50       1.1  T
   3    -32.7971375 -0.100175E-06  0.315E-03    4.50       6.9  T
   4    -32.7971375 -0.328413E-07  0.188E-03    4.50      11.6  T
   5    -32.7971376 -0.112671E-07  0.138E-03    4.50      15.9  T
   6    -32.7971376 -0.110527E-07  0.572E-04    4.50      38.2  T
   7    -32.7971376 -0.197546E-08  0.285E-04    4.50      76.5  T
     SCC iter.                  ...        0 min,  0.009 sec
     gradient                   ...        0 min,  0.001 sec
 * total energy  :   -32.4851637 Eh     change       -0.5678007E-04 Eh
   gradient norm :     0.0024247 Eh/α   predicted    -0.3820054E-04 ( -32.72%)
   displ. norm   :     0.1829364 α      lambda       -0.9475169E-04
   maximum displ.:     0.1037098 α      in ANC's #6, #2, #7, ...

........................................................................
.............................. CYCLE   10 ..............................
........................................................................
   1    -32.7967698 -0.327968E+02  0.785E-02    4.49       0.0  T
   2    -32.7967709 -0.111092E-05  0.463E-02    4.49       1.0  T
   3    -32.7967711 -0.269674E-06  0.525E-03    4.49       4.2  T
   4    -32.7967713 -0.171891E-06  0.331E-03    4.49       6.6  T
   5    -32.7967713 -0.352636E-07  0.212E-03    4.49      10.3  T
   6    -32.7967714 -0.242302E-07  0.995E-04    4.49      21.9  T
   7    -32.7967714 -0.536134E-08  0.515E-04    4.49      42.3  T
     SCC iter.                  ...        0 min,  0.009 sec
     gradient                   ...        0 min,  0.001 sec
 * total energy  :   -32.4852277 Eh     change       -0.6403745E-04 Eh
   gradient norm :     0.0032902 Eh/α   predicted    -0.4896223E-04 ( -23.54%)
   displ. norm   :     0.1749053 α      lambda       -0.7722755E-04
   maximum displ.:     0.1071030 α      in ANC's #6, #2, #1, ...

........................................................................
.............................. CYCLE   11 ..............................
........................................................................
   1    -32.7968857 -0.327969E+02  0.680E-02    4.49       0.0  T
   2    -32.7968865 -0.814728E-06  0.399E-02    4.49       1.0  T
   3    -32.7968867 -0.234811E-06  0.407E-03    4.49       5.4  T
   4    -32.7968868 -0.881195E-07  0.268E-03    4.49       8.1  T
   5    -32.7968868 -0.227649E-07  0.173E-03    4.49      12.6  T
   6    -32.7968869 -0.161942E-07  0.754E-04    4.49      28.9  T
   7    -32.7968869 -0.265710E-08  0.414E-04    4.49      52.7  T
     SCC iter.                  ...        0 min,  0.009 sec
     gradient                   ...        0 min,  0.001 sec
 * total energy  :   -32.4852876 Eh     change       -0.5986455E-04 Eh
   gradient norm :     0.0037787 Eh/α   predicted    -0.3979633E-04 ( -33.52%)
   displ. norm   :     0.2687442 α      lambda       -0.1107581E-03
   maximum displ.:     0.1666680 α      in ANC's #6, #2, #1, ...

........................................................................
.............................. CYCLE   12 ..............................
........................................................................
   1    -32.7961759 -0.327962E+02  0.106E-01    4.47       0.0  T
   2    -32.7961774 -0.141871E-05  0.622E-02    4.47       1.0  T
   3    -32.7961778 -0.440871E-06  0.625E-03    4.47       3.5  T
   4    -32.7961781 -0.284249E-06  0.387E-03    4.47       5.6  T
   5    -32.7961781 -0.495472E-07  0.195E-03    4.47      11.2  T
   6    -32.7961782 -0.187603E-07  0.111E-03    4.47      19.7  T
   7    -32.7961782 -0.598564E-08  0.531E-04    4.47      41.1  T
   8    -32.7961782 -0.147184E-08  0.139E-04    4.47     157.5  T
     SCC iter.                  ...        0 min,  0.011 sec
     gradient                   ...        0 min,  0.001 sec
 * total energy  :   -32.4853690 Eh     change       -0.8147652E-04 Eh
   gradient norm :     0.0064522 Eh/α   predicted    -0.5939208E-04 ( -27.11%)
   displ. norm   :     0.2784258 α      lambda       -0.1619223E-03
   maximum displ.:     0.1522468 α      in ANC's #6, #3, #1, ...

........................................................................
.............................. CYCLE   13 ..............................
........................................................................
   1    -32.7973909 -0.327974E+02  0.914E-02    4.50       0.0  T
   2    -32.7973932 -0.224756E-05  0.533E-02    4.50       1.0  T
   3    -32.7973937 -0.544113E-06  0.555E-03    4.50       3.9  T
   4    -32.7973938 -0.930210E-07  0.333E-03    4.50       6.6  T
   5    -32.7973938 -0.301866E-07  0.230E-03    4.50       9.5  T
   6    -32.7973939 -0.262481E-07  0.107E-03    4.50      20.4  T
   7    -32.7973939 -0.567744E-08  0.635E-04    4.50      34.4  T
   8    -32.7973939 -0.210128E-08  0.142E-04    4.50     153.8  T
     SCC iter.                  ...        0 min,  0.011 sec
     gradient                   ...        0 min,  0.001 sec
 * total energy  :   -32.4854566 Eh     change       -0.8754485E-04 Eh
   gradient norm :     0.0049214 Eh/α   predicted    -0.8724074E-04 (  -0.35%)
   displ. norm   :     0.2427051 α      lambda       -0.8669510E-04
   maximum displ.:     0.1454295 α      in ANC's #6, #2, #3, ...

........................................................................
.............................. CYCLE   14 ..............................
........................................................................
   1    -32.7953157 -0.327953E+02  0.972E-02    4.45       0.0  T
   2    -32.7953179 -0.226187E-05  0.573E-02    4.45       1.0  T
   3    -32.7953182 -0.247308E-06  0.680E-03    4.46       3.2  T
   4    -32.7953186 -0.387436E-06  0.333E-03    4.46       6.6  T
   5    -32.7953186 -0.282451E-07  0.216E-03    4.46      10.1  T
   6    -32.7953186 -0.192842E-07  0.106E-03    4.46      20.5  T
   7    -32.7953186 -0.546878E-08  0.628E-04    4.46      34.7  T
   8    -32.7953186 -0.210271E-08  0.189E-04    4.46     115.7  T
     SCC iter.                  ...        0 min,  0.011 sec
     gradient                   ...        0 min,  0.001 sec
 * total energy  :   -32.4854790 Eh     change       -0.2240977E-04 Eh
   gradient norm :     0.0091642 Eh/α   predicted    -0.4590341E-04 ( 104.84%)
   displ. norm   :     0.0909553 α      lambda       -0.1048085E-03
   maximum displ.:     0.0557103 α      in ANC's #7, #6, #4, ...

........................................................................
.............................. CYCLE   15 ..............................
........................................................................
   1    -32.7975590 -0.327976E+02  0.378E-02    4.51       0.0  T
   2    -32.7975616 -0.265741E-05  0.226E-02    4.50       1.0  T
   3    -32.7975617 -0.432880E-07  0.859E-03    4.50       2.5  T
   4    -32.7975620 -0.336451E-06  0.187E-03    4.50      11.7  T
   5    -32.7975620 -0.976646E-08  0.124E-03    4.50      17.6  T
   6    -32.7975620 -0.535383E-08  0.674E-04    4.50      32.4  T
   7    -32.7975620 -0.243263E-08  0.348E-04    4.50      62.6  T
     SCC iter.                  ...        0 min,  0.009 sec
     gradient                   ...        0 min,  0.001 sec
 * total energy  :   -32.4855311 Eh     change       -0.5211552E-04 Eh
   gradient norm :     0.0026929 Eh/α   predicted    -0.5283845E-04 (   1.39%)
   displ. norm   :     0.0556508 α      lambda       -0.1932780E-04
   maximum displ.:     0.0342060 α      in ANC's #6, #2, #3, ...

........................................................................
.............................. CYCLE   16 ..............................
........................................................................
   1    -32.7975333 -0.327975E+02  0.201E-02    4.50       0.0  T
   2    -32.7975337 -0.342107E-06  0.116E-02    4.50       1.9  T
   3    -32.7975337 -0.364894E-07  0.228E-03    4.50       9.6  T
   4    -32.7975337 -0.139762E-07  0.106E-03    4.50      20.6  T
   5    -32.7975337 -0.381542E-08  0.781E-04    4.50      28.0  T
   6    -32.7975337 -0.340163E-08  0.305E-04    4.50      71.6  T
     SCC iter.                  ...        0 min,  0.008 sec
     gradient                   ...        0 min,  0.001 sec
 * total energy  :   -32.4855448 Eh     change       -0.1367889E-04 Eh
   gradient norm :     0.0013200 Eh/α   predicted    -0.9696761E-05 ( -29.11%)
   displ. norm   :     0.1589242 α      lambda       -0.2106446E-04
   maximum displ.:     0.1016099 α      in ANC's #2, #6, #3, ...

........................................................................
.............................. CYCLE   17 ..............................
........................................................................
   1    -32.7970382 -0.327970E+02  0.603E-02    4.50       0.0  T
   2    -32.7970386 -0.407532E-06  0.355E-02    4.50       1.0  T
   3    -32.7970388 -0.267039E-06  0.351E-03    4.50       6.2  T
   4    -32.7970389 -0.320668E-07  0.245E-03    4.50       8.9  T
   5    -32.7970389 -0.296981E-07  0.119E-03    4.50      18.4  T
   6    -32.7970389 -0.785525E-08  0.595E-04    4.50      36.7  T
   7    -32.7970389 -0.155231E-08  0.173E-04    4.50     126.1  T
     SCC iter.                  ...        0 min,  0.009 sec
     gradient                   ...        0 min,  0.001 sec
 * total energy  :   -32.4855617 Eh     change       -0.1695705E-04 Eh
   gradient norm :     0.0021733 Eh/α   predicted    -0.1065090E-04 ( -37.19%)
   displ. norm   :     0.0388016 α      lambda       -0.1149969E-04
   maximum displ.:     0.0301521 α      in ANC's #2, #4, #5, ...

........................................................................
.............................. CYCLE   18 ..............................
........................................................................
   1    -32.7972811 -0.327973E+02  0.139E-02    4.50       0.0  T
   2    -32.7972812 -0.543596E-07  0.827E-03    4.50       2.6  T
   3    -32.7972812 -0.193362E-07  0.153E-03    4.50      14.2  T
   4    -32.7972812 -0.132810E-07  0.106E-03    4.50      20.5  T
   5    -32.7972812 -0.515224E-08  0.610E-04    4.50      35.8  T
   6    -32.7972812 -0.250936E-08  0.195E-04    4.50     112.0  T
     SCC iter.                  ...        0 min,  0.008 sec
     gradient                   ...        0 min,  0.001 sec
 * total energy  :   -32.4855717 Eh     change       -0.9968242E-05 Eh
   gradient norm :     0.0016828 Eh/α   predicted    -0.5761154E-05 ( -42.20%)
   displ. norm   :     0.3009852 α      lambda       -0.3997331E-04
   maximum displ.:     0.2288813 α      in ANC's #2, #4, #6, ...

........................................................................
.............................. CYCLE   19 ..............................
........................................................................
   1    -32.7972004 -0.327972E+02  0.111E-01    4.50       0.0  T
   2    -32.7972029 -0.244404E-05  0.658E-02    4.50       1.0  T
   3    -32.7972042 -0.138087E-05  0.958E-03    4.50       2.3  T
   4    -32.7972045 -0.311823E-06  0.732E-03    4.50       3.0  T
   5    -32.7972048 -0.238587E-06  0.424E-03    4.50       5.1  T
   6    -32.7972049 -0.121263E-06  0.152E-03    4.50      14.3  T
   7    -32.7972049 -0.956706E-08  0.759E-04    4.50      28.7  T
   8    -32.7972049 -0.172090E-08  0.166E-04    4.50     131.3  T
     SCC iter.                  ...        0 min,  0.011 sec
     gradient                   ...        0 min,  0.001 sec
 * total energy  :   -32.4856006 Eh     change       -0.2886291E-04 Eh
   gradient norm :     0.0041209 Eh/α   predicted    -0.2079334E-04 ( -27.96%)
   displ. norm   :     0.0472787 α      lambda       -0.1916732E-04
   maximum displ.:     0.0363898 α      in ANC's #2, #5, #4, ...

........................................................................
.............................. CYCLE   20 ..............................
........................................................................
   1    -32.7978525 -0.327979E+02  0.140E-02    4.51       0.0  T
   2    -32.7978526 -0.150655E-06  0.845E-03    4.51       2.6  T
   3    -32.7978527 -0.443025E-07  0.232E-03    4.51       9.4  T
   4    -32.7978527 -0.217286E-07  0.153E-03    4.51      14.3  T
   5    -32.7978527 -0.884017E-08  0.108E-03    4.51      20.2  T
   6    -32.7978527 -0.771126E-08  0.276E-04    4.51      79.2  T
   7    -32.7978527 -0.431335E-09  0.133E-04    4.51     163.9  T
     SCC iter.                  ...        0 min,  0.009 sec
     gradient                   ...        0 min,  0.001 sec
 * total energy  :   -32.4856146 Eh     change       -0.1398177E-04 Eh
   gradient norm :     0.0023616 Eh/α   predicted    -0.9609663E-05 ( -31.27%)
   displ. norm   :     0.1858490 α      lambda       -0.3260533E-04
   maximum displ.:     0.1470501 α      in ANC's #2, #4, #3, ...
 * RMSD in coord.:     0.5508721 α      energy gain  -0.7114341E-02 Eh

generating ANC from model Hessian ...
Using Lindh-Hessian (1995)
 Shifting diagonal of input Hessian by    9.9637798236807615E-003
 Lowest  eigenvalues of input Hessian
    0.000000    0.000000    0.000000    0.000000    0.000000    0.000000
    0.010000    0.010852    0.012010    0.012497    0.012698    0.017068
    0.019778    0.020794    0.023357    0.025022    0.031470    0.035553
 Highest eigenvalues
    1.343352    1.359229    1.436980    1.471230    1.794116    2.296801


........................................................................
.............................. CYCLE   21 ..............................
........................................................................
   1    -32.7977599 -0.327978E+02  0.640E-02    4.51       0.0  T
   2    -32.7977605 -0.621136E-06  0.382E-02    4.51       1.0  T
   3    -32.7977610 -0.550806E-06  0.562E-03    4.50       3.9  T
   4    -32.7977611 -0.929941E-07  0.416E-03    4.51       5.2  T
   5    -32.7977612 -0.100608E-06  0.179E-03    4.50      12.2  T
   6    -32.7977612 -0.199215E-07  0.781E-04    4.50      27.9  T
   7    -32.7977612 -0.191847E-08  0.341E-04    4.50      63.9  T
     SCC iter.                  ...        0 min,  0.009 sec
     gradient                   ...        0 min,  0.001 sec
 * total energy  :   -32.4856398 Eh     change       -0.2526331E-04 Eh
   gradient norm :     0.0013327 Eh/α   predicted     0.0000000E+00 (-100.00%)
   displ. norm   :     0.0390524 α      lambda       -0.1777173E-05
   maximum displ.:     0.0272649 α      in ANC's #4, #6, #1, ...

........................................................................
.............................. CYCLE   22 ..............................
........................................................................
   1    -32.7976928 -0.327977E+02  0.224E-02    4.50       0.0  T
   2    -32.7976929 -0.909341E-07  0.132E-02    4.50       1.6  T
   3    -32.7976929 -0.927808E-08  0.138E-03    4.50      15.8  T
   4    -32.7976929 -0.139078E-07  0.768E-04    4.50      28.4  T
   5    -32.7976929 -0.190970E-08  0.528E-04    4.50      41.4  T
     SCC iter.                  ...        0 min,  0.007 sec
     gradient                   ...        0 min,  0.001 sec
 * total energy  :   -32.4856501 Eh     change       -0.1026393E-04 Eh
   gradient norm :     0.0015224 Eh/α   predicted    -0.7608657E-05 ( -25.87%)
   displ. norm   :     0.0595332 α      lambda       -0.1586244E-04
   maximum displ.:     0.0427170 α      in ANC's #4, #1, #5, ...

........................................................................
.............................. CYCLE   23 ..............................
........................................................................
   1    -32.7976273 -0.327976E+02  0.257E-02    4.50       0.0  T
   2    -32.7976274 -0.138999E-06  0.153E-02    4.50       1.4  T
   3    -32.7976275 -0.310471E-07  0.191E-03    4.50      11.5  T
   4    -32.7976275 -0.214808E-07  0.118E-03    4.50      18.5  T
   5    -32.7976275 -0.438251E-08  0.766E-04    4.50      28.5  T
   6    -32.7976275 -0.317991E-08  0.324E-04    4.50      67.3  T
     SCC iter.                  ...        0 min,  0.010 sec
     gradient                   ...        0 min,  0.001 sec
 * total energy  :   -32.4856670 Eh     change       -0.1693915E-04 Eh
   gradient norm :     0.0009395 Eh/α   predicted    -0.7946115E-05 ( -53.09%)
   displ. norm   :     0.0954859 α      lambda       -0.1640947E-04
   maximum displ.:     0.0640651 α      in ANC's #4, #5, #1, ...

........................................................................
.............................. CYCLE   24 ..............................
........................................................................
   1    -32.7975908 -0.327976E+02  0.381E-02    4.50       0.0  T
   2    -32.7975909 -0.133939E-06  0.226E-02    4.50       1.0  T
   3    -32.7975910 -0.819302E-07  0.216E-03    4.50      10.1  T
   4    -32.7975910 -0.162886E-07  0.161E-03    4.50      13.6  T
   5    -32.7975910 -0.112212E-07  0.809E-04    4.50      27.0  T
   6    -32.7975910 -0.384394E-08  0.396E-04    4.50      55.1  T
     SCC iter.                  ...        0 min,  0.008 sec
     gradient                   ...        0 min,  0.001 sec
 * total energy  :   -32.4856865 Eh     change       -0.1951259E-04 Eh
   gradient norm :     0.0011693 Eh/α   predicted    -0.8239741E-05 ( -57.77%)
   displ. norm   :     0.1516184 α      lambda       -0.2054567E-04
   maximum displ.:     0.0985509 α      in ANC's #4, #5, #1, ...

........................................................................
.............................. CYCLE   25 ..............................
........................................................................
   1    -32.7973555 -0.327974E+02  0.589E-02    4.50       0.0  T
   2    -32.7973558 -0.315067E-06  0.349E-02    4.50       1.0  T
   3    -32.7973560 -0.246169E-06  0.354E-03    4.50       6.2  T
   4    -32.7973561 -0.338223E-07  0.252E-03    4.50       8.6  T
   5    -32.7973561 -0.314951E-07  0.123E-03    4.50      17.7  T
   6    -32.7973561 -0.920380E-08  0.595E-04    4.50      36.7  T
   7    -32.7973561 -0.130520E-08  0.239E-04    4.50      91.5  T
     SCC iter.                  ...        0 min,  0.009 sec
     gradient                   ...        0 min,  0.001 sec
 * total energy  :   -32.4857101 Eh     change       -0.2355632E-04 Eh
   gradient norm :     0.0014957 Eh/α   predicted    -0.1038492E-04 ( -55.91%)
   displ. norm   :     0.1545718 α      lambda       -0.1793652E-04
   maximum displ.:     0.0992159 α      in ANC's #4, #1, #5, ...

........................................................................
.............................. CYCLE   26 ..............................
........................................................................
   1    -32.7972754 -0.327973E+02  0.612E-02    4.50       0.0  T
   2    -32.7972758 -0.378183E-06  0.363E-02    4.50       1.0  T
   3    -32.7972761 -0.301811E-06  0.407E-03    4.50       5.4  T
   4    -32.7972761 -0.463736E-07  0.299E-03    4.50       7.3  T
   5    -32.7972762 -0.456021E-07  0.145E-03    4.50      15.0  T
   6    -32.7972762 -0.139667E-07  0.615E-04    4.50      35.5  T
   7    -32.7972762 -0.124121E-08  0.261E-04    4.50      83.7  T
     SCC iter.                  ...        0 min,  0.009 sec
     gradient                   ...        0 min,  0.001 sec
 * total energy  :   -32.4857307 Eh     change       -0.2065347E-04 Eh
   gradient norm :     0.0017163 Eh/α   predicted    -0.9070111E-05 ( -56.08%)
   displ. norm   :     0.1538424 α      lambda       -0.1753082E-04
   maximum displ.:     0.0975762 α      in ANC's #4, #1, #5, ...

........................................................................
.............................. CYCLE   27 ..............................
........................................................................
   1    -32.7974018 -0.327974E+02  0.620E-02    4.50       0.0  T
   2    -32.7974022 -0.405560E-06  0.368E-02    4.50       1.0  T
   3    -32.7974025 -0.328250E-06  0.451E-03    4.50       4.8  T
   4    -32.7974026 -0.617435E-07  0.352E-03    4.50       6.2  T
   5    -32.7974026 -0.693017E-07  0.145E-03    4.50      15.1  T
   6    -32.7974027 -0.128226E-07  0.636E-04    4.50      34.3  T
   7    -32.7974027 -0.129503E-08  0.248E-04    4.50      88.0  T
     SCC iter.                  ...        0 min,  0.009 sec
     gradient                   ...        0 min,  0.001 sec
 * total energy  :   -32.4857499 Eh     change       -0.1913040E-04 Eh
   gradient norm :     0.0016149 Eh/α   predicted    -0.8861423E-05 ( -53.68%)
   displ. norm   :     0.1307071 α      lambda       -0.1295068E-04
   maximum displ.:     0.0822452 α      in ANC's #4, #1, #5, ...

........................................................................
.............................. CYCLE   28 ..............................
........................................................................
   1    -32.7975758 -0.327976E+02  0.542E-02    4.50       0.0  T
   2    -32.7975761 -0.297572E-06  0.322E-02    4.50       1.0  T
   3    -32.7975764 -0.260731E-06  0.403E-03    4.50       5.4  T
   4    -32.7975764 -0.484873E-07  0.316E-03    4.50       6.9  T
   5    -32.7975765 -0.616636E-07  0.104E-03    4.50      21.0  T
   6    -32.7975765 -0.489127E-08  0.541E-04    4.50      40.3  T
   7    -32.7975765 -0.991825E-09  0.110E-04    4.50     197.6  T
     SCC iter.                  ...        0 min,  0.009 sec
     gradient                   ...        0 min,  0.001 sec
 * total energy  :   -32.4857632 Eh     change       -0.1330628E-04 Eh
   gradient norm :     0.0011329 Eh/α   predicted    -0.6528712E-05 ( -50.94%)
   displ. norm   :     0.0925785 α      lambda       -0.6296817E-05
   maximum displ.:     0.0573752 α      in ANC's #4, #5, #1, ...

........................................................................
.............................. CYCLE   29 ..............................
........................................................................
   1    -32.7976335 -0.327976E+02  0.398E-02    4.51       0.0  T
   2    -32.7976337 -0.154015E-06  0.236E-02    4.51       1.0  T
   3    -32.7976338 -0.131418E-06  0.270E-03    4.51       8.1  T
   4    -32.7976338 -0.200612E-07  0.199E-03    4.51      11.0  T
   5    -32.7976338 -0.216040E-07  0.875E-04    4.51      24.9  T
   6    -32.7976339 -0.468668E-08  0.425E-04    4.51      51.4  T
     SCC iter.                  ...        0 min,  0.008 sec
     gradient                   ...        0 min,  0.001 sec
 * total energy  :   -32.4857689 Eh     change       -0.5755119E-05 Eh
   gradient norm :     0.0007087 Eh/α   predicted    -0.3161728E-05 ( -45.06%)
   displ. norm   :     0.0442517 α      lambda       -0.2535438E-05
   maximum displ.:     0.0250676 α      in ANC's #4, #5, #2, ...

........................................................................
.............................. CYCLE   30 ..............................
........................................................................
   1    -32.7977846 -0.327978E+02  0.195E-02    4.51       0.0  T
   2    -32.7977847 -0.457784E-07  0.115E-02    4.51       1.9  T
   3    -32.7977847 -0.252023E-07  0.119E-03    4.51      18.3  T
   4    -32.7977847 -0.421461E-08  0.885E-04    4.51      24.7  T
   5    -32.7977847 -0.313733E-08  0.529E-04    4.51      41.3  T
     SCC iter.                  ...        0 min,  0.007 sec
     gradient                   ...        0 min,  0.001 sec
 * total energy  :   -32.4857714 Eh     change       -0.2502230E-05 Eh
   gradient norm :     0.0003459 Eh/α   predicted    -0.1269454E-05 ( -49.27%)
   displ. norm   :     0.0530136 α      lambda       -0.2244209E-05
   maximum displ.:     0.0330154 α      in ANC's #5, #4, #2, ...

   *** GEOMETRY OPTIMIZATION CONVERGED AFTER 30 ITERATIONS ***

------------------------------------------------------------------------
 total energy gain   :        -0.0072712 Eh       -4.5628 kcal/mol
 total RMSD          :         0.6238185 a0        0.3301 Å
 total power (kW/mol):        -0.6363532 (step)  -47.3889 (real)
------------------------------------------------------------------------

 ANCopt (total)                0 d,  0 h,  0 min,  0.403 sec
 optimizer setup                ...        0 min,  0.000 sec (  0.030%)
 model hessian                  ...        0 min,  0.014 sec (  3.528%)
 ANC generation                 ...        0 min,  0.002 sec (  0.585%)
 coordinate transformation      ...        0 min,  0.001 sec (  0.135%)
 single point calculation       ...        0 min,  0.376 sec ( 93.400%)
 optimization log               ...        0 min,  0.002 sec (  0.618%)
 hessian update                 ...        0 min,  0.001 sec (  0.216%)
 rational function              ...        0 min,  0.003 sec (  0.831%)

================
 final structure:
================
21
 xtb: 6.5.1 (fef0646)
N            1.04114802983603       -0.05622041340111       -0.27148180473901
C            2.51363790611693        0.01882056374884       -0.35883477309437
C            3.12988387462145       -0.99411700441427        0.59981386572064
C            4.65317028518402       -0.90365562047519        0.66065078500050
C            5.14040805741489        0.40690934389512        1.27912731677463
C            6.57629055673636        0.32249240019454        1.73151171323884
O            7.08453647298440        1.43552108140088        2.26686944816314
O            7.26660366532651       -0.66619154149440        1.63978768275676
Cl           0.26142098324873        0.49305059054603        2.64058322590032
H            0.58848328373859        0.62428069620801       -0.88543591803202
H            0.74315659831660        0.14764107374223        0.71657932674999
H            0.71119739339772       -0.99793587846481       -0.49579336390918
H            2.81517001537761        1.02595123019651       -0.07750403803005
H            2.83367989933065       -0.18427041525854       -1.38142848316680
H            2.85960104428676       -2.00322010070394        0.28831918231468
H            2.71150746722839       -0.82743476303680        1.59429737885403
H            5.07935313014999       -1.01564805337233       -0.33696794133679
H            5.03687325273439       -1.72641163707389        1.26646341323655
H            4.52748095924176        0.64684426271688        2.15211540686639
H            5.05943008728444        1.22937970200617        0.56707422862321
H            6.45359703744405        2.17684448303785        2.31007334810899

 Bond Distances (Angstroems)
 ---------------------------
N1-C2=1.4770         N1-H10=1.0222        N1-H11=1.0520        N1-H12=1.0227        C2-N1=1.4770         C2-C3=1.5247         
C2-H13=1.0883        C2-H14=1.0906        C3-C2=1.5247         C3-C4=1.5272         C3-H15=1.0901        C3-H16=1.0917        
C4-C3=1.5272         C4-C5=1.5289         C4-H17=1.0906        C4-H18=1.0914        C5-C4=1.5289         C5-C6=1.5078         
C5-H19=1.0933        C5-H20=1.0909        C6-C5=1.5078         C6-O7=1.3356         C6-O8=1.2093         O7-C6=1.3356         
O7-H21=0.9744        O8-C6=1.2093         H10-N1=1.0222        H11-N1=1.0520        H12-N1=1.0227        H13-C2=1.0883        
H14-C2=1.0906        H15-C3=1.0901        H16-C3=1.0917        H17-C4=1.0906        H18-C4=1.0914        H19-C5=1.0933        
H20-C5=1.0909        H21-O7=0.9744        
 C  H  Rav=1.0909 sigma=0.0013  Rmin=1.0883  Rmax=1.0933     8
 C  C  Rav=1.5222 sigma=0.0084  Rmin=1.5078  Rmax=1.5289     4
 N  H  Rav=1.0323 sigma=0.0139  Rmin=1.0222  Rmax=1.0520     3
 N  C  Rav=1.4770 sigma=0.0000  Rmin=1.4770  Rmax=1.4770     1
 O  H  Rav=0.9744 sigma=0.0000  Rmin=0.9744  Rmax=0.9744     1
 O  C  Rav=1.2724 sigma=0.0631  Rmin=1.2093  Rmax=1.3356     2

 selected bond angles (degree)
 --------------------
H10-N1-C2=111.85               H11-N1-C2=109.15               H11-N1-H10=108.04              H12-N1-C2=110.82               
H12-N1-H10=109.78              H12-N1-H11=107.04              C3-C2-N1=109.39                H13-C2-N1=107.94               
H13-C2-C3=109.89               H14-C2-N1=109.79               H14-C2-C3=110.32               H14-C2-H13=109.48              
C4-C3-C2=112.88                H15-C3-C2=109.58               H15-C3-C4=108.27               H16-C3-C2=108.45               
H16-C3-C4=109.69               H16-C3-H15=107.86              C5-C4-C3=112.63                H17-C4-C3=110.32               
H17-C4-C5=109.48               H18-C4-C3=109.16               H18-C4-C5=108.04               H18-C4-H17=107.03              
C6-C5-C4=112.14                H19-C5-C4=109.42               H19-C5-C6=107.85               H20-C5-C4=111.01               
H20-C5-C6=107.98               H20-C5-H19=108.31              O7-C6-C5=115.85                O8-C6-C5=124.51                
O8-C6-O7=119.64                H21-O7-C6=113.92               

 selected dihedral angles (degree)
 ---------------------------------
C3-C2-N1-H10=178.70           C3-C2-N1-H11= 59.20           C3-C2-N1-H12=301.56           H13-C2-N1-H10= 59.16          
H13-C2-N1-H11=299.66          H13-C2-N1-H12=182.01          H14-C2-N1-H10=299.89          H14-C2-N1-H11=180.39          
H14-C2-N1-H12= 62.74          C4-C3-C2-N1=184.82            C4-C3-C2-H13=303.15           C4-C3-C2-H14= 63.96           
H15-C3-C2-N1= 64.07           H15-C3-C2-H13=182.40          H15-C3-C2-H14=303.21          H16-C3-C2-N1=306.58           
H16-C3-C2-H13= 64.91          H16-C3-C2-H14=185.71          C5-C4-C3-C2= 66.73            C5-C4-C3-H15=188.22           
C5-C4-C3-H16=305.68           H17-C4-C3-C2=304.07           H17-C4-C3-H15= 65.56          H17-C4-C3-H16=183.02          
H18-C4-C3-C2=186.72           H18-C4-C3-H15=308.22          H18-C4-C3-H16= 65.67          C6-C5-C4-C3=162.08            
C6-C5-C4-H17=285.21           C6-C5-C4-H18= 41.44           H19-C5-C4-C3= 42.45           H19-C5-C4-H17=165.58          
H19-C5-C4-H18=281.82          H20-C5-C4-C3=282.97           H20-C5-C4-H17= 46.10          H20-C5-C4-H18=162.33          
O7-C6-C5-C4=179.07            O7-C6-C5-H19=299.61           O7-C6-C5-H20= 56.45           O8-C6-C5-C4=358.97            
O8-C6-C5-H19=119.51           O8-C6-C5-H20=236.35           H21-O7-C6-C5=  0.63           H21-O7-C6-O8=180.73           

 CMA Distance (Angstroems)
 ---------------------------
R(CMA):  4.7254
           -------------------------------------------------
          |                Final Singlepoint                |
           -------------------------------------------------

          ...................................................
          :                      SETUP                      :
          :.................................................:
          :  # basis functions                  54          :
          :  # atomic orbitals                  53          :
          :  # shells                           31          :
          :  # electrons                        56          :
          :  max. iterations                   250          :
          :  Hamiltonian                  GFN2-xTB          :
          :  restarted?                      false          :
          :  GBSA solvation                   true          :
          :  PC potential                    false          :
          :  electronic temp.          300.0000000     K    :
          :  accuracy                    1.0000000          :
          :  -> integral cutoff          0.2500000E+02      :
          :  -> integral neglect         0.1000000E-07      :
          :  -> SCF convergence          0.1000000E-05 Eh   :
          :  -> wf. convergence          0.1000000E-03 e    :
          :  Broyden damping             0.4000000          :
          ...................................................

 iter      E             dE          RMSdq      gap      omega  full diag
   1    -32.7977847 -0.327978E+02  0.213E-04    4.51       0.0  T
   2    -32.7977847 -0.937206E-10  0.158E-04    4.51     137.8  T
   3    -32.7977847 -0.775486E-10  0.902E-05    4.51     241.8  T

   *** convergence criteria satisfied after 3 iterations ***

         #    Occupation            Energy/Eh            Energy/eV
      -------------------------------------------------------------
         1        2.0000           -1.0070072             -27.4021
       ...           ...                  ...                  ...
        22        2.0000           -0.4530808             -12.3290
        23        2.0000           -0.4317092             -11.7474
        24        2.0000           -0.4298359             -11.6964
        25        2.0000           -0.4194575             -11.4140
        26        2.0000           -0.4034916             -10.9796
        27        2.0000           -0.4012746             -10.9192
        28        2.0000           -0.4007261             -10.9043 (HOMO)
        29                         -0.2350693              -6.3966 (LUMO)
        30                         -0.0284597              -0.7744
        31                          0.0556390               1.5140
        32                          0.0722438               1.9659
        33                          0.0856208               2.3299
       ...                                ...                  ...
        53                          0.6078225              16.5397
      -------------------------------------------------------------
                  HL-Gap            0.1656568 Eh            4.5078 eV
             Fermi-level           -0.3178977 Eh           -8.6504 eV

 SCC (total)                   0 d,  0 h,  0 min,  0.007 sec
 SCC setup                      ...        0 min,  0.000 sec (  2.436%)
 Dispersion                     ...        0 min,  0.000 sec (  2.218%)
 classical contributions        ...        0 min,  0.000 sec (  0.546%)
 integral evaluation            ...        0 min,  0.001 sec ( 10.278%)
 iterations                     ...        0 min,  0.004 sec ( 59.778%)
 molecular gradient             ...        0 min,  0.001 sec ( 21.790%)
 printout                       ...        0 min,  0.000 sec (  1.319%)

         :::::::::::::::::::::::::::::::::::::::::::::::::::::
         ::                     SUMMARY                     ::
         :::::::::::::::::::::::::::::::::::::::::::::::::::::
         :: total energy             -32.485771442487 Eh    ::
         :: total w/o Gsasa/hb       -32.474139397454 Eh    ::
         :: gradient norm              0.000346640684 Eh/a0 ::
         :: HOMO-LUMO gap              4.507751256543 eV    ::
         ::.................................................::
         :: SCC energy               -32.797784690493 Eh    ::
         :: -> isotropic ES            0.190683252138 Eh    ::
         :: -> anisotropic ES         -0.031216690020 Eh    ::
         :: -> anisotropic XC         -0.001133203070 Eh    ::
         :: -> dispersion             -0.012760506576 Eh    ::
         :: -> Gsolv                  -0.093109578381 Eh    ::
         ::    -> Gelec               -0.081477533348 Eh    ::
         ::    -> Gsasa                0.002707937151 Eh    ::
         ::    -> Ghb                 -0.015420741882 Eh    ::
         ::    -> Gshift               0.001080759698 Eh    ::
         :: repulsion energy           0.311967023342 Eh    ::
         :: add. restraining           0.000000000000 Eh    ::
         :: total charge              -0.000000000000 e     ::
         :::::::::::::::::::::::::::::::::::::::::::::::::::::

           -------------------------------------------------
          |                Property Printout                |
           -------------------------------------------------

    * Orbital Energies and Occupations

         #    Occupation            Energy/Eh            Energy/eV
      -------------------------------------------------------------
         1        2.0000           -1.0070072             -27.4021
       ...           ...                  ...                  ...
        16        2.0000           -0.5090489             -13.8519
        17        2.0000           -0.5057267             -13.7615
        18        2.0000           -0.4909858             -13.3604
        19        2.0000           -0.4764992             -12.9662
        20        2.0000           -0.4736034             -12.8874
        21        2.0000           -0.4632565             -12.6059
        22        2.0000           -0.4530808             -12.3290
        23        2.0000           -0.4317092             -11.7474
        24        2.0000           -0.4298359             -11.6964
        25        2.0000           -0.4194575             -11.4140
        26        2.0000           -0.4034916             -10.9796
        27        2.0000           -0.4012746             -10.9192
        28        2.0000           -0.4007261             -10.9043 (HOMO)
        29                         -0.2350693              -6.3966 (LUMO)
        30                         -0.0284597              -0.7744
        31                          0.0556390               1.5140
        32                          0.0722438               1.9659
        33                          0.0856208               2.3299
        34                          0.0982366               2.6732
        35                          0.1004161               2.7325
        36                          0.1155180               3.1434
        37                          0.1166398               3.1739
        38                          0.1182559               3.2179
        39                          0.1187848               3.2323
       ...                                ...                  ...
        53                          0.6078225              16.5397
      -------------------------------------------------------------
                  HL-Gap            0.1656568 Eh            4.5078 eV
             Fermi-level           -0.3178977 Eh           -8.6504 eV

     #   Z          covCN         q      C6AA      α(0)
     1   7 N        3.484    -0.171    24.692     7.380
     2   6 C        3.732    -0.029    21.181     6.569
     3   6 C        3.804    -0.082    22.055     6.686
     4   6 C        3.803    -0.065    21.743     6.638
     5   6 C        3.803    -0.115    22.699     6.783
     6   6 C        2.689     0.370    20.730     7.451
     7   8 O        1.659    -0.434    21.515     6.262
     8   8 O        0.856    -0.469    23.108     6.445
     9  17 Cl       0.045    -0.948   124.919    17.010
    10   1 H        0.859     0.305     0.698     1.308
    11   1 H        0.901     0.295     0.725     1.332
    12   1 H        0.859     0.296     0.725     1.334
    13   1 H        0.925     0.100     1.781     2.087
    14   1 H        0.924     0.107     1.723     2.053
    15   1 H        0.925     0.067     2.124     2.279
    16   1 H        0.924     0.064     2.155     2.295
    17   1 H        0.924     0.059     2.206     2.323
    18   1 H        0.924     0.051     2.302     2.373
    19   1 H        0.924     0.090     1.879     2.144
    20   1 H        0.924     0.095     1.832     2.116
    21   1 H        0.804     0.413     0.461     1.067

 Mol. C6AA /au·bohr⁶  :       4000.016049
 Mol. C8AA /au·bohr⁸  :      97971.813360
 Mol. α(0) /au        :         93.936481


Wiberg/Mayer (AO) data.
largest (>0.10) Wiberg bond orders for each atom

 ---------------------------------------------------------------------------
     #   Z sym  total        # sym  WBO       # sym  WBO       # sym  WBO
 ---------------------------------------------------------------------------
     1   7 N    3.644 --     2 C    0.969    12 H    0.897    10 H    0.893
                            11 H    0.833
     2   6 C    3.930 --     3 C    1.010     1 N    0.969    14 H    0.967
                            13 H    0.967
     3   6 C    3.991 --     2 C    1.010     4 C    1.007    15 H    0.972
                            16 H    0.971
     4   6 C    3.992 --     3 C    1.007     5 C    1.006    17 H    0.975
                            18 H    0.974
     5   6 C    3.991 --     4 C    1.006     6 C    0.988    20 H    0.946
                            19 H    0.943
     6   6 C    3.898 --     8 O    1.723     7 O    1.148     5 C    0.988
     7   8 O    2.163 --     6 C    1.148    21 H    0.808     8 O    0.156
     8   8 O    1.994 --     6 C    1.723     7 O    0.156
     9  17 Cl   0.101
    10   1 H    0.907 --     1 N    0.893
    11   1 H    0.913 --     1 N    0.833
    12   1 H    0.912 --     1 N    0.897
    13   1 H    0.990 --     2 C    0.967
    14   1 H    0.989 --     2 C    0.967
    15   1 H    0.995 --     3 C    0.972
    16   1 H    0.996 --     3 C    0.971
    17   1 H    0.996 --     4 C    0.975
    18   1 H    0.997 --     4 C    0.974
    19   1 H    0.992 --     5 C    0.943
    20   1 H    0.991 --     5 C    0.946
    21   1 H    0.829 --     7 O    0.808
 ---------------------------------------------------------------------------

Topologies differ in total number of bonds
Writing topology from bond orders to xtbtopo.mol

molecular dipole:
                 x           y           z       tot (Debye)
 q only:       -0.045       0.386      -5.276
   full:       -0.585       0.659      -4.569      11.827
molecular quadrupole (traceless):
                xx          xy          yy          xz          yz          zz
 q only:      -24.469      23.359      32.120     -14.550       0.958      -7.651
  q+dip:      -34.976      25.615      32.229     -16.552       3.015       2.747
   full:      -34.495      25.837      31.986     -16.523       2.818       2.509

           -------------------------------------------------
          |                Geometry Summary                 |
           -------------------------------------------------

      molecular mass/u    :      153.6074191
   center of mass at/Å    :        3.6299713       0.0929860       1.3350299
  moments of inertia/u·Å² :        0.2745223E+03   0.1163433E+04   0.1322107E+04
rotational constants/cm⁻¹ :        0.6140715E-01   0.1448956E-01   0.1275058E-01

 * 18 selected distances

     #   Z          #   Z                                           value/Å
     1   7 N        2   6 C                                       1.4769863
     2   6 C        3   6 C                                       1.5247325
     3   6 C        4   6 C                                       1.5271825
     4   6 C        5   6 C                                       1.5288868 (max)
     6   6 C        7   8 O                                       1.3355729
     6   6 C        8   8 O                                       1.2093146
     1   7 N       10   1 H                                       1.0222167
     1   7 N       11   1 H                                       1.0519617
     1   7 N       12   1 H                                       1.0227469
     2   6 C       13   1 H                                       1.0882927
     2   6 C       14   1 H                                       1.0905828
     3   6 C       15   1 H                                       1.0901243
     3   6 C       16   1 H                                       1.0917048
     4   6 C       17   1 H                                       1.0906042
     4   6 C       18   1 H                                       1.0914049
     5   6 C       19   1 H                                       1.0933237
     5   6 C       20   1 H                                       1.0908871
     7   8 O       21   1 H                                       0.9744289 (min)

 * 6 distinct bonds (by element types)

   Z      Z             #   av. dist./Å        max./Å        min./Å
   1 H    6 C           8     1.0908656     1.0933237     1.0882927
   6 C    6 C           3     1.5269339     1.5288868     1.5247325
   1 H    7 N           3     1.0323084     1.0519617     1.0222167
   6 C    7 N           1     1.4769863     1.4769863     1.4769863
   1 H    8 O           1     0.9744289     0.9744289     0.9744289
   6 C    8 O           2     1.2724437     1.3355729     1.2093146


optimized geometry written to: xtbopt.xyz


           -------------------------------------------------
          | TOTAL ENERGY              -32.485771442487 Eh   |
          | GRADIENT NORM               0.000346640684 Eh/α |
          | HOMO-LUMO GAP               4.507751256543 eV   |
           -------------------------------------------------

------------------------------------------------------------------------
 * finished run on 2023/01/24 at 14:57:49.761     
------------------------------------------------------------------------
 total:
 * wall-time:     0 d,  0 h,  0 min,  0.457 sec
 *  cpu-time:     0 d,  0 h,  0 min, 40.354 sec
 * ratio c/w:    88.399 speedup
 SCF:
 * wall-time:     0 d,  0 h,  0 min,  0.028 sec
 *  cpu-time:     0 d,  0 h,  0 min,  3.987 sec
 * ratio c/w:   140.527 speedup
 ANC optimizer:
 * wall-time:     0 d,  0 h,  0 min,  0.410 sec
 *  cpu-time:     0 d,  0 h,  0 min, 34.115 sec
 * ratio c/w:    83.130 speedup

