21
 energy: -32.485771442487 gnorm: 0.000346640684 xtb: 6.5.1 (fef0646)
N            1.04114802983603       -0.05622041340111       -0.27148180473901
C            2.51363790611693        0.01882056374884       -0.35883477309437
C            3.12988387462145       -0.99411700441427        0.59981386572064
C            4.65317028518402       -0.90365562047519        0.66065078500050
C            5.14040805741489        0.40690934389512        1.27912731677463
C            6.57629055673636        0.32249240019454        1.73151171323884
O            7.08453647298440        1.43552108140088        2.26686944816314
O            7.26660366532651       -0.66619154149440        1.63978768275676
Cl           0.26142098324873        0.49305059054603        2.64058322590032
H            0.58848328373859        0.62428069620801       -0.88543591803202
H            0.74315659831660        0.14764107374223        0.71657932674999
H            0.71119739339772       -0.99793587846481       -0.49579336390918
H            2.81517001537761        1.02595123019651       -0.07750403803005
H            2.83367989933065       -0.18427041525854       -1.38142848316680
H            2.85960104428676       -2.00322010070394        0.28831918231468
H            2.71150746722839       -0.82743476303680        1.59429737885403
H            5.07935313014999       -1.01564805337233       -0.33696794133679
H            5.03687325273439       -1.72641163707389        1.26646341323655
H            4.52748095924176        0.64684426271688        2.15211540686639
H            5.05943008728444        1.22937970200617        0.56707422862321
H            6.45359703744405        2.17684448303785        2.31007334810899
