      -----------------------------------------------------------      
     |                   =====================                   |     
     |                           x T B                           |     
     |                   =====================                   |     
     |                         S. Grimme                         |     
     |          Mulliken Center for Theoretical Chemistry        |     
     |                    University of Bonn                     |     
      -----------------------------------------------------------      

   * xtb version 6.5.1 (fef0646) compiled by 'conda@b96dff2e9fd6' on 2023-01-04

   xtb is free software: you can redistribute it and/or modify it under
   the terms of the GNU Lesser General Public License as published by
   the Free Software Foundation, either version 3 of the License, or
   (at your option) any later version.
   
   xtb is distributed in the hope that it will be useful,
   but WITHOUT ANY WARRANTY; without even the implied warranty of
   MERCHANTABILITY or FITNESS FOR A PARTICULAR PURPOSE.  See the
   GNU Lesser General Public License for more details.
   
   Cite this work as:
   * C. Bannwarth, E. Caldeweyher, S. Ehlert, A. Hansen, P. Pracht,
     J. Seibert, S. Spicher, S. Grimme, WIREs Comput. Mol. Sci., 2020, 11,
     e01493. DOI: 10.1002/wcms.1493
   
   for GFN2-xTB:
   * C. Bannwarth, S. Ehlert and S. Grimme., J. Chem. Theory Comput., 2019,
     15, 1652-1671. DOI: 10.1021/acs.jctc.8b01176
   for GFN1-xTB:
   * S. Grimme, C. Bannwarth, P. Shushkov, J. Chem. Theory Comput., 2017,
     13, 1989-2009. DOI: 10.1021/acs.jctc.7b00118
   for GFN0-xTB:
   * P. Pracht, E. Caldeweyher, S. Ehlert, S. Grimme, ChemRxiv, 2019, preprint.
     DOI: 10.26434/chemrxiv.8326202.v1
   for GFN-FF:
   * S. Spicher and S. Grimme, Angew. Chem. Int. Ed., 2020, 59, 15665-15673.
     DOI: 10.1002/anie.202004239
   
   for ALPB and GBSA implicit solvation:
   * S. Ehlert, M. Stahn, S. Spicher, S. Grimme, J. Chem. Theory Comput.,
     2021, 17, 4250-4261. DOI: 10.1021/acs.jctc.1c00471
   
   for DFT-D4:
   * E. Caldeweyher, C. Bannwarth and S. Grimme, J. Chem. Phys., 2017,
     147, 034112. DOI: 10.1063/1.4993215
   * E. Caldeweyher, S. Ehlert, A. Hansen, H. Neugebauer, S. Spicher,
     C. Bannwarth and S. Grimme, J. Chem. Phys., 2019, 150, 154122.
     DOI: 10.1063/1.5090222
   * E. Caldeweyher, J.-M. Mewes, S. Ehlert and S. Grimme, Phys. Chem. Chem. Phys.
     2020, 22, 8499-8512. DOI: 10.1039/D0CP00502A
   
   for sTDA-xTB:
   * S. Grimme and C. Bannwarth, J. Chem. Phys., 2016, 145, 054103.
     DOI: 10.1063/1.4959605
   
   in the mass-spec context:
   * V. Asgeirsson, C. Bauer and S. Grimme, Chem. Sci., 2017, 8, 4879.
     DOI: 10.1039/c7sc00601b
   * J. Koopman and S. Grimme, ACS Omega 2019, 4, 12, 15120-15133.
     DOI: 10.1021/acsomega.9b02011
   
   for metadynamics refer to:
   * S. Grimme, J. Chem. Theory Comput., 2019, 155, 2847-2862
     DOI: 10.1021/acs.jctc.9b00143
   
   for SPH calculations refer to:
   * S. Spicher and S. Grimme, J. Chem. Theory Comput., 2021, 17, 1701-1714
     DOI: 10.1021/acs.jctc.0c01306
   
   with help from (in alphabetical order)
   P. Atkinson, C. Bannwarth, F. Bohle, G. Brandenburg, E. Caldeweyher
   M. Checinski, S. Dohm, S. Ehlert, S. Ehrlich, I. Gerasimov, C. Hölzer
   A. Katbashev, J. Koopman, C. Lavigne, S. Lehtola, F. März, M. Müller,
   F. Musil, H. Neugebauer, J. Pisarek, C. Plett, P. Pracht, F. Pultar,
   J. Seibert, P. Shushkov, S. Spicher, M. Stahn, M. Steiner, T. Strunk,
   J. Stückrath, T. Rose, and J. Unsleber
   
 * started run on 2023/01/23 at 21:00:52.788     

           -------------------------------------------------
          |                Calculation Setup                |
           -------------------------------------------------

          program call               : xtb init.xyz --opt -c 1 -u 0 -P 16 --input xtb.inp
          hostname                   : gpg-woodward
          coordinate file            : init.xyz
          omp threads                :                    16

   ID    Z sym.   atoms
    1    7 N      1
    2    6 C      2, 3, 5-24
    3    8 O      4
    4    1 H      25-42

           -------------------------------------------------
          |                 G F N 2 - x T B                 |
           -------------------------------------------------

        Reference                      10.1021/acs.jctc.8b01176
      * Hamiltonian:
        H0-scaling (s, p, d)           1.850000    2.230000    2.230000
        zeta-weighting                 0.500000
      * Dispersion:
        s8                             2.700000
        a1                             0.520000
        a2                             5.000000
        s9                             5.000000
      * Repulsion:
        kExp                           1.500000    1.000000
        rExp                           1.000000
      * Coulomb:
        alpha                          2.000000
        third order                    shell-resolved
        anisotropic                    true
        a3                             3.000000
        a5                             4.000000
        cn-shift                       1.200000
        cn-exp                         4.000000
        max-rad                        5.000000


          ...................................................
          :                      SETUP                      :
          :.................................................:
          :  # basis functions                 114          :
          :  # atomic orbitals                 114          :
          :  # shells                           66          :
          :  # electrons                       116          :
          :  max. iterations                   250          :
          :  Hamiltonian                  GFN2-xTB          :
          :  restarted?                      false          :
          :  GBSA solvation                  false          :
          :  PC potential                    false          :
          :  electronic temp.          300.0000000     K    :
          :  accuracy                    1.0000000          :
          :  -> integral cutoff          0.2500000E+02      :
          :  -> integral neglect         0.1000000E-07      :
          :  -> SCF convergence          0.1000000E-05 Eh   :
          :  -> wf. convergence          0.1000000E-03 e    :
          :  Broyden damping             0.4000000          :
          ...................................................

 iter      E             dE          RMSdq      gap      omega  full diag
   1    -63.7821303 -0.637821E+02  0.411E+00    1.63       0.0  T
   2    -63.9108758 -0.128745E+00  0.246E+00    1.63       1.0  T
   3    -63.8811050  0.297708E-01  0.143E+00    1.68       1.0  T
   4    -63.9065478 -0.254428E-01  0.854E-01    1.64       1.0  T
   5    -63.9300081 -0.234603E-01  0.179E-01    1.62       1.0  T
   6    -63.9311473 -0.113916E-02  0.823E-02    1.62       1.0  T
   7    -63.9312022 -0.548966E-04  0.431E-02    1.62       1.0  T
   8    -63.9312571 -0.549463E-04  0.137E-02    1.62       1.1  T
   9    -63.9312623 -0.515068E-05  0.487E-03    1.62       3.2  T
  10    -63.9312627 -0.464878E-06  0.214E-03    1.62       7.2  T
  11    -63.9312628 -0.409467E-07  0.847E-04    1.62      18.2  T
  12    -63.9312628 -0.122113E-07  0.391E-04    1.62      39.4  T

   *** convergence criteria satisfied after 12 iterations ***

         #    Occupation            Energy/Eh            Energy/eV
      -------------------------------------------------------------
         1        2.0000           -0.8963264             -24.3903
       ...           ...                  ...                  ...
        52        2.0000           -0.4830222             -13.1437
        53        2.0000           -0.4786472             -13.0247
        54        2.0000           -0.4744969             -12.9117
        55        2.0000           -0.4724917             -12.8572
        56        2.0000           -0.4707332             -12.8093
        57        2.0000           -0.4643748             -12.6363
        58        2.0000           -0.4229176             -11.5082 (HOMO)
        59                         -0.3633315              -9.8868 (LUMO)
        60                         -0.3106131              -8.4522
        61                         -0.3013675              -8.2006
        62                         -0.2991806              -8.1411
        63                         -0.2919772              -7.9451
       ...                                ...                  ...
       114                          0.6472055              17.6114
      -------------------------------------------------------------
                  HL-Gap            0.0595861 Eh            1.6214 eV
             Fermi-level           -0.3931246 Eh          -10.6975 eV

 SCC (total)                   0 d,  0 h,  0 min,  0.158 sec
 SCC setup                      ...        0 min,  0.001 sec (  0.365%)
 Dispersion                     ...        0 min,  0.002 sec (  0.997%)
 classical contributions        ...        0 min,  0.000 sec (  0.117%)
 integral evaluation            ...        0 min,  0.007 sec (  4.494%)
 iterations                     ...        0 min,  0.133 sec ( 83.910%)
 molecular gradient             ...        0 min,  0.015 sec (  9.610%)
 printout                       ...        0 min,  0.001 sec (  0.389%)

         :::::::::::::::::::::::::::::::::::::::::::::::::::::
         ::                     SUMMARY                     ::
         :::::::::::::::::::::::::::::::::::::::::::::::::::::
         :: total energy             -62.859256071199 Eh    ::
         :: gradient norm              0.097962337066 Eh/a0 ::
         :: HOMO-LUMO gap              1.621420694467 eV    ::
         ::.................................................::
         :: SCC energy               -63.931262798146 Eh    ::
         :: -> isotropic ES            0.121962103777 Eh    ::
         :: -> anisotropic ES         -0.007084336487 Eh    ::
         :: -> anisotropic XC          0.033244919081 Eh    ::
         :: -> dispersion             -0.049717097957 Eh    ::
         :: repulsion energy           1.072054445405 Eh    ::
         :: add. restraining           0.000000000000 Eh    ::
         :: total charge               1.000000000000 e     ::
         :::::::::::::::::::::::::::::::::::::::::::::::::::::

      ----------------------------------------------------------- 
     |                   =====================                   |
     |                        A N C O P T                        |
     |                   =====================                   |
     |               Approximate Normal Coordinate               |
     |                Rational Function Optimizer                |
      ----------------------------------------------------------- 

          ...................................................
          :                      SETUP                      :
          :.................................................:
          :   optimization level            normal          :
          :   max. optcycles                   200          :
          :   ANC micro-cycles                  20          :
          :   degrees of freedom               120          :
          :.................................................:
          :   RF solver                   davidson          :
          :   write xtbopt.log                true          :
          :   linear?                        false          :
          :   energy convergence         0.5000000E-05 Eh   :
          :   grad. convergence          0.1000000E-02 Eh/α :
          :   maximium RF displ.         1.0000000          :
          :   Hlow (freq-cutoff)         0.1000000E-01      :
          :   Hmax (freq-cutoff)         5.0000000          :
          :   S6 in model hess.         20.0000000          :
          ...................................................

generating ANC from model Hessian ...
Using Lindh-Hessian (1995)
 Shifting diagonal of input Hessian by    9.6173168764957413E-003
 Lowest  eigenvalues of input Hessian
    0.000000    0.000000    0.000000    0.000000    0.000000    0.000000
    0.010000    0.010427    0.010967    0.011470    0.012443    0.013250
    0.015524    0.015974    0.016351    0.018023    0.020158    0.021385
 Highest eigenvalues
    1.929021    1.962508    2.010780    2.044535    2.111223    2.135846


........................................................................
.............................. CYCLE    1 ..............................
........................................................................
   1    -63.9312628 -0.639313E+02  0.189E-04    1.62       0.0  T
   2    -63.9312628 -0.222286E-09  0.126E-04    1.62     122.0  T
   3    -63.9312628 -0.982112E-10  0.859E-05    1.62     179.7  T
     SCC iter.                  ...        0 min,  0.020 sec
     gradient                   ...        0 min,  0.013 sec
 * total energy  :   -62.8592561 Eh     change       -0.1894968E-08 Eh
   gradient norm :     0.0979658 Eh/α   predicted     0.0000000E+00 (-100.00%)
   displ. norm   :     0.2425247 α      lambda       -0.9660121E-02
   maximum displ.:     0.1016746 α      in ANC's #4, #3, #9, ...

........................................................................
.............................. CYCLE    2 ..............................
........................................................................
   1    -63.9596346 -0.639596E+02  0.144E-01    1.77       0.0  T
   2    -63.9596730 -0.383190E-04  0.923E-02    1.77       1.0  T
   3    -63.9595991  0.739042E-04  0.479E-02    1.77       1.0  T
   4    -63.9597002 -0.101171E-03  0.921E-03    1.77       1.7  T
   5    -63.9597025 -0.230224E-05  0.408E-03    1.77       3.8  T
   6    -63.9597030 -0.433622E-06  0.153E-03    1.77      10.1  T
   7    -63.9597030 -0.363817E-07  0.817E-04    1.77      18.9  T
   8    -63.9597030 -0.988496E-08  0.292E-04    1.77      52.8  T
     SCC iter.                  ...        0 min,  0.048 sec
     gradient                   ...        0 min,  0.014 sec
 * total energy  :   -62.8661509 Eh     change       -0.6894854E-02 Eh
   gradient norm :     0.0458990 Eh/α   predicted    -0.5117634E-02 ( -25.78%)
   displ. norm   :     0.3109370 α      lambda       -0.3889351E-02
   maximum displ.:     0.1782150 α      in ANC's #3, #4, #9, ...

........................................................................
.............................. CYCLE    3 ..............................
........................................................................
   1    -63.9748497 -0.639748E+02  0.120E-01    1.89       0.0  T
   2    -63.9748737 -0.240549E-04  0.740E-02    1.89       1.0  T
   3    -63.9748302  0.435443E-04  0.360E-02    1.89       1.0  T
   4    -63.9748877 -0.575446E-04  0.545E-03    1.89       2.8  T
   5    -63.9748885 -0.822486E-06  0.265E-03    1.89       5.8  T
   6    -63.9748887 -0.178591E-06  0.109E-03    1.89      14.1  T
   7    -63.9748887 -0.232161E-07  0.568E-04    1.89      27.2  T
   8    -63.9748887 -0.635148E-08  0.206E-04    1.89      75.0  T
     SCC iter.                  ...        0 min,  0.047 sec
     gradient                   ...        0 min,  0.013 sec
 * total energy  :   -62.8684991 Eh     change       -0.2348138E-02 Eh
   gradient norm :     0.0089500 Eh/α   predicted    -0.2133347E-02 (  -9.15%)
   displ. norm   :     0.3064345 α      lambda       -0.1000317E-02
   maximum displ.:     0.2061112 α      in ANC's #3, #4, #9, ...

........................................................................
.............................. CYCLE    4 ..............................
........................................................................
   1    -63.9744835 -0.639745E+02  0.887E-02    1.91       0.0  T
   2    -63.9744869 -0.342067E-05  0.524E-02    1.91       1.0  T
   3    -63.9744617  0.251598E-04  0.251E-02    1.91       1.0  T
   4    -63.9744905 -0.287371E-04  0.298E-03    1.91       5.2  T
   5    -63.9744907 -0.219610E-06  0.147E-03    1.91      10.5  T
   6    -63.9744907 -0.464435E-07  0.548E-04    1.91      28.1  T
   7    -63.9744907 -0.180767E-08  0.233E-04    1.91      66.2  T
     SCC iter.                  ...        0 min,  0.041 sec
     gradient                   ...        0 min,  0.011 sec
 * total energy  :   -62.8693476 Eh     change       -0.8484925E-03 Eh
   gradient norm :     0.0112186 Eh/α   predicted    -0.5471273E-03 ( -35.52%)
   displ. norm   :     0.5047662 α      lambda       -0.1385057E-02
   maximum displ.:     0.3312912 α      in ANC's #3, #4, #6, ...

........................................................................
.............................. CYCLE    5 ..............................
........................................................................
   1    -63.9706400 -0.639706E+02  0.141E-01    1.90       0.0  T
   2    -63.9706462 -0.627355E-05  0.838E-02    1.90       1.0  T
   3    -63.9705617  0.845518E-04  0.468E-02    1.90       1.0  T
   4    -63.9706581 -0.964085E-04  0.405E-03    1.90       3.8  T
   5    -63.9706584 -0.270221E-06  0.211E-03    1.90       7.3  T
   6    -63.9706584 -0.775999E-07  0.853E-04    1.90      18.1  T
   7    -63.9706584 -0.239709E-08  0.380E-04    1.90      40.6  T
     SCC iter.                  ...        0 min,  0.041 sec
     gradient                   ...        0 min,  0.013 sec
 * total energy  :   -62.8704983 Eh     change       -0.1150710E-02 Eh
   gradient norm :     0.0142087 Eh/α   predicted    -0.8689832E-03 ( -24.48%)
   displ. norm   :     0.5443584 α      lambda       -0.1223625E-02
   maximum displ.:     0.3688293 α      in ANC's #3, #4, #6, ...

........................................................................
.............................. CYCLE    6 ..............................
........................................................................
   1    -63.9680477 -0.639680E+02  0.149E-01    1.88       0.0  T
   2    -63.9680542 -0.648417E-05  0.883E-02    1.88       1.0  T
   3    -63.9679546  0.996007E-04  0.511E-02    1.88       1.0  T
   4    -63.9680679 -0.113307E-03  0.398E-03    1.88       3.9  T
   5    -63.9680681 -0.221404E-06  0.216E-03    1.88       7.1  T
   6    -63.9680682 -0.887869E-07  0.962E-04    1.88      16.0  T
   7    -63.9680682 -0.502758E-08  0.412E-04    1.88      37.4  T
     SCC iter.                  ...        0 min,  0.041 sec
     gradient                   ...        0 min,  0.013 sec
 * total energy  :   -62.8715065 Eh     change       -0.1008279E-02 Eh
   gradient norm :     0.0147875 Eh/α   predicted    -0.7931114E-03 ( -21.34%)
   displ. norm   :     0.5365278 α      lambda       -0.1101542E-02
   maximum displ.:     0.3792726 α      in ANC's #3, #4, #6, ...

........................................................................
.............................. CYCLE    7 ..............................
........................................................................
   1    -63.9688606 -0.639689E+02  0.145E-01    1.86       0.0  T
   2    -63.9688665 -0.589842E-05  0.855E-02    1.86       1.0  T
   3    -63.9687880  0.784663E-04  0.450E-02    1.86       1.0  T
   4    -63.9688760 -0.880204E-04  0.377E-03    1.86       4.1  T
   5    -63.9688763 -0.246852E-06  0.197E-03    1.86       7.8  T
   6    -63.9688764 -0.728902E-07  0.931E-04    1.86      16.6  T
   7    -63.9688764 -0.589257E-08  0.389E-04    1.86      39.7  T
     SCC iter.                  ...        0 min,  0.040 sec
     gradient                   ...        0 min,  0.012 sec
 * total energy  :   -62.8724137 Eh     change       -0.9072018E-03 Eh
   gradient norm :     0.0115465 Eh/α   predicted    -0.7093250E-03 ( -21.81%)
   displ. norm   :     0.5359252 α      lambda       -0.1003780E-02
   maximum displ.:     0.4010212 α      in ANC's #3, #4, #13, ...

........................................................................
.............................. CYCLE    8 ..............................
........................................................................
   1    -63.9724503 -0.639725E+02  0.140E-01    1.84       0.0  T
   2    -63.9724562 -0.587245E-05  0.824E-02    1.84       1.0  T
   3    -63.9724111  0.450842E-04  0.337E-02    1.84       1.0  T
   4    -63.9724613 -0.501600E-04  0.407E-03    1.84       3.8  T
   5    -63.9724617 -0.433315E-06  0.183E-03    1.84       8.4  T
   6    -63.9724618 -0.592891E-07  0.828E-04    1.84      18.6  T
   7    -63.9724618 -0.550072E-08  0.347E-04    1.84      44.4  T
     SCC iter.                  ...        0 min,  0.041 sec
     gradient                   ...        0 min,  0.011 sec
 * total energy  :   -62.8732242 Eh     change       -0.8104344E-03 Eh
   gradient norm :     0.0072566 Eh/α   predicted    -0.6460413E-03 ( -20.28%)
   displ. norm   :     0.5391797 α      lambda       -0.7774011E-03
   maximum displ.:     0.4190421 α      in ANC's #3, #4, #13, ...

........................................................................
.............................. CYCLE    9 ..............................
........................................................................
   1    -63.9747653 -0.639748E+02  0.137E-01    1.84       0.0  T
   2    -63.9747708 -0.551812E-05  0.804E-02    1.84       1.0  T
   3    -63.9747435  0.273501E-04  0.258E-02    1.84       1.0  T
   4    -63.9747740 -0.305058E-04  0.398E-03    1.84       3.9  T
   5    -63.9747744 -0.422597E-06  0.176E-03    1.84       8.8  T
   6    -63.9747745 -0.675723E-07  0.726E-04    1.84      21.3  T
   7    -63.9747745 -0.508247E-08  0.304E-04    1.84      50.8  T
     SCC iter.                  ...        0 min,  0.041 sec
     gradient                   ...        0 min,  0.011 sec
 * total energy  :   -62.8738385 Eh     change       -0.6142685E-03 Eh
   gradient norm :     0.0068917 Eh/α   predicted    -0.5017128E-03 ( -18.32%)
   displ. norm   :     0.5099935 α      lambda       -0.5683303E-03
   maximum displ.:     0.4037647 α      in ANC's #3, #4, #13, ...

........................................................................
.............................. CYCLE   10 ..............................
........................................................................
   1    -63.9770971 -0.639771E+02  0.130E-01    1.83       0.0  T
   2    -63.9771011 -0.396501E-05  0.764E-02    1.84       1.0  T
   3    -63.9770861  0.149680E-04  0.187E-02    1.83       1.0  T
   4    -63.9771029 -0.167787E-04  0.322E-03    1.84       4.8  T
   5    -63.9771032 -0.271750E-06  0.147E-03    1.84      10.5  T
   6    -63.9771032 -0.529999E-07  0.595E-04    1.84      25.9  T
   7    -63.9771032 -0.314977E-08  0.253E-04    1.84      61.1  T
     SCC iter.                  ...        0 min,  0.041 sec
     gradient                   ...        0 min,  0.011 sec
 * total energy  :   -62.8742597 Eh     change       -0.4212713E-03 Eh
   gradient norm :     0.0067094 Eh/α   predicted    -0.3580839E-03 ( -15.00%)
   displ. norm   :     0.5532014 α      lambda       -0.4175564E-03
   maximum displ.:     0.4399803 α      in ANC's #3, #4, #13, ...

........................................................................
.............................. CYCLE   11 ..............................
........................................................................
   1    -63.9722068 -0.639722E+02  0.139E-01    1.83       0.0  T
   2    -63.9722142 -0.740175E-05  0.817E-02    1.84       1.0  T
   3    -63.9721782  0.359518E-04  0.297E-02    1.83       1.0  T
   4    -63.9722183 -0.401094E-04  0.473E-03    1.84       3.3  T
   5    -63.9722188 -0.465617E-06  0.225E-03    1.84       6.9  T
   6    -63.9722189 -0.145744E-06  0.843E-04    1.84      18.3  T
   7    -63.9722189 -0.565969E-08  0.334E-04    1.84      46.1  T
     SCC iter.                  ...        0 min,  0.041 sec
     gradient                   ...        0 min,  0.011 sec
 * total energy  :   -62.8744253 Eh     change       -0.1656169E-03 Eh
   gradient norm :     0.0110919 Eh/α   predicted    -0.2726724E-03 (  64.64%)
   displ. norm   :     0.2216722 α      lambda       -0.3582449E-03
   maximum displ.:     0.1657984 α      in ANC's #3, #4, #5, ...

........................................................................
.............................. CYCLE   12 ..............................
........................................................................
   1    -63.9767462 -0.639767E+02  0.667E-02    1.84       0.0  T
   2    -63.9767468 -0.621493E-06  0.392E-02    1.84       1.0  T
   3    -63.9767460  0.811267E-06  0.469E-03    1.84       3.3  T
   4    -63.9767471 -0.105897E-05  0.152E-03    1.84      10.1  T
   5    -63.9767471 -0.377493E-07  0.822E-04    1.84      18.8  T
   6    -63.9767471 -0.817015E-08  0.298E-04    1.84      51.8  T
     SCC iter.                  ...        0 min,  0.035 sec
     gradient                   ...        0 min,  0.011 sec
 * total energy  :   -62.8746434 Eh     change       -0.2180686E-03 Eh
   gradient norm :     0.0040534 Eh/α   predicted    -0.1879271E-03 ( -13.82%)
   displ. norm   :     0.2842470 α      lambda       -0.1104645E-03
   maximum displ.:     0.2222466 α      in ANC's #3, #4, #5, ...

........................................................................
.............................. CYCLE   13 ..............................
........................................................................
   1    -63.9763222 -0.639763E+02  0.796E-02    1.84       0.0  T
   2    -63.9763233 -0.115170E-05  0.468E-02    1.84       1.0  T
   3    -63.9763135  0.979153E-05  0.153E-02    1.84       1.0  T
   4    -63.9763243 -0.107734E-04  0.174E-03    1.84       8.9  T
   5    -63.9763244 -0.627692E-07  0.829E-04    1.84      18.6  T
   6    -63.9763244 -0.181326E-07  0.351E-04    1.84      43.9  T
     SCC iter.                  ...        0 min,  0.035 sec
     gradient                   ...        0 min,  0.013 sec
 * total energy  :   -62.8747276 Eh     change       -0.8421306E-04 Eh
   gradient norm :     0.0035592 Eh/α   predicted    -0.5969639E-04 ( -29.11%)
   displ. norm   :     0.2907457 α      lambda       -0.1174872E-03
   maximum displ.:     0.2105568 α      in ANC's #3, #4, #5, ...

........................................................................
.............................. CYCLE   14 ..............................
........................................................................
   1    -63.9774236 -0.639774E+02  0.923E-02    1.84       0.0  T
   2    -63.9774248 -0.126268E-05  0.543E-02    1.84       1.0  T
   3    -63.9774121  0.126820E-04  0.173E-02    1.84       1.0  T
   4    -63.9774261 -0.139292E-04  0.183E-03    1.84       8.4  T
   5    -63.9774261 -0.507757E-07  0.947E-04    1.84      16.3  T
   6    -63.9774261 -0.208227E-07  0.430E-04    1.84      35.9  T
     SCC iter.                  ...        0 min,  0.034 sec
     gradient                   ...        0 min,  0.011 sec
 * total energy  :   -62.8748128 Eh     change       -0.8522225E-04 Eh
   gradient norm :     0.0034439 Eh/α   predicted    -0.6371242E-04 ( -25.24%)
   displ. norm   :     0.2508895 α      lambda       -0.9000086E-04
   maximum displ.:     0.1555106 α      in ANC's #3, #5, #4, ...

........................................................................
.............................. CYCLE   15 ..............................
........................................................................
   1    -63.9770840 -0.639771E+02  0.905E-02    1.84       0.0  T
   2    -63.9770850 -0.108600E-05  0.532E-02    1.84       1.0  T
   3    -63.9770743  0.107777E-04  0.160E-02    1.84       1.0  T
   4    -63.9770861 -0.118302E-04  0.170E-03    1.84       9.1  T
   5    -63.9770861 -0.345550E-07  0.870E-04    1.84      17.7  T
   6    -63.9770861 -0.123972E-07  0.442E-04    1.84      34.9  T
     SCC iter.                  ...        0 min,  0.034 sec
     gradient                   ...        0 min,  0.009 sec
 * total energy  :   -62.8748752 Eh     change       -0.6231045E-04 Eh
   gradient norm :     0.0034774 Eh/α   predicted    -0.4783346E-04 ( -23.23%)
   displ. norm   :     0.1733428 α      lambda       -0.6372997E-04
   maximum displ.:     0.1188162 α      in ANC's #5, #3, #10, ...

........................................................................
.............................. CYCLE   16 ..............................
........................................................................
   1    -63.9775644 -0.639776E+02  0.722E-02    1.84       0.0  T
   2    -63.9775649 -0.516089E-06  0.425E-02    1.84       1.0  T
   3    -63.9775618  0.303760E-05  0.852E-03    1.84       1.8  T
   4    -63.9775652 -0.337691E-05  0.133E-03    1.84      11.6  T
   5    -63.9775652 -0.233631E-07  0.642E-04    1.84      24.0  T
   6    -63.9775652 -0.256016E-08  0.305E-04    1.84      50.5  T
     SCC iter.                  ...        0 min,  0.034 sec
     gradient                   ...        0 min,  0.009 sec
 * total energy  :   -62.8749151 Eh     change       -0.3998201E-04 Eh
   gradient norm :     0.0035762 Eh/α   predicted    -0.3282674E-04 ( -17.90%)
   displ. norm   :     0.0865984 α      lambda       -0.3517386E-04
   maximum displ.:     0.0681748 α      in ANC's #5, #2, #10, ...

........................................................................
.............................. CYCLE   17 ..............................
........................................................................
   1    -63.9772609 -0.639773E+02  0.365E-02    1.84       0.0  T
   2    -63.9772612 -0.247115E-06  0.215E-02    1.84       1.0  T
   3    -63.9772606  0.562241E-06  0.337E-03    1.84       4.6  T
   4    -63.9772612 -0.633789E-06  0.846E-04    1.84      18.2  T
   5    -63.9772613 -0.256352E-07  0.413E-04    1.84      37.4  T
     SCC iter.                  ...        0 min,  0.028 sec
     gradient                   ...        0 min,  0.010 sec
 * total energy  :   -62.8749387 Eh     change       -0.2356614E-04 Eh
   gradient norm :     0.0022339 Eh/α   predicted    -0.1771954E-04 ( -24.81%)
   displ. norm   :     0.0566087 α      lambda       -0.1989306E-04
   maximum displ.:     0.0428200 α      in ANC's #5, #2, #3, ...

........................................................................
.............................. CYCLE   18 ..............................
........................................................................
   1    -63.9766159 -0.639766E+02  0.198E-02    1.84       0.0  T
   2    -63.9766161 -0.173721E-06  0.117E-02    1.84       1.3  T
   3    -63.9766155  0.581799E-06  0.362E-03    1.84       4.3  T
   4    -63.9766161 -0.640386E-06  0.682E-04    1.84      22.6  T
   5    -63.9766161 -0.170712E-07  0.312E-04    1.84      49.4  T
     SCC iter.                  ...        0 min,  0.028 sec
     gradient                   ...        0 min,  0.009 sec
 * total energy  :   -62.8749527 Eh     change       -0.1398411E-04 Eh
   gradient norm :     0.0015756 Eh/α   predicted    -0.9979130E-05 ( -28.64%)
   displ. norm   :     0.0931365 α      lambda       -0.1549962E-04
   maximum displ.:     0.0542463 α      in ANC's #5, #3, #1, ...

........................................................................
.............................. CYCLE   19 ..............................
........................................................................
   1    -63.9768648 -0.639769E+02  0.277E-02    1.84       0.0  T
   2    -63.9768651 -0.309699E-06  0.165E-02    1.84       1.0  T
   3    -63.9768623  0.277855E-05  0.815E-03    1.84       1.9  T
   4    -63.9768654 -0.311310E-05  0.879E-04    1.84      17.5  T
   5    -63.9768654 -0.223792E-07  0.405E-04    1.84      38.1  T
   6    -63.9768654 -0.474439E-08  0.174E-04    1.84      88.9  T
     SCC iter.                  ...        0 min,  0.034 sec
     gradient                   ...        0 min,  0.009 sec
 * total energy  :   -62.8749662 Eh     change       -0.1346520E-04 Eh
   gradient norm :     0.0022776 Eh/α   predicted    -0.7781214E-05 ( -42.21%)
   displ. norm   :     0.0565649 α      lambda       -0.1497132E-04
   maximum displ.:     0.0336538 α      in ANC's #5, #1, #4, ...

........................................................................
.............................. CYCLE   20 ..............................
........................................................................
   1    -63.9761023 -0.639761E+02  0.152E-02    1.84       0.0  T
   2    -63.9761024 -0.463558E-07  0.894E-03    1.84       1.7  T
   3    -63.9761023  0.126383E-06  0.175E-03    1.84       8.8  T
   4    -63.9761024 -0.141860E-06  0.413E-04    1.84      37.4  T
   5    -63.9761024 -0.367567E-08  0.168E-04    1.84      91.9  T
     SCC iter.                  ...        0 min,  0.029 sec
     gradient                   ...        0 min,  0.010 sec
 * total energy  :   -62.8749781 Eh     change       -0.1198287E-04 Eh
   gradient norm :     0.0024587 Eh/α   predicted    -0.7511059E-05 ( -37.32%)
   displ. norm   :     0.1429051 α      lambda       -0.3520764E-04
   maximum displ.:     0.0840562 α      in ANC's #5, #1, #4, ...
 * RMSD in coord.:     0.8254139 α      energy gain  -0.1572206E-01 Eh

generating ANC from model Hessian ...
Using Lindh-Hessian (1995)
 Shifting diagonal of input Hessian by    9.5632439592440895E-003
 Lowest  eigenvalues of input Hessian
    0.000000    0.000000    0.000000    0.000000    0.000000    0.000000
    0.010000    0.010495    0.011063    0.011331    0.012477    0.014573
    0.015790    0.016494    0.016917    0.018018    0.021100    0.022572
 Highest eigenvalues
    1.981952    1.998267    2.034072    2.076689    2.126781    2.135657


........................................................................
.............................. CYCLE   21 ..............................
........................................................................
   1    -63.9753826 -0.639754E+02  0.356E-02    1.84       0.0  T
   2    -63.9753827 -0.150025E-06  0.210E-02    1.84       1.0  T
   3    -63.9753809  0.183309E-05  0.652E-03    1.84       2.4  T
   4    -63.9753829 -0.202094E-05  0.732E-04    1.84      21.1  T
   5    -63.9753829 -0.847186E-08  0.385E-04    1.84      40.1  T
   6    -63.9753829 -0.161570E-08  0.150E-04    1.84     102.9  T
     SCC iter.                  ...        0 min,  0.101 sec
     gradient                   ...        0 min,  0.016 sec
 * total energy  :   -62.8750039 Eh     change       -0.2577181E-04 Eh
   gradient norm :     0.0025378 Eh/α   predicted     0.0000000E+00 (-100.00%)
   displ. norm   :     0.0234322 α      lambda       -0.1618304E-04
   maximum displ.:     0.0115982 α      in ANC's #1, #8, #6, ...

........................................................................
.............................. CYCLE   22 ..............................
........................................................................
   1    -63.9765053 -0.639765E+02  0.836E-03    1.84       0.0  T
   2    -63.9765054 -0.555978E-07  0.499E-03    1.84       3.1  T
   3    -63.9765052  0.133506E-06  0.186E-03    1.84       8.3  T
   4    -63.9765054 -0.146015E-06  0.425E-04    1.84      36.3  T
   5    -63.9765054 -0.624261E-08  0.152E-04    1.84     101.5  T
     SCC iter.                  ...        0 min,  0.028 sec
     gradient                   ...        0 min,  0.009 sec
 * total energy  :   -62.8750171 Eh     change       -0.1323475E-04 Eh
   gradient norm :     0.0010964 Eh/α   predicted    -0.8650893E-05 ( -34.63%)
   displ. norm   :     0.0751841 α      lambda       -0.1775475E-04
   maximum displ.:     0.0414532 α      in ANC's #1, #8, #3, ...

........................................................................
.............................. CYCLE   23 ..............................
........................................................................
   1    -63.9779665 -0.639780E+02  0.231E-02    1.84       0.0  T
   2    -63.9779668 -0.289876E-06  0.137E-02    1.84       1.1  T
   3    -63.9779660  0.802083E-06  0.454E-03    1.84       3.4  T
   4    -63.9779669 -0.871122E-06  0.922E-04    1.84      16.7  T
   5    -63.9779669 -0.275759E-07  0.323E-04    1.84      47.8  T
     SCC iter.                  ...        0 min,  0.027 sec
     gradient                   ...        0 min,  0.009 sec
 * total energy  :   -62.8750307 Eh     change       -0.1359852E-04 Eh
   gradient norm :     0.0018804 Eh/α   predicted    -0.8899946E-05 ( -34.55%)
   displ. norm   :     0.0423061 α      lambda       -0.6825678E-05
   maximum displ.:     0.0272439 α      in ANC's #1, #3, #8, ...

........................................................................
.............................. CYCLE   24 ..............................
........................................................................
   1    -63.9774830 -0.639775E+02  0.116E-02    1.84       0.0  T
   2    -63.9774830 -0.200014E-07  0.686E-03    1.84       2.2  T
   3    -63.9774830  0.362605E-07  0.926E-04    1.84      16.7  T
   4    -63.9774830 -0.416480E-07  0.263E-04    1.84      58.8  T
     SCC iter.                  ...        0 min,  0.022 sec
     gradient                   ...        0 min,  0.008 sec
 * total energy  :   -62.8750401 Eh     change       -0.9360052E-05 Eh
   gradient norm :     0.0015120 Eh/α   predicted    -0.3507560E-05 ( -62.53%)
   displ. norm   :     0.1147417 α      lambda       -0.1664170E-04
   maximum displ.:     0.0737644 α      in ANC's #1, #3, #2, ...

........................................................................
.............................. CYCLE   25 ..............................
........................................................................
   1    -63.9765026 -0.639765E+02  0.308E-02    1.84       0.0  T
   2    -63.9765027 -0.142848E-06  0.182E-02    1.84       1.0  T
   3    -63.9765025  0.175239E-06  0.214E-03    1.84       7.2  T
   4    -63.9765027 -0.211671E-06  0.690E-04    1.84      22.4  T
   5    -63.9765027 -0.120823E-07  0.341E-04    1.84      45.3  T
     SCC iter.                  ...        0 min,  0.027 sec
     gradient                   ...        0 min,  0.007 sec
 * total energy  :   -62.8750587 Eh     change       -0.1860905E-04 Eh
   gradient norm :     0.0005585 Eh/α   predicted    -0.8375919E-05 ( -54.99%)
   displ. norm   :     0.1208318 α      lambda       -0.1071158E-04
   maximum displ.:     0.0794429 α      in ANC's #1, #3, #2, ...

........................................................................
.............................. CYCLE   26 ..............................
........................................................................
   1    -63.9760676 -0.639761E+02  0.313E-02    1.84       0.0  T
   2    -63.9760677 -0.119478E-06  0.185E-02    1.84       1.0  T
   3    -63.9760675  0.222853E-06  0.236E-03    1.84       6.5  T
   4    -63.9760678 -0.264566E-06  0.667E-04    1.84      23.1  T
   5    -63.9760678 -0.794319E-08  0.329E-04    1.84      46.9  T
     SCC iter.                  ...        0 min,  0.027 sec
     gradient                   ...        0 min,  0.007 sec
 * total energy  :   -62.8750718 Eh     change       -0.1304446E-04 Eh
   gradient norm :     0.0010670 Eh/α   predicted    -0.5392704E-05 ( -58.66%)
   displ. norm   :     0.1128657 α      lambda       -0.1006075E-04
   maximum displ.:     0.0748693 α      in ANC's #1, #3, #2, ...

........................................................................
.............................. CYCLE   27 ..............................
........................................................................
   1    -63.9761290 -0.639761E+02  0.292E-02    1.84       0.0  T
   2    -63.9761291 -0.817743E-07  0.172E-02    1.84       1.0  T
   3    -63.9761287  0.386969E-06  0.301E-03    1.84       5.1  T
   4    -63.9761292 -0.439245E-06  0.536E-04    1.84      28.8  T
   5    -63.9761292 -0.235785E-08  0.294E-04    1.84      52.5  T
     SCC iter.                  ...        0 min,  0.027 sec
     gradient                   ...        0 min,  0.007 sec
 * total energy  :   -62.8750855 Eh     change       -0.1374448E-04 Eh
   gradient norm :     0.0012132 Eh/α   predicted    -0.5059208E-05 ( -63.19%)
   displ. norm   :     0.1651078 α      lambda       -0.1638362E-04
   maximum displ.:     0.1079514 α      in ANC's #1, #3, #2, ...

........................................................................
.............................. CYCLE   28 ..............................
........................................................................
   1    -63.9764171 -0.639764E+02  0.436E-02    1.84       0.0  T
   2    -63.9764173 -0.156426E-06  0.257E-02    1.84       1.0  T
   3    -63.9764160  0.133062E-05  0.555E-03    1.84       2.8  T
   4    -63.9764175 -0.148032E-05  0.731E-04    1.84      21.1  T
   5    -63.9764175 -0.258218E-08  0.420E-04    1.84      36.7  T
   6    -63.9764175 -0.296151E-08  0.163E-04    1.84      94.4  T
     SCC iter.                  ...        0 min,  0.032 sec
     gradient                   ...        0 min,  0.007 sec
 * total energy  :   -62.8751078 Eh     change       -0.2227899E-04 Eh
   gradient norm :     0.0010992 Eh/α   predicted    -0.8294334E-05 ( -62.77%)
   displ. norm   :     0.2844561 α      lambda       -0.2646718E-04
   maximum displ.:     0.1840083 α      in ANC's #1, #3, #2, ...

........................................................................
.............................. CYCLE   29 ..............................
........................................................................
   1    -63.9763844 -0.639764E+02  0.754E-02    1.83       0.0  T
   2    -63.9763849 -0.436271E-06  0.444E-02    1.84       1.0  T
   3    -63.9763788  0.612022E-05  0.119E-02    1.83       1.3  T
   4    -63.9763855 -0.673176E-05  0.123E-03    1.83      12.5  T
   5    -63.9763855 -0.978311E-08  0.728E-04    1.84      21.2  T
   6    -63.9763855 -0.823774E-08  0.272E-04    1.83      56.7  T
     SCC iter.                  ...        0 min,  0.032 sec
     gradient                   ...        0 min,  0.007 sec
 * total energy  :   -62.8751422 Eh     change       -0.3447321E-04 Eh
   gradient norm :     0.0009077 Eh/α   predicted    -0.1371028E-04 ( -60.23%)
   displ. norm   :     0.4068960 α      lambda       -0.3326769E-04
   maximum displ.:     0.2623441 α      in ANC's #1, #3, #5, ...

........................................................................
.............................. CYCLE   30 ..............................
........................................................................
   1    -63.9757798 -0.639758E+02  0.107E-01    1.83       0.0  T
   2    -63.9757807 -0.947919E-06  0.629E-02    1.83       1.0  T
   3    -63.9757643  0.164024E-04  0.195E-02    1.83       1.0  T
   4    -63.9757823 -0.179841E-04  0.182E-03    1.83       8.5  T
   5    -63.9757823 -0.363890E-07  0.106E-03    1.83      14.6  T
   6    -63.9757823 -0.172453E-07  0.396E-04    1.83      39.0  T
   7    -63.9757824 -0.203759E-08  0.152E-04    1.83     101.3  T
     SCC iter.                  ...        0 min,  0.037 sec
     gradient                   ...        0 min,  0.007 sec
 * total energy  :   -62.8751829 Eh     change       -0.4064334E-04 Eh
   gradient norm :     0.0013254 Eh/α   predicted    -0.1786268E-04 ( -56.05%)
   displ. norm   :     0.5206870 α      lambda       -0.3734985E-04
   maximum displ.:     0.3361332 α      in ANC's #1, #3, #2, ...

........................................................................
.............................. CYCLE   31 ..............................
........................................................................
   1    -63.9745547 -0.639746E+02  0.133E-01    1.83       0.0  T
   2    -63.9745564 -0.167313E-05  0.784E-02    1.83       1.0  T
   3    -63.9745235  0.328883E-04  0.276E-02    1.83       1.0  T
   4    -63.9745595 -0.360567E-04  0.244E-03    1.83       6.3  T
   5    -63.9745596 -0.100806E-06  0.134E-03    1.83      11.6  T
   6    -63.9745597 -0.260674E-07  0.506E-04    1.83      30.5  T
   7    -63.9745597 -0.314790E-08  0.204E-04    1.83      75.6  T
     SCC iter.                  ...        0 min,  0.037 sec
     gradient                   ...        0 min,  0.007 sec
 * total energy  :   -62.8752223 Eh     change       -0.3945499E-04 Eh
   gradient norm :     0.0022009 Eh/α   predicted    -0.2093002E-04 ( -46.95%)
   displ. norm   :     0.2608669 α      lambda       -0.3729466E-04
   maximum displ.:     0.1674806 α      in ANC's #1, #3, #2, ...

........................................................................
.............................. CYCLE   32 ..............................
........................................................................
   1    -63.9752069 -0.639752E+02  0.644E-02    1.83       0.0  T
   2    -63.9752075 -0.574644E-06  0.379E-02    1.83       1.0  T
   3    -63.9751975  0.100008E-04  0.152E-02    1.83       1.0  T
   4    -63.9752085 -0.109960E-04  0.133E-03    1.83      11.6  T
   5    -63.9752085 -0.382788E-07  0.664E-04    1.83      23.3  T
   6    -63.9752085 -0.939337E-08  0.265E-04    1.83      58.3  T
     SCC iter.                  ...        0 min,  0.032 sec
     gradient                   ...        0 min,  0.007 sec
 * total energy  :   -62.8752520 Eh     change       -0.2963644E-04 Eh
   gradient norm :     0.0015561 Eh/α   predicted    -0.1991908E-04 ( -32.79%)
   displ. norm   :     0.6314868 α      lambda       -0.4849497E-04
   maximum displ.:     0.4031869 α      in ANC's #1, #3, #2, ...

........................................................................
.............................. CYCLE   33 ..............................
........................................................................
   1    -63.9744623 -0.639745E+02  0.152E-01    1.83       0.0  T
   2    -63.9744659 -0.362983E-05  0.896E-02    1.83       1.0  T
   3    -63.9744081  0.577664E-04  0.368E-02    1.83       1.0  T
   4    -63.9744718 -0.637099E-04  0.350E-03    1.83       4.4  T
   5    -63.9744721 -0.300382E-06  0.164E-03    1.83       9.4  T
   6    -63.9744722 -0.486941E-07  0.652E-04    1.83      23.7  T
   7    -63.9744722 -0.437139E-08  0.275E-04    1.83      56.0  T
     SCC iter.                  ...        0 min,  0.037 sec
     gradient                   ...        0 min,  0.007 sec
 * total energy  :   -62.8752947 Eh     change       -0.4270701E-04 Eh
   gradient norm :     0.0026053 Eh/α   predicted    -0.2854715E-04 ( -33.16%)
   displ. norm   :     0.1133948 α      lambda       -0.4812731E-04
   maximum displ.:     0.0560229 α      in ANC's #3, #1, #9, ...

........................................................................
.............................. CYCLE   34 ..............................
........................................................................
   1    -63.9779281 -0.639779E+02  0.302E-02    1.83       0.0  T
   2    -63.9779287 -0.665305E-06  0.177E-02    1.83       1.0  T
   3    -63.9779264  0.229601E-05  0.743E-03    1.83       2.1  T
   4    -63.9779290 -0.258253E-05  0.135E-03    1.83      11.4  T
   5    -63.9779291 -0.470883E-07  0.571E-04    1.83      27.0  T
   6    -63.9779291 -0.824706E-08  0.254E-04    1.83      60.8  T
     SCC iter.                  ...        0 min,  0.032 sec
     gradient                   ...        0 min,  0.007 sec
 * total energy  :   -62.8753083 Eh     change       -0.1359398E-04 Eh
   gradient norm :     0.0024271 Eh/α   predicted    -0.2437698E-04 (  79.32%)
   displ. norm   :     0.2250730 α      lambda       -0.2739623E-04
   maximum displ.:     0.1418244 α      in ANC's #1, #3, #2, ...

........................................................................
.............................. CYCLE   35 ..............................
........................................................................
   1    -63.9760102 -0.639760E+02  0.537E-02    1.83       0.0  T
   2    -63.9760108 -0.562501E-06  0.318E-02    1.83       1.0  T
   3    -63.9760020  0.880243E-05  0.145E-02    1.83       1.1  T
   4    -63.9760118 -0.976267E-05  0.145E-03    1.83      10.6  T
   5    -63.9760118 -0.478299E-07  0.702E-04    1.83      22.0  T
   6    -63.9760118 -0.672708E-08  0.305E-04    1.83      50.7  T
     SCC iter.                  ...        0 min,  0.032 sec
     gradient                   ...        0 min,  0.007 sec
 * total energy  :   -62.8753269 Eh     change       -0.1863629E-04 Eh
   gradient norm :     0.0011695 Eh/α   predicted    -0.1439295E-04 ( -22.77%)
   displ. norm   :     0.2799327 α      lambda       -0.1375880E-04
   maximum displ.:     0.1689530 α      in ANC's #1, #3, #2, ...

........................................................................
.............................. CYCLE   36 ..............................
........................................................................
   1    -63.9743080 -0.639743E+02  0.651E-02    1.83       0.0  T
   2    -63.9743091 -0.113501E-05  0.386E-02    1.83       1.0  T
   3    -63.9742921  0.170563E-04  0.204E-02    1.83       1.0  T
   4    -63.9743112 -0.191554E-04  0.202E-03    1.83       7.6  T
   5    -63.9743113 -0.873996E-07  0.987E-04    1.83      15.6  T
   6    -63.9743113 -0.185176E-07  0.418E-04    1.83      37.0  T
     SCC iter.                  ...        0 min,  0.032 sec
     gradient                   ...        0 min,  0.007 sec
 * total energy  :   -62.8753352 Eh     change       -0.8262640E-05 Eh
   gradient norm :     0.0022080 Eh/α   predicted    -0.7121821E-05 ( -13.81%)
   displ. norm   :     0.0541874 α      lambda       -0.1201357E-04
   maximum displ.:     0.0359213 α      in ANC's #1, #3, #2, ...

........................................................................
.............................. CYCLE   37 ..............................
........................................................................
   1    -63.9752537 -0.639753E+02  0.162E-02    1.83       0.0  T
   2    -63.9752537 -0.411499E-07  0.945E-03    1.83       1.6  T
   3    -63.9752536  0.702945E-07  0.130E-03    1.83      11.8  T
   4    -63.9752537 -0.833895E-07  0.282E-04    1.83      54.8  T
   5    -63.9752537 -0.175437E-08  0.146E-04    1.83     105.7  T
     SCC iter.                  ...        0 min,  0.027 sec
     gradient                   ...        0 min,  0.007 sec
 * total energy  :   -62.8753436 Eh     change       -0.8426650E-05 Eh
   gradient norm :     0.0015587 Eh/α   predicted    -0.6025603E-05 ( -28.49%)
   displ. norm   :     0.0878034 α      lambda       -0.9348563E-05
   maximum displ.:     0.0493527 α      in ANC's #3, #6, #1, ...

........................................................................
.............................. CYCLE   38 ..............................
........................................................................
   1    -63.9762725 -0.639763E+02  0.234E-02    1.83       0.0  T
   2    -63.9762728 -0.334780E-06  0.139E-02    1.83       1.1  T
   3    -63.9762699  0.291102E-05  0.901E-03    1.83       1.7  T
   4    -63.9762734 -0.343417E-05  0.932E-04    1.83      16.6  T
   5    -63.9762734 -0.139058E-07  0.480E-04    1.83      32.1  T
   6    -63.9762734 -0.751628E-08  0.178E-04    1.83      86.5  T
     SCC iter.                  ...        0 min,  0.032 sec
     gradient                   ...        0 min,  0.007 sec
 * total energy  :   -62.8753503 Eh     change       -0.6666358E-05 Eh
   gradient norm :     0.0009264 Eh/α   predicted    -0.4691224E-05 ( -29.63%)
   displ. norm   :     0.0863921 α      lambda       -0.3845839E-05
   maximum displ.:     0.0508084 α      in ANC's #3, #1, #5, ...

........................................................................
.............................. CYCLE   39 ..............................
........................................................................
   1    -63.9758945 -0.639759E+02  0.205E-02    1.83       0.0  T
   2    -63.9758946 -0.105114E-06  0.122E-02    1.83       1.3  T
   3    -63.9758925  0.211411E-05  0.738E-03    1.83       2.1  T
   4    -63.9758949 -0.240618E-05  0.644E-04    1.83      24.0  T
   5    -63.9758949 -0.859252E-08  0.323E-04    1.83      47.7  T
   6    -63.9758949 -0.190740E-08  0.130E-04    1.83     119.0  T
     SCC iter.                  ...        0 min,  0.032 sec
     gradient                   ...        0 min,  0.007 sec
 * total energy  :   -62.8753548 Eh     change       -0.4543718E-05 Eh
   gradient norm :     0.0006704 Eh/α   predicted    -0.1932577E-05 ( -57.47%)
   displ. norm   :     0.2127683 α      lambda       -0.7113563E-05
   maximum displ.:     0.1249773 α      in ANC's #3, #1, #5, ...

   *** GEOMETRY OPTIMIZATION CONVERGED AFTER 39 ITERATIONS ***

------------------------------------------------------------------------
 total energy gain   :        -0.0160987 Eh      -10.1021 kcal/mol
 total RMSD          :         1.2177079 a0        0.6444 Å
 total power (kW/mol):        -1.0837759 (step)  -20.5390 (real)
------------------------------------------------------------------------

 ANCopt (total)                0 d,  0 h,  0 min,  2.059 sec
 optimizer setup                ...        0 min,  0.000 sec (  0.009%)
 model hessian                  ...        0 min,  0.029 sec (  1.399%)
 ANC generation                 ...        0 min,  0.053 sec (  2.557%)
 coordinate transformation      ...        0 min,  0.004 sec (  0.185%)
 single point calculation       ...        0 min,  1.950 sec ( 94.720%)
 optimization log               ...        0 min,  0.009 sec (  0.422%)
 hessian update                 ...        0 min,  0.002 sec (  0.090%)
 rational function              ...        0 min,  0.007 sec (  0.363%)

================
 final structure:
================
42
 xtb: 6.5.1 (fef0646)
N            2.61862704536624        0.72130996485073        0.74240456895996
C            2.57080222171052       -0.33506516743484       -0.30433273209083
C            3.42486944618586       -1.49056944818581        0.23769706982404
O            4.55020864540898       -0.85323292512791        0.80412608594036
C            5.34645925190932       -1.56237978835805        1.71301800386341
C            5.31579055211582       -2.92230176858376        1.84452735017656
C            6.12434188628716       -3.54046641454392        2.79739884768004
C            6.96544633873432       -2.82374884169421        3.62952978685591
C            7.03083118994796       -1.41058505866093        3.47672766117456
C            7.90701578084932       -0.62010766710459        4.27029600047259
C            7.92117856328062        0.75312963777320        4.08212183368313
C            7.11756300163231        1.37132230370615        3.12955946149121
C            6.27512361971975        0.62787121957044        2.34867392165725
C            6.21120484411254       -0.76967432451022        2.50769023462883
C            7.78451956358464       -3.47130516309057        4.64526686123158
C            7.72547681387992       -4.83549111151640        4.88022005862994
C            8.52266677769799       -5.45017061614691        5.84469443630526
C            9.39547310085243       -4.70729349317759        6.59095018607396
C            9.48828672322957       -3.31489480813805        6.39956578139443
C           10.38362405693611       -2.54572058307448        7.16819654071126
C           10.47061171746143       -1.19404657812887        6.97848660364356
C            9.66559109976742       -0.56568696503260        6.02939084548137
C            8.76352920535360       -1.27391745223388        5.25164163801399
C            8.67210870552924       -2.68116627320522        5.42384157279514
H            2.51118957101593        1.66912243772005        0.37294187312472
H            3.59861810602230        0.55808176407080        1.13059663088879
H            1.93079163815442        0.56448382702111        1.48624292849586
H            3.02926904149708        0.05893554653566       -1.21190376816145
H            1.55158420592748       -0.65016080805610       -0.51938591823390
H            3.70951633785031       -2.16660110525638       -0.57386816855070
H            2.87964050203499       -2.06036451645988        1.00159802682027
H            4.68480422324686       -3.53599614685202        1.22065752538258
H            6.07023713937239       -4.61349453106291        2.86069317855864
H            8.56915228577720        1.38017561975028        4.67057042259918
H            7.16992828890509        2.44261692298201        3.00611193659886
H            5.68273811546370        1.10741369391513        1.58155933287719
H            7.05243026284690       -5.46189119231465        4.31791062130078
H            8.44465043041995       -6.51645381076199        5.99304063266591
H           10.02230140556891       -5.17275903039715        7.33651213994665
H           10.99739885764204       -3.04251038076861        7.90431684271523
H           11.15935123343957       -0.60206668889389        7.56183595467821
H            9.76975820326099        0.50100972087583        5.91741718969663

 Bond Distances (Angstroems)
 ---------------------------
N1-C2=1.4879         N1-H25=1.0229        N1-H26=1.0666        N1-H27=1.0252        C2-N1=1.4879         C2-C3=1.5357         
C2-H28=1.0905        C2-H29=1.0883        C3-C2=1.5357         C3-O4=1.4119         C3-H30=1.0939        C3-H31=1.0979        
O4-C3=1.4119         O4-C5=1.4011         C5-O4=1.4011         C5-C6=1.3666         C5-C14=1.4169        C6-C5=1.3666         
C6-C7=1.3942         C6-H32=1.0789        C7-C6=1.3942         C7-C8=1.3833         C7-H33=1.0763        C8-C7=1.3833         
C8-C9=1.4229         C8-C15=1.4567        C9-C8=1.4229         C9-C10=1.4221        C9-C14=1.4218        C10-C9=1.4221        
C10-C11=1.3861       C10-C23=1.4574       C11-C10=1.3861       C11-C12=1.3912       C11-H34=1.0767       C12-C11=1.3912       
C12-C13=1.3683       C12-H35=1.0797       C13-C12=1.3683       C13-C14=1.4080       C13-H36=1.0814       C14-C5=1.4169        
C14-C9=1.4218        C14-C13=1.4080       C15-C8=1.4567        C15-C16=1.3855       C15-C24=1.4207       C16-C15=1.3855       
C16-C17=1.3941       C16-H37=1.0778       C17-C16=1.3941       C17-C18=1.3677       C17-H38=1.0794       C18-C17=1.3677       
C18-C19=1.4086       C18-H39=1.0796       C19-C18=1.4086       C19-C20=1.4086       C19-C24=1.4212       C20-C19=1.4086       
C20-C21=1.3677       C20-H40=1.0795       C21-C20=1.3677       C21-C22=1.3942       C21-H41=1.0794       C22-C21=1.3942       
C22-C23=1.3857       C22-H42=1.0776       C23-C10=1.4574       C23-C22=1.3857       C23-C24=1.4207       C24-C15=1.4207       
C24-C19=1.4212       C24-C23=1.4207       H25-N1=1.0229        H26-N1=1.0666        H27-N1=1.0252        H28-C2=1.0905        
H29-C2=1.0883        H30-C3=1.0939        H31-C3=1.0979        H32-C6=1.0789        H33-C7=1.0763        H34-C11=1.0767       
H35-C12=1.0797       H36-C13=1.0814       H37-C16=1.0778       H38-C17=1.0794       H39-C18=1.0796       H40-C20=1.0795       
H41-C21=1.0794       H42-C22=1.0776       
 C  H  Rav=1.0824 sigma=0.0066  Rmin=1.0763  Rmax=1.0979    15
 C  C  Rav=1.4082 sigma=0.0357  Rmin=1.3666  Rmax=1.5357    25
 N  H  Rav=1.0383 sigma=0.0201  Rmin=1.0229  Rmax=1.0666     3
 N  C  Rav=1.4879 sigma=0.0000  Rmin=1.4879  Rmax=1.4879     1
 O  C  Rav=1.4065 sigma=0.0054  Rmin=1.4011  Rmax=1.4119     2

 selected bond angles (degree)
 --------------------
H25-N1-C2=113.60               H26-N1-C2=100.19               H26-N1-H25=111.70              H27-N1-C2=112.35               
H27-N1-H25=109.47              H27-N1-H26=109.21              C3-C2-N1=105.55                H28-C2-N1=108.39               
H28-C2-C3=109.38               H29-C2-N1=112.00               H29-C2-C3=111.88               H29-C2-H28=109.51              
O4-C3-C2=104.19                H30-C3-C2=110.36               H30-C3-O4=111.67               H31-C3-C2=111.09               
H31-C3-O4=110.54               H31-C3-H30=108.95              C5-O4-C3=119.00                C6-C5-O4=123.60                
C14-C5-O4=115.31               C14-C5-C6=121.09               C7-C6-C5=119.60                H32-C6-C5=121.57               
H32-C6-C7=118.83               C8-C7-C6=122.28                H33-C7-C6=116.94               H33-C7-C8=120.78               
C9-C8-C7=118.55                C15-C8-C7=122.07               C15-C8-C9=119.38               C10-C9-C8=121.36               
C14-C9-C8=119.63               C14-C9-C10=119.01              C11-C10-C9=118.77              C23-C10-C9=119.24              
C23-C10-C11=121.99             

 selected dihedral angles (degree)
 ---------------------------------
C3-C2-N1-H25=151.49           C3-C2-N1-H26= 32.25           C3-C2-N1-H27=276.44           H28-C2-N1-H25= 34.40          
H28-C2-N1-H26=275.15          H28-C2-N1-H27=159.35          H29-C2-N1-H25=273.47          H29-C2-N1-H26=154.23          
H29-C2-N1-H27= 38.43          O4-C3-C2-N1=318.00            O4-C3-C2-H28= 74.42           O4-C3-C2-H29=195.93           
H30-C3-C2-N1=197.99           H30-C3-C2-H28=314.42          H30-C3-C2-H29= 75.93          H31-C3-C2-N1= 77.05           
H31-C3-C2-H28=193.47          H31-C3-C2-H29=314.98          C5-O4-C3-C2=162.12            C5-O4-C3-H30=281.23           
C5-O4-C3-H31= 42.70           C6-C5-O4-C3= 17.00            C14-C5-O4-C3=196.85           C7-C6-C5-O4=181.38            
C7-C6-C5-C14=  1.54           H32-C6-C5-O4=  1.93           H32-C6-C5-C14=182.09          C8-C7-C6-C5=  0.19            
C8-C7-C6-H32=179.65           H33-C7-C6-C5=180.32           H33-C7-C6-H32=359.79          C9-C8-C7-C6=358.19            
C9-C8-C7-H33=178.05           C15-C8-C7-C6=178.50           C15-C8-C7-H33=358.36          C10-C9-C8-C7=182.06           
C10-C9-C8-C15=  1.76          C14-C9-C8-C7=  1.73           C14-C9-C8-C15=181.42          C11-C10-C9-C8=180.39          
C11-C10-C9-C14=  0.72         C23-C10-C9-C8=  0.55          C23-C10-C9-C14=180.88         
           -------------------------------------------------
          |                Final Singlepoint                |
           -------------------------------------------------

          ...................................................
          :                      SETUP                      :
          :.................................................:
          :  # basis functions                 114          :
          :  # atomic orbitals                 114          :
          :  # shells                           66          :
          :  # electrons                       116          :
          :  max. iterations                   250          :
          :  Hamiltonian                  GFN2-xTB          :
          :  restarted?                      false          :
          :  GBSA solvation                  false          :
          :  PC potential                    false          :
          :  electronic temp.          300.0000000     K    :
          :  accuracy                    1.0000000          :
          :  -> integral cutoff          0.2500000E+02      :
          :  -> integral neglect         0.1000000E-07      :
          :  -> SCF convergence          0.1000000E-05 Eh   :
          :  -> wf. convergence          0.1000000E-03 e    :
          :  Broyden damping             0.4000000          :
          ...................................................

 iter      E             dE          RMSdq      gap      omega  full diag
   1    -63.9758949 -0.639759E+02  0.605E-05    1.83       0.0  T
   2    -63.9758949 -0.172520E-10  0.498E-05    1.83     309.8  T
   3    -63.9758949 -0.119243E-09  0.210E-05    1.83     735.4  T

   *** convergence criteria satisfied after 3 iterations ***

         #    Occupation            Energy/Eh            Energy/eV
      -------------------------------------------------------------
         1        2.0000           -0.8830108             -24.0279
       ...           ...                  ...                  ...
        52        2.0000           -0.4962363             -13.5033
        53        2.0000           -0.4871008             -13.2547
        54        2.0000           -0.4859192             -13.2225
        55        2.0000           -0.4847475             -13.1906
        56        2.0000           -0.4820401             -13.1170
        57        2.0000           -0.4750501             -12.9268
        58        2.0000           -0.4380411             -11.9197 (HOMO)
        59                         -0.3708573             -10.0915 (LUMO)
        60                         -0.3225657              -8.7775
        61                         -0.3090304              -8.4091
        62                         -0.3084804              -8.3942
        63                         -0.3006919              -8.1822
       ...                                ...                  ...
       114                          0.6536929              17.7879
      -------------------------------------------------------------
                  HL-Gap            0.0671837 Eh            1.8282 eV
             Fermi-level           -0.4044492 Eh          -11.0056 eV

 SCC (total)                   0 d,  0 h,  0 min,  0.028 sec
 SCC setup                      ...        0 min,  0.000 sec (  0.691%)
 Dispersion                     ...        0 min,  0.001 sec (  1.820%)
 classical contributions        ...        0 min,  0.000 sec (  0.155%)
 integral evaluation            ...        0 min,  0.002 sec (  8.847%)
 iterations                     ...        0 min,  0.017 sec ( 60.856%)
 molecular gradient             ...        0 min,  0.007 sec ( 25.621%)
 printout                       ...        0 min,  0.000 sec (  1.520%)

         :::::::::::::::::::::::::::::::::::::::::::::::::::::
         ::                     SUMMARY                     ::
         :::::::::::::::::::::::::::::::::::::::::::::::::::::
         :: total energy             -62.875354820861 Eh    ::
         :: gradient norm              0.000670203519 Eh/a0 ::
         :: HOMO-LUMO gap              1.828162267910 eV    ::
         ::.................................................::
         :: SCC energy               -63.975894943667 Eh    ::
         :: -> isotropic ES            0.110704833995 Eh    ::
         :: -> anisotropic ES         -0.009635085912 Eh    ::
         :: -> anisotropic XC          0.032113951913 Eh    ::
         :: -> dispersion             -0.050288307748 Eh    ::
         :: repulsion energy           1.100634791453 Eh    ::
         :: add. restraining           0.000000000000 Eh    ::
         :: total charge               1.000000000000 e     ::
         :::::::::::::::::::::::::::::::::::::::::::::::::::::

           -------------------------------------------------
          |                Property Printout                |
           -------------------------------------------------

    * Orbital Energies and Occupations

         #    Occupation            Energy/Eh            Energy/eV
      -------------------------------------------------------------
         1        2.0000           -0.8830108             -24.0279
       ...           ...                  ...                  ...
        46        2.0000           -0.5343000             -14.5390
        47        2.0000           -0.5284821             -14.3807
        48        2.0000           -0.5254308             -14.2977
        49        2.0000           -0.5197730             -14.1437
        50        2.0000           -0.5168452             -14.0641
        51        2.0000           -0.5127486             -13.9526
        52        2.0000           -0.4962363             -13.5033
        53        2.0000           -0.4871008             -13.2547
        54        2.0000           -0.4859192             -13.2225
        55        2.0000           -0.4847475             -13.1906
        56        2.0000           -0.4820401             -13.1170
        57        2.0000           -0.4750501             -12.9268
        58        2.0000           -0.4380411             -11.9197 (HOMO)
        59                         -0.3708573             -10.0915 (LUMO)
        60                         -0.3225657              -8.7775
        61                         -0.3090304              -8.4091
        62                         -0.3084804              -8.3942
        63                         -0.3006919              -8.1822
        64                         -0.2486195              -6.7653
        65                         -0.2402570              -6.5377
        66                         -0.2392569              -6.5105
        67                         -0.1974784              -5.3737
        68                         -0.1607839              -4.3752
        69                         -0.1528422              -4.1590
       ...                                ...                  ...
       114                          0.6536929              17.7879
      -------------------------------------------------------------
                  HL-Gap            0.0671837 Eh            1.8282 eV
             Fermi-level           -0.4044492 Eh          -11.0056 eV

     #   Z          covCN         q      C6AA      α(0)
     1   7 N        3.484    -0.148    24.182     7.304
     2   6 C        3.730    -0.036    21.314     6.590
     3   6 C        3.689     0.058    19.785     6.366
     4   8 O        1.704    -0.305    19.074     5.897
     5   6 C        2.859     0.108    25.612     8.295
     6   6 C        2.909    -0.064    29.592     8.920
     7   6 C        2.925    -0.042    29.042     8.838
     8   6 C        2.972     0.008    27.826     8.653
     9   6 C        2.994     0.006    27.883     8.662
    10   6 C        2.974     0.016    27.657     8.626
    11   6 C        2.923    -0.036    28.891     8.815
    12   6 C        2.913    -0.028    28.708     8.786
    13   6 C        2.919    -0.046    29.150     8.854
    14   6 C        2.983    -0.008    28.223     8.714
    15   6 C        2.974     0.005    27.904     8.665
    16   6 C        2.923    -0.031    28.762     8.795
    17   6 C        2.913    -0.027    28.680     8.782
    18   6 C        2.922    -0.028    28.701     8.785
    19   6 C        2.986     0.017    27.627     8.622
    20   6 C        2.922    -0.028    28.700     8.785
    21   6 C        2.912    -0.027    28.669     8.780
    22   6 C        2.923    -0.029    28.734     8.791
    23   6 C        2.973     0.005    27.916     8.667
    24   6 C        2.995     0.006    27.870     8.660
    25   1 H        0.859     0.262     0.838     1.434
    26   1 H        0.855     0.311     0.681     1.293
    27   1 H        0.859     0.261     0.843     1.438
    28   1 H        0.924     0.117     1.637     2.001
    29   1 H        0.925     0.108     1.717     2.049
    30   1 H        0.924     0.084     1.934     2.175
    31   1 H        0.923     0.063     2.168     2.302
    32   1 H        0.926     0.035     2.512     2.478
    33   1 H        0.926     0.050     2.319     2.382
    34   1 H        0.926     0.047     2.352     2.398
    35   1 H        0.926     0.039     2.468     2.457
    36   1 H        0.925     0.011     2.880     2.654
    37   1 H        0.926     0.039     2.457     2.451
    38   1 H        0.926     0.045     2.389     2.417
    39   1 H        0.926     0.048     2.351     2.398
    40   1 H        0.926     0.048     2.351     2.398
    41   1 H        0.926     0.045     2.379     2.412
    42   1 H        0.926     0.042     2.421     2.433

 Mol. C6AA /au·bohr⁶  :      22470.153418
 Mol. C8AA /au·bohr⁸  :     563927.399072
 Mol. α(0) /au        :        240.220933


Wiberg/Mayer (AO) data.
largest (>0.10) Wiberg bond orders for each atom

 ---------------------------------------------------------------------------
     #   Z sym  total        # sym  WBO       # sym  WBO       # sym  WBO
 ---------------------------------------------------------------------------
     1   7 N    3.654 --     2 C    0.953    25 H    0.919    27 H    0.918
                            26 H    0.808
     2   6 C    3.912 --     3 C    0.997    29 H    0.970    28 H    0.966
                             1 N    0.953
     3   6 C    3.949 --     2 C    0.997     4 O    0.986    31 H    0.965
                            30 H    0.961
     4   8 O    2.197 --     3 C    0.986     5 C    0.956
     5   6 C    3.875 --     6 C    1.482    14 C    1.231     4 O    0.956
     6   6 C    3.988 --     5 C    1.482     7 C    1.354    32 H    0.965
     7   6 C    3.969 --     8 C    1.444     6 C    1.354    33 H    0.961
     8   6 C    3.987 --     7 C    1.444     9 C    1.243    15 C    1.104
     9   6 C    3.988 --    14 C    1.258    10 C    1.252     8 C    1.243
    10   6 C    3.987 --    11 C    1.435     9 C    1.252    23 C    1.103
    11   6 C    3.971 --    10 C    1.435    12 C    1.371    34 H    0.961
    12   6 C    3.990 --    13 C    1.513    11 C    1.371    35 H    0.970
    13   6 C    3.963 --    12 C    1.513    14 C    1.289    36 H    0.963
    14   6 C    3.986 --    13 C    1.289     9 C    1.258     5 C    1.231
    15   6 C    3.989 --    16 C    1.439    24 C    1.249     8 C    1.104
    16   6 C    3.969 --    15 C    1.439    17 C    1.364    37 H    0.962
    17   6 C    3.990 --    18 C    1.523    16 C    1.364    38 H    0.969
    18   6 C    3.962 --    17 C    1.523    19 C    1.281    39 H    0.967
    19   6 C    3.990 --    18 C    1.281    20 C    1.281    24 C    1.255
    20   6 C    3.962 --    21 C    1.524    19 C    1.281    40 H    0.967
    21   6 C    3.990 --    20 C    1.524    22 C    1.364    41 H    0.969
    22   6 C    3.970 --    23 C    1.439    21 C    1.364    42 H    0.961
    23   6 C    3.989 --    22 C    1.439    24 C    1.249    10 C    1.103
    24   6 C    3.989 --    19 C    1.255    23 C    1.249    15 C    1.249
    25   1 H    0.931 --     1 N    0.919
    26   1 H    0.903 --     1 N    0.808
    27   1 H    0.932 --     1 N    0.918
    28   1 H    0.986 --     2 C    0.966
    29   1 H    0.988 --     2 C    0.970
    30   1 H    0.992 --     3 C    0.961
    31   1 H    0.996 --     3 C    0.965
    32   1 H    0.998 --     6 C    0.965
    33   1 H    0.997 --     7 C    0.961
    34   1 H    0.997 --    11 C    0.961
    35   1 H    0.997 --    12 C    0.970
    36   1 H    0.999 --    13 C    0.963
    37   1 H    0.998 --    16 C    0.962
    38   1 H    0.997 --    17 C    0.969
    39   1 H    0.997 --    18 C    0.967
    40   1 H    0.997 --    20 C    0.967
    41   1 H    0.997 --    21 C    0.969
    42   1 H    0.998 --    22 C    0.961
 ---------------------------------------------------------------------------

Topologies differ in total number of bonds
Writing topology from bond orders to xtbtopo.mol

molecular dipole:
                 x           y           z       tot (Debye)
 q only:        6.607      -0.258       2.745
   full:        6.446      -0.227       2.708      17.781
molecular quadrupole (traceless):
                xx          xy          yy          xz          yz          zz
 q only:       46.491     -17.230     -31.575      60.530     -13.160     -14.915
  q+dip:       41.221     -14.880     -23.532      64.791     -14.046     -17.688
   full:       43.528     -16.339     -27.635      59.578     -13.001     -15.893

           -------------------------------------------------
          |                Geometry Summary                 |
           -------------------------------------------------

      molecular mass/u    :      312.3852314
   center of mass at/Å    :        6.9718973      -1.7379108       3.6686985
  moments of inertia/u·Å² :        0.8972807E+03   0.3496653E+04   0.4325435E+04
rotational constants/cm⁻¹ :        0.1878747E-01   0.4821077E-02   0.3897326E-02

 * 43 selected distances

     #   Z          #   Z                                           value/Å
     1   7 N        2   6 C                                       1.4879096
     2   6 C        3   6 C                                       1.5357141 (max)
     3   6 C        4   8 O                                       1.4118882
     5   6 C        6   6 C                                       1.3666102
     6   6 C        7   6 C                                       1.3942192
     7   6 C        8   6 C                                       1.3833232
     8   6 C        9   6 C                                       1.4229040
     9   6 C       10   6 C                                       1.4220777
    10   6 C       11   6 C                                       1.3861425
    11   6 C       12   6 C                                       1.3911634
    12   6 C       13   6 C                                       1.3682859
     5   6 C       14   6 C                                       1.4169232
     9   6 C       14   6 C                                       1.4218255
    13   6 C       14   6 C                                       1.4080148
    15   6 C       16   6 C                                       1.3855298
    16   6 C       17   6 C                                       1.3941140
    17   6 C       18   6 C                                       1.3676825
    18   6 C       19   6 C                                       1.4085513
    19   6 C       20   6 C                                       1.4085636
    20   6 C       21   6 C                                       1.3676914
    21   6 C       22   6 C                                       1.3941582
    22   6 C       23   6 C                                       1.3857129
    15   6 C       24   6 C                                       1.4206734
    19   6 C       24   6 C                                       1.4211955
    23   6 C       24   6 C                                       1.4206900
     1   7 N       25   1 H                                       1.0229341 (min)
     1   7 N       26   1 H                                       1.0666392
     1   7 N       27   1 H                                       1.0251867
     2   6 C       28   1 H                                       1.0904649
     2   6 C       29   1 H                                       1.0882733
     3   6 C       30   1 H                                       1.0939292
     3   6 C       31   1 H                                       1.0979462
     6   6 C       32   1 H                                       1.0788783
     7   6 C       33   1 H                                       1.0762542
    11   6 C       34   1 H                                       1.0767212
    12   6 C       35   1 H                                       1.0796545
    13   6 C       36   1 H                                       1.0813633
    16   6 C       37   1 H                                       1.0777573
    17   6 C       38   1 H                                       1.0793763
    18   6 C       39   1 H                                       1.0795530
    20   6 C       40   1 H                                       1.0795337
    21   6 C       41   1 H                                       1.0793975
    22   6 C       42   1 H                                       1.0776043

 * 5 distinct bonds (by element types)

   Z      Z             #   av. dist./Å        max./Å        min./Å
   1 H    6 C          15     1.0824471     1.0979462     1.0762542
   6 C    6 C          23     1.4039898     1.5357141     1.3666102
   1 H    7 N           3     1.0382533     1.0666392     1.0229341
   6 C    7 N           1     1.4879096     1.4879096     1.4879096
   6 C    8 O           1     1.4118882     1.4118882     1.4118882


optimized geometry written to: xtbopt.xyz


           -------------------------------------------------
          | TOTAL ENERGY              -62.875354820861 Eh   |
          | GRADIENT NORM               0.000670203519 Eh/α |
          | HOMO-LUMO GAP               1.828162267910 eV   |
           -------------------------------------------------

------------------------------------------------------------------------
 * finished run on 2023/01/23 at 21:00:55.072     
------------------------------------------------------------------------
 total:
 * wall-time:     0 d,  0 h,  0 min,  2.284 sec
 *  cpu-time:     0 d,  0 h,  4 min, 46.916 sec
 * ratio c/w:   125.619 speedup
 SCF:
 * wall-time:     0 d,  0 h,  0 min,  0.159 sec
 *  cpu-time:     0 d,  0 h,  0 min, 19.815 sec
 * ratio c/w:   124.774 speedup
 ANC optimizer:
 * wall-time:     0 d,  0 h,  0 min,  2.088 sec
 *  cpu-time:     0 d,  0 h,  4 min, 22.346 sec
 * ratio c/w:   125.643 speedup

