42
 energy: -62.875354820861 gnorm: 0.000670203519 xtb: 6.5.1 (fef0646)
N            2.61862704536624        0.72130996485073        0.74240456895996
C            2.57080222171052       -0.33506516743484       -0.30433273209083
C            3.42486944618586       -1.49056944818581        0.23769706982404
O            4.55020864540898       -0.85323292512791        0.80412608594036
C            5.34645925190932       -1.56237978835805        1.71301800386341
C            5.31579055211582       -2.92230176858376        1.84452735017656
C            6.12434188628716       -3.54046641454392        2.79739884768004
C            6.96544633873432       -2.82374884169421        3.62952978685591
C            7.03083118994796       -1.41058505866093        3.47672766117456
C            7.90701578084932       -0.62010766710459        4.27029600047259
C            7.92117856328062        0.75312963777320        4.08212183368313
C            7.11756300163231        1.37132230370615        3.12955946149121
C            6.27512361971975        0.62787121957044        2.34867392165725
C            6.21120484411254       -0.76967432451022        2.50769023462883
C            7.78451956358464       -3.47130516309057        4.64526686123158
C            7.72547681387992       -4.83549111151640        4.88022005862994
C            8.52266677769799       -5.45017061614691        5.84469443630526
C            9.39547310085243       -4.70729349317759        6.59095018607396
C            9.48828672322957       -3.31489480813805        6.39956578139443
C           10.38362405693611       -2.54572058307448        7.16819654071126
C           10.47061171746143       -1.19404657812887        6.97848660364356
C            9.66559109976742       -0.56568696503260        6.02939084548137
C            8.76352920535360       -1.27391745223388        5.25164163801399
C            8.67210870552924       -2.68116627320522        5.42384157279514
H            2.51118957101593        1.66912243772005        0.37294187312472
H            3.59861810602230        0.55808176407080        1.13059663088879
H            1.93079163815442        0.56448382702111        1.48624292849586
H            3.02926904149708        0.05893554653566       -1.21190376816145
H            1.55158420592748       -0.65016080805610       -0.51938591823390
H            3.70951633785031       -2.16660110525638       -0.57386816855070
H            2.87964050203499       -2.06036451645988        1.00159802682027
H            4.68480422324686       -3.53599614685202        1.22065752538258
H            6.07023713937239       -4.61349453106291        2.86069317855864
H            8.56915228577720        1.38017561975028        4.67057042259918
H            7.16992828890509        2.44261692298201        3.00611193659886
H            5.68273811546370        1.10741369391513        1.58155933287719
H            7.05243026284690       -5.46189119231465        4.31791062130078
H            8.44465043041995       -6.51645381076199        5.99304063266591
H           10.02230140556891       -5.17275903039715        7.33651213994665
H           10.99739885764204       -3.04251038076861        7.90431684271523
H           11.15935123343957       -0.60206668889389        7.56183595467821
H            9.76975820326099        0.50100972087583        5.91741718969663
