 Entering Gaussian System
 *********************************************
 Gaussian 98:
 frequency output generated by the xtb code
 *********************************************
                         Standard orientation:
 --------------------------------------------------------------------
  Center     Atomic     Atomic              Coordinates (Angstroms)
  Number     Number      Type              X           Y           Z
 --------------------------------------------------------------------
    1          7             0       -4.282177   -1.208348   -0.206403
    2          6             0       -4.024518    0.153502    0.352094
    3          6             0       -2.808147    0.845574   -0.261782
    4          6             0       -1.471289    0.183108    0.099415
    5          6             0       -0.271037    0.914051   -0.471331
    6         53             0        1.529730   -0.074148    0.060675
    7          1             0       -4.395391   -1.166509   -1.223783
    8          1             0       -5.135558   -1.614703    0.189851
    9          1             0       -3.509400   -1.848742    0.000975
   10          1             0       -3.900015    0.080073    1.438594
   11          1             0       -4.920556    0.767546    0.196456
   12          1             0       -2.779700    1.895515    0.053626
   13          1             0       -2.917340    0.874033   -1.351051
   14          1             0       -1.463916   -0.856213   -0.253723
   15          1             0       -1.377345    0.118969    1.192285
   16          1             0       -0.204820    1.937011   -0.097323
   17          1             0       -0.307570    0.960609   -1.560911
 --------------------------------------------------------------------
     1 basis functions        1 primitive gaussians
     1 alpha electrons        1 beta electrons

 Harmonic frequencies (cm**-1), IR intensities (km*mol⁻¹),
 Raman scattering activities (A**4/amu), Raman depolarization ratios,
 reduced masses (AMU), force constants (mDyne/A) and normal coordinates:
                      1                      2                      3
                        a                      a                      a 
 Frequencies --   -91.2953                48.0055                76.0470
 Red. masses --    11.4422                11.8894                19.6900
 Frc consts  --     0.0000                 0.0000                 0.0000
 IR Inten    --     7.1401                 6.9336                17.0602
 Raman Activ --     0.0000                 0.0000                 0.0000
 Depolar     --     0.0000                 0.0000                 0.0000
 Atom AN      X      Y      Z        X      Y      Z        X      Y      Z
   1   7    -0.22   0.15  -0.11    -0.23   0.12  -0.03     0.41  -0.08   0.15
   2   6     0.12  -0.07   0.25    -0.12   0.08   0.02     0.17  -0.03   0.12
   3   6     0.00  -0.00   0.10     0.01  -0.05   0.15     0.01   0.18   0.03
   4   6     0.03  -0.17  -0.30    -0.06  -0.31  -0.07     0.05   0.01  -0.46
   5   6     0.01  -0.21  -0.39    -0.09  -0.27  -0.07     0.09   0.20  -0.14
   6  53     0.03   0.11   0.16     0.19   0.15   0.01    -0.28  -0.09   0.10
   7   1    -0.33   0.16   0.01     0.35  -0.00  -0.05     0.30  -0.06   0.02
   8   1     0.06  -0.04   0.15    -0.30   0.21  -0.32     0.03   0.01  -0.10
   9   1     0.02   0.04  -0.31    -0.26  -0.09   0.33     0.06  -0.03   0.20
  10   1     0.14  -0.13   0.05    -0.08   0.02   0.01     0.07  -0.00   0.03
  11   1     0.03   0.02   0.22    -0.00   0.06  -0.03     0.02  -0.05   0.05
  12   1     0.04  -0.02   0.10     0.06  -0.03   0.10     0.03   0.02   0.11
  13   1    -0.07   0.07   0.04    -0.01   0.06   0.05    -0.07   0.15   0.02
  14   1    -0.03  -0.03  -0.13    -0.06  -0.07  -0.08    -0.00   0.05  -0.28
  15   1     0.06  -0.10  -0.09     0.01  -0.15  -0.03     0.04  -0.15  -0.14
  16   1    -0.02  -0.04  -0.17    -0.06  -0.07  -0.03     0.01   0.03   0.04
  17   1     0.03  -0.12  -0.12    -0.02  -0.09  -0.02     0.08   0.13  -0.04
                      4                      5                      6
                        a                      a                      a 
 Frequencies --    99.1065               198.7158               255.8006
 Red. masses --     9.9933                 8.6018                32.2040
 Frc consts  --     0.0000                 0.0000                 0.0000
 IR Inten    --    13.4852                 8.6380                 5.1862
 Raman Activ --     0.0000                 0.0000                 0.0000
 Depolar     --     0.0000                 0.0000                 0.0000
 Atom AN      X      Y      Z        X      Y      Z        X      Y      Z
   1   7    -0.28   0.03   0.23     0.36   0.03   0.05     0.18   0.19  -0.05
   2   6    -0.04   0.09  -0.05    -0.21   0.22  -0.19     0.30   0.12  -0.00
   3   6    -0.01  -0.14  -0.24    -0.04   0.19   0.16     0.42  -0.24  -0.05
   4   6    -0.04  -0.27  -0.32    -0.21  -0.26   0.01     0.23  -0.34   0.18
   5   6     0.02   0.17   0.36    -0.18  -0.30   0.06    -0.01  -0.11   0.10
   6  53     0.14   0.04  -0.01     0.08   0.04  -0.03    -0.41   0.13  -0.05
   7   1    -0.21  -0.03   0.07    -0.07  -0.04   0.03     0.04   0.07  -0.01
   8   1    -0.02   0.02   0.19     0.24  -0.14   0.16     0.05   0.06  -0.01
   9   1    -0.04   0.02  -0.02     0.25   0.17  -0.08     0.04   0.03  -0.03
  10   1     0.01   0.07  -0.01    -0.18   0.14  -0.03     0.08   0.03  -0.00
  11   1     0.00   0.05  -0.02    -0.07   0.01  -0.20     0.12   0.07  -0.01
  12   1     0.04  -0.04  -0.09     0.05   0.02   0.15     0.18  -0.05  -0.09
  13   1    -0.03  -0.06  -0.07     0.02   0.17   0.05     0.15  -0.14  -0.02
  14   1     0.03  -0.02  -0.25    -0.11  -0.05  -0.07     0.09  -0.10   0.06
  15   1    -0.08  -0.24  -0.09    -0.05  -0.15  -0.00     0.06  -0.08   0.05
  16   1    -0.04  -0.02   0.30    -0.07  -0.08   0.01    -0.05  -0.03   0.04
  17   1     0.06   0.25   0.11    -0.05  -0.09   0.02    -0.04  -0.02   0.03
                      7                      8                      9
                        a                      a                      a 
 Frequencies --   323.0717               450.3568               676.8932
 Red. masses --     9.6111                 8.5140                16.7402
 Frc consts  --     0.0000                 0.0000                 0.0000
 IR Inten    --     7.7062                17.0352                 6.1971
 Raman Activ --     0.0000                 0.0000                 0.0000
 Depolar     --     0.0000                 0.0000                 0.0000
 Atom AN      X      Y      Z        X      Y      Z        X      Y      Z
   1   7    -0.27  -0.21   0.09     0.11   0.19  -0.06    -0.02  -0.04  -0.00
   2   6    -0.09  -0.03  -0.31    -0.43   0.11   0.20    -0.14  -0.01   0.08
   3   6     0.25   0.02   0.32    -0.13  -0.41   0.14    -0.08   0.07  -0.03
   4   6     0.32   0.02   0.01     0.20  -0.03  -0.07     0.09   0.09  -0.07
   5   6     0.18   0.16  -0.16     0.09   0.24  -0.17     0.68  -0.46   0.26
   6  53    -0.12   0.01   0.00     0.03  -0.04   0.03    -0.18   0.13  -0.07
   7   1    -0.17  -0.17   0.03     0.09   0.13  -0.02     0.02   0.02  -0.00
   8   1    -0.05   0.01   0.15     0.08  -0.15  -0.11     0.00  -0.07  -0.04
   9   1    -0.07  -0.05   0.03     0.14   0.17  -0.03     0.02   0.02  -0.01
  10   1    -0.20   0.06  -0.06    -0.27   0.07   0.07    -0.05  -0.00   0.02
  11   1     0.03   0.02  -0.26    -0.08   0.05  -0.10    -0.04  -0.01   0.01
  12   1     0.05  -0.04   0.27    -0.00  -0.07  -0.12    -0.04   0.03  -0.04
  13   1     0.13   0.19   0.09    -0.08  -0.26   0.04    -0.06  -0.02  -0.01
  14   1     0.09   0.02  -0.04     0.14  -0.01  -0.02    -0.03   0.02  -0.01
  15   1     0.16  -0.04  -0.00     0.11  -0.00  -0.03    -0.03   0.01  -0.01
  16   1     0.05   0.05  -0.06     0.02   0.06  -0.03     0.21  -0.12   0.05
  17   1     0.04   0.02  -0.05     0.04   0.07  -0.05     0.22  -0.10   0.07
                     10                     11                     12
                        a                      a                      a 
 Frequencies --   764.2442               806.5046               835.1773
 Red. masses --     2.0282                 2.8401                 3.5590
 Frc consts  --     0.0000                 0.0000                 0.0000
 IR Inten    --    15.3566                46.2493                17.9090
 Raman Activ --     0.0000                 0.0000                 0.0000
 Depolar     --     0.0000                 0.0000                 0.0000
 Atom AN      X      Y      Z        X      Y      Z        X      Y      Z
   1   7     0.01  -0.05  -0.03     0.10  -0.09   0.01     0.07   0.10   0.16
   2   6     0.05   0.00   0.02     0.19  -0.05   0.12     0.11  -0.12   0.01
   3   6     0.03   0.09   0.08     0.04   0.09   0.15    -0.07  -0.23  -0.16
   4   6    -0.00   0.11   0.14    -0.09   0.08  -0.08    -0.06   0.02  -0.10
   5   6    -0.01   0.10   0.16    -0.06  -0.13  -0.12     0.02   0.10   0.21
   6  53     0.00  -0.01  -0.02     0.01   0.01   0.01    -0.00  -0.01  -0.02
   7   1    -0.03   0.01  -0.00    -0.09   0.25   0.03     0.01   0.36   0.06
   8   1    -0.02   0.04   0.01    -0.07   0.16  -0.02    -0.05   0.03  -0.09
   9   1    -0.04  -0.07  -0.03    -0.16  -0.32  -0.23    -0.06  -0.14  -0.18
  10   1    -0.06   0.02   0.01    -0.30   0.20   0.08    -0.09   0.21   0.03
  11   1     0.01  -0.02  -0.06     0.08  -0.08  -0.38     0.05  -0.05  -0.22
  12   1    -0.08   0.10  -0.25    -0.03   0.10  -0.19     0.01  -0.17   0.31
  13   1     0.07  -0.26   0.00    -0.05  -0.23   0.04    -0.09   0.31  -0.02
  14   1    -0.03   0.19  -0.43    -0.18   0.01   0.02     0.17  -0.02   0.06
  15   1    -0.02  -0.45   0.01     0.06   0.05  -0.03    -0.21   0.10  -0.00
  16   1     0.05   0.17  -0.35    -0.01  -0.13   0.22    -0.02   0.14  -0.24
  17   1    -0.08  -0.39   0.02     0.01   0.23  -0.02     0.04  -0.29   0.04
                     13                     14                     15
                        a                      a                      a 
 Frequencies --   890.7827               945.2703               971.3925
 Red. masses --     6.6560                 5.5420                 6.0202
 Frc consts  --     0.0000                 0.0000                 0.0000
 IR Inten    --    33.5272                 5.5825                25.8351
 Raman Activ --     0.0000                 0.0000                 0.0000
 Depolar     --     0.0000                 0.0000                 0.0000
 Atom AN      X      Y      Z        X      Y      Z        X      Y      Z
   1   7    -0.21  -0.38   0.08    -0.01  -0.23  -0.25    -0.25   0.05   0.01
   2   6    -0.14   0.17   0.18     0.03   0.24   0.27     0.27  -0.12   0.03
   3   6     0.23   0.28  -0.19     0.11   0.12   0.07     0.22  -0.16   0.09
   4   6     0.10  -0.09   0.06    -0.03  -0.10  -0.23    -0.17   0.32  -0.16
   5   6    -0.07   0.05  -0.03    -0.03   0.11   0.19    -0.14  -0.15   0.07
   6  53     0.01  -0.01   0.01     0.00  -0.01  -0.02     0.01   0.00   0.00
   7   1     0.12   0.30   0.02    -0.08  -0.31  -0.06     0.13  -0.06  -0.02
   8   1    -0.04  -0.44  -0.30     0.02   0.06   0.10     0.06  -0.35  -0.10
   9   1     0.06  -0.01  -0.16    -0.03  -0.05   0.06     0.18   0.35   0.13
  10   1     0.05   0.15   0.04    -0.21  -0.08   0.08    -0.15  -0.04   0.03
  11   1    -0.09  -0.03   0.06     0.05   0.09  -0.05     0.28   0.22  -0.18
  12   1     0.14   0.08  -0.06     0.29   0.06  -0.10    -0.06  -0.04   0.04
  13   1     0.12   0.09  -0.06    -0.27  -0.05   0.04    -0.01  -0.04   0.03
  14   1     0.01  -0.02   0.01     0.10  -0.10   0.18    -0.09   0.10  -0.08
  15   1     0.02  -0.02   0.02    -0.14   0.24  -0.03    -0.07   0.05  -0.04
  16   1    -0.04   0.01   0.01    -0.15   0.11  -0.15     0.02  -0.05   0.04
  17   1    -0.05   0.02  -0.01     0.12  -0.20   0.03    -0.03  -0.00   0.02
                     16                     17                     18
                        a                      a                      a 
 Frequencies --  1044.9717              1073.8578              1090.5762
 Red. masses --     6.5581                 6.8035                 8.8051
 Frc consts  --     0.0000                 0.0000                 0.0000
 IR Inten    --    11.0149                15.4457                 5.1908
 Raman Activ --     0.0000                 0.0000                 0.0000
 Depolar     --     0.0000                 0.0000                 0.0000
 Atom AN      X      Y      Z        X      Y      Z        X      Y      Z
   1   7    -0.04   0.26   0.17     0.02   0.17   0.00    -0.09   0.12   0.02
   2   6    -0.10  -0.43  -0.14    -0.17  -0.32   0.14     0.12  -0.25   0.04
   3   6     0.08   0.28   0.06     0.10   0.21  -0.25     0.00   0.19  -0.08
   4   6     0.12  -0.13  -0.15     0.37   0.09  -0.02    -0.32  -0.36   0.26
   5   6    -0.05   0.06   0.15    -0.21  -0.18   0.04     0.35   0.28  -0.24
   6  53    -0.00  -0.02  -0.02     0.00   0.00   0.02    -0.00   0.00   0.01
   7   1     0.05   0.12   0.04    -0.02  -0.06   0.00     0.04  -0.03  -0.00
   8   1     0.01  -0.03  -0.02     0.01   0.10   0.07     0.02  -0.07   0.00
   9   1     0.04   0.12   0.04    -0.00   0.05   0.06     0.05   0.14   0.06
  10   1    -0.05  -0.11  -0.03    -0.24  -0.12   0.06    -0.17  -0.06   0.03
  11   1    -0.04  -0.12  -0.02    -0.04  -0.10  -0.07     0.09  -0.02  -0.14
  12   1    -0.07   0.13  -0.16     0.14   0.04  -0.03     0.11   0.06  -0.06
  13   1     0.10  -0.13  -0.00    -0.18   0.11  -0.04    -0.11   0.00  -0.01
  14   1    -0.10  -0.09   0.13     0.25   0.05  -0.07    -0.07  -0.10   0.07
  15   1     0.16   0.14  -0.04    -0.08  -0.02   0.01    -0.25  -0.10   0.08
  16   1    -0.40   0.08  -0.07     0.17  -0.09   0.07     0.21   0.07  -0.06
  17   1     0.31  -0.14   0.02    -0.43   0.02   0.03    -0.05   0.11  -0.06
                     19                     20                     21
                        a                      a                      a 
 Frequencies --  1108.6169              1165.0727              1231.1715
 Red. masses --     7.7277                 5.8222                 3.0588
 Frc consts  --     0.0000                 0.0000                 0.0000
 IR Inten    --     5.2966                13.3987                 2.8325
 Raman Activ --     0.0000                 0.0000                 0.0000
 Depolar     --     0.0000                 0.0000                 0.0000
 Atom AN      X      Y      Z        X      Y      Z        X      Y      Z
   1   7     0.12   0.04   0.07    -0.03  -0.03   0.19    -0.10   0.06  -0.12
   2   6    -0.35  -0.12  -0.01     0.10   0.05  -0.41     0.10  -0.10   0.12
   3   6     0.47  -0.14   0.06    -0.13   0.07   0.37    -0.11   0.06   0.03
   4   6    -0.38   0.20  -0.13     0.01  -0.07  -0.19    -0.07  -0.08  -0.04
   5   6     0.00   0.01  -0.02    -0.03  -0.01   0.07    -0.28   0.00   0.06
   6  53     0.00   0.01  -0.00    -0.00   0.01   0.01    -0.01   0.02  -0.01
   7   1    -0.05   0.07   0.03     0.06   0.19   0.05     0.02  -0.11  -0.04
   8   1    -0.02   0.12   0.03    -0.04  -0.09  -0.11     0.03  -0.02   0.05
   9   1    -0.05  -0.10  -0.03     0.03  -0.01  -0.09     0.02   0.11   0.08
  10   1     0.01  -0.15  -0.02     0.18  -0.11  -0.13     0.11   0.33   0.04
  11   1    -0.14  -0.06   0.16     0.00   0.03   0.09    -0.11  -0.26  -0.11
  12   1     0.35  -0.04  -0.01     0.18   0.09  -0.17     0.11   0.02  -0.02
  13   1     0.28  -0.04   0.00    -0.26  -0.21   0.11     0.19  -0.02  -0.01
  14   1    -0.08   0.05  -0.03     0.23  -0.06   0.09     0.21  -0.03   0.02
  15   1    -0.18   0.07  -0.03    -0.09   0.12  -0.03     0.22   0.04  -0.03
  16   1     0.18  -0.00  -0.02     0.29  -0.00  -0.04     0.54  -0.03  -0.02
  17   1     0.05   0.02  -0.01    -0.25  -0.03   0.02     0.36  -0.06   0.00
                     22                     23                     24
                        a                      a                      a 
 Frequencies --  1239.0872              1260.3531              1286.8455
 Red. masses --     3.3399                 2.6434                 1.7083
 Frc consts  --     0.0000                 0.0000                 0.0000
 IR Inten    --    20.7554                32.7501                 2.7791
 Raman Activ --     0.0000                 0.0000                 0.0000
 Depolar     --     0.0000                 0.0000                 0.0000
 Atom AN      X      Y      Z        X      Y      Z        X      Y      Z
   1   7     0.04  -0.04   0.13    -0.12   0.08  -0.07    -0.01  -0.02  -0.01
   2   6     0.00   0.02  -0.13     0.09  -0.07  -0.05     0.02   0.05   0.03
   3   6    -0.08  -0.00  -0.11     0.00  -0.09   0.10     0.02   0.10   0.13
   4   6     0.03   0.11   0.29    -0.04   0.20   0.11     0.02  -0.02  -0.01
   5   6    -0.20  -0.07  -0.11     0.14  -0.09  -0.08    -0.03  -0.09  -0.15
   6  53    -0.01   0.00  -0.01     0.00  -0.01  -0.00    -0.00  -0.00  -0.00
   7   1     0.01   0.10   0.04     0.05  -0.08  -0.03     0.01  -0.02  -0.00
   8   1    -0.04   0.00  -0.05     0.02  -0.04   0.03    -0.02   0.04   0.01
   9   1     0.01  -0.05  -0.07     0.02   0.10   0.04     0.02   0.01  -0.02
  10   1    -0.13  -0.30  -0.04     0.22   0.35  -0.01    -0.03  -0.01   0.02
  11   1     0.11   0.18   0.03    -0.23  -0.39  -0.06    -0.02  -0.02   0.03
  12   1     0.30  -0.01  -0.01     0.40  -0.02  -0.03    -0.32   0.05  -0.03
  13   1    -0.31   0.07   0.00    -0.25  -0.03   0.05     0.29  -0.08   0.00
  14   1     0.15   0.10  -0.14     0.07   0.09  -0.10     0.55   0.01  -0.05
  15   1     0.05  -0.16   0.06    -0.11  -0.09   0.03    -0.59  -0.01   0.05
  16   1     0.01  -0.06   0.09    -0.42  -0.01   0.05    -0.15  -0.06   0.08
  17   1     0.58   0.03  -0.04    -0.03   0.08  -0.01     0.19   0.08  -0.04
                     25                     26                     27
                        a                      a                      a 
 Frequencies --  1317.6948              1336.5719              1366.9235
 Red. masses --     3.4934                 3.6402                 3.0249
 Frc consts  --     0.0000                 0.0000                 0.0000
 IR Inten    --    27.8190                38.0217               266.4198
 Raman Activ --     0.0000                 0.0000                 0.0000
 Depolar     --     0.0000                 0.0000                 0.0000
 Atom AN      X      Y      Z        X      Y      Z        X      Y      Z
   1   7    -0.02   0.14   0.05     0.06  -0.14  -0.14     0.14   0.28   0.08
   2   6     0.05   0.16  -0.06    -0.26  -0.23  -0.00    -0.06  -0.11   0.02
   3   6     0.33  -0.08   0.01     0.13   0.04   0.06    -0.15   0.03   0.03
   4   6     0.17  -0.04   0.01     0.18  -0.03   0.03     0.11   0.01  -0.01
   5   6    -0.14   0.06  -0.02    -0.09   0.04  -0.04    -0.02   0.00  -0.02
   6  53    -0.00   0.01  -0.00    -0.00   0.00  -0.00    -0.00  -0.00   0.00
   7   1    -0.01  -0.13   0.00    -0.07   0.18  -0.01    -0.29  -0.40   0.02
   8   1     0.03  -0.15  -0.08    -0.01   0.16   0.11     0.05  -0.39  -0.35
   9   1    -0.08  -0.08  -0.05     0.05   0.08   0.17    -0.24  -0.31  -0.05
  10   1    -0.04  -0.08  -0.02     0.32   0.42  -0.01     0.13   0.13  -0.00
  11   1    -0.27  -0.35   0.05     0.21   0.35   0.04     0.14   0.18  -0.05
  12   1    -0.36  -0.02   0.05    -0.07   0.03  -0.04     0.16   0.01  -0.01
  13   1    -0.37  -0.02   0.05    -0.25  -0.02   0.04     0.13  -0.02  -0.01
  14   1    -0.31  -0.02   0.01    -0.20  -0.00  -0.00    -0.05   0.00   0.01
  15   1    -0.25   0.01   0.03    -0.26  -0.00   0.04    -0.13  -0.01   0.01
  16   1     0.21  -0.02   0.03     0.09  -0.02   0.04    -0.01  -0.01   0.03
  17   1     0.17  -0.06  -0.01     0.12  -0.04  -0.01     0.01  -0.01  -0.00
                     28                     29                     30
                        a                      a                      a 
 Frequencies --  1376.5792              1390.7809              1399.9274
 Red. masses --     4.3202                 1.8276                 1.6379
 Frc consts  --     0.0000                 0.0000                 0.0000
 IR Inten    --    16.1300               115.8837                96.4978
 Raman Activ --     0.0000                 0.0000                 0.0000
 Depolar     --     0.0000                 0.0000                 0.0000
 Atom AN      X      Y      Z        X      Y      Z        X      Y      Z
   1   7     0.09   0.03   0.03     0.12  -0.14   0.05    -0.07  -0.00   0.18
   2   6    -0.13  -0.06   0.02     0.11   0.04   0.00    -0.07  -0.06   0.04
   3   6     0.34   0.07  -0.05    -0.09  -0.02   0.00    -0.00   0.00   0.01
   4   6    -0.36  -0.03   0.05     0.09  -0.00  -0.01     0.05   0.01  -0.02
   5   6     0.08  -0.05   0.02    -0.01   0.02  -0.00    -0.02   0.02   0.00
   6  53     0.00  -0.00   0.00    -0.00   0.00  -0.00    -0.00   0.00   0.00
   7   1    -0.21  -0.13   0.02    -0.53   0.03   0.07     0.31  -0.41  -0.03
   8   1    -0.09   0.01  -0.22    -0.32   0.24  -0.45    -0.21   0.30  -0.12
   9   1     0.01  -0.01  -0.02     0.26   0.34   0.17     0.27   0.12  -0.64
  10   1     0.12   0.12  -0.01    -0.08  -0.04   0.01     0.07   0.10   0.01
  11   1     0.03   0.06  -0.00    -0.07  -0.14   0.00     0.05   0.08  -0.01
  12   1    -0.31   0.01   0.04     0.07  -0.02   0.02     0.02   0.01  -0.02
  13   1    -0.34  -0.04   0.03     0.08  -0.02  -0.01     0.02   0.01  -0.00
  14   1     0.42   0.01  -0.02    -0.12   0.00  -0.01    -0.09  -0.02   0.04
  15   1     0.37  -0.00  -0.03    -0.08   0.03   0.01    -0.04  -0.04  -0.00
  16   1    -0.06   0.03  -0.07     0.02  -0.01   0.02     0.03  -0.00   0.01
  17   1    -0.04   0.09   0.01     0.00  -0.03  -0.00     0.01  -0.02  -0.00
                     31                     32                     33
                        a                      a                      a 
 Frequencies --  1461.9709              1475.8211              1491.9348
 Red. masses --     1.9907                 1.8532                 1.8888
 Frc consts  --     0.0000                 0.0000                 0.0000
 IR Inten    --     1.2848                16.7321                 3.1610
 Raman Activ --     0.0000                 0.0000                 0.0000
 Depolar     --     0.0000                 0.0000                 0.0000
 Atom AN      X      Y      Z        X      Y      Z        X      Y      Z
   1   7     0.00  -0.00  -0.00     0.01  -0.00  -0.01     0.01   0.01   0.00
   2   6     0.02  -0.01  -0.02     0.16  -0.10  -0.20     0.02  -0.02  -0.00
   3   6    -0.03   0.01  -0.01     0.00   0.01  -0.01     0.02  -0.23   0.16
   4   6     0.09  -0.02   0.01    -0.03   0.02  -0.01    -0.02   0.01  -0.01
   5   6    -0.08  -0.22   0.15     0.01   0.02  -0.01    -0.00  -0.01   0.01
   6  53     0.01  -0.01   0.00    -0.00   0.00  -0.00     0.00  -0.00   0.00
   7   1    -0.00  -0.00  -0.00     0.00  -0.04  -0.01    -0.04  -0.02   0.00
   8   1    -0.00   0.00  -0.00     0.01  -0.02  -0.01    -0.01  -0.01  -0.03
   9   1     0.00   0.00  -0.00    -0.02  -0.04  -0.02    -0.01  -0.00   0.01
  10   1    -0.05   0.04   0.01    -0.53   0.40   0.08    -0.04   0.03   0.01
  11   1    -0.00   0.01   0.06    -0.04   0.09   0.67    -0.01  -0.01   0.05
  12   1     0.02  -0.01   0.04     0.01  -0.02   0.05    -0.08   0.19  -0.64
  13   1     0.01  -0.04  -0.00    -0.01  -0.05  -0.00     0.01   0.67   0.03
  14   1    -0.09  -0.00  -0.01     0.02  -0.01   0.03     0.02  -0.02   0.05
  15   1    -0.08   0.01   0.01     0.04  -0.03  -0.01     0.01  -0.06  -0.00
  16   1     0.03   0.22  -0.63    -0.01  -0.02   0.05     0.00   0.02  -0.04
  17   1     0.08   0.66   0.03    -0.01  -0.06  -0.00     0.00   0.05   0.00
                     34                     35                     36
                        a                      a                      a 
 Frequencies --  1504.9494              2906.0352              2935.2989
 Red. masses --     1.9592                 1.9371                 1.4945
 Frc consts  --     0.0000                 0.0000                 0.0000
 IR Inten    --     0.4327                17.7501                27.1352
 Raman Activ --     0.0000                 0.0000                 0.0000
 Depolar     --     0.0000                 0.0000                 0.0000
 Atom AN      X      Y      Z        X      Y      Z        X      Y      Z
   1   7    -0.01   0.01   0.01    -0.00   0.00  -0.00    -0.00  -0.00   0.00
   2   6     0.01  -0.01  -0.01     0.00  -0.00   0.00    -0.01   0.01  -0.01
   3   6    -0.02  -0.02   0.02     0.00   0.02   0.03     0.00   0.03   0.01
   4   6     0.00  -0.24   0.16    -0.01  -0.16  -0.24     0.02  -0.17   0.11
   5   6     0.03  -0.00   0.00     0.00   0.01   0.02    -0.00   0.01  -0.00
   6  53    -0.00   0.00  -0.00     0.00   0.00   0.00    -0.00   0.00  -0.00
   7   1     0.03  -0.03  -0.00     0.00   0.00   0.00    -0.00   0.00  -0.00
   8   1    -0.00   0.00  -0.00    -0.00  -0.00  -0.00     0.00   0.00  -0.00
   9   1     0.00  -0.01  -0.05     0.00   0.00  -0.00     0.00   0.00   0.00
  10   1    -0.02   0.03   0.00    -0.00  -0.00   0.00     0.00  -0.00   0.02
  11   1     0.00   0.01   0.03    -0.01   0.00  -0.00     0.02  -0.02   0.00
  12   1     0.00   0.01  -0.05    -0.00  -0.11  -0.03    -0.00  -0.11  -0.04
  13   1     0.01   0.05   0.00    -0.01   0.01  -0.10     0.00   0.00   0.02
  14   1    -0.04   0.21  -0.63    -0.00   0.61   0.19     0.00   0.65   0.26
  15   1     0.01   0.68   0.04     0.06  -0.05   0.68    -0.06  -0.00  -0.67
  16   1    -0.01  -0.01   0.01    -0.01  -0.07  -0.02    -0.00  -0.05  -0.02
  17   1    -0.02  -0.01   0.00    -0.00   0.01  -0.07     0.00   0.00   0.04
                     37                     38                     39
                        a                      a                      a 
 Frequencies --  2944.3431              2956.1732              2969.6416
 Red. masses --     1.9583                 1.9180                 1.9680
 Frc consts  --     0.0000                 0.0000                 0.0000
 IR Inten    --    24.4763                 1.2306                15.0134
 Raman Activ --     0.0000                 0.0000                 0.0000
 Depolar     --     0.0000                 0.0000                 0.0000
 Atom AN      X      Y      Z        X      Y      Z        X      Y      Z
   1   7     0.00  -0.00  -0.00     0.00   0.00   0.00    -0.00   0.00   0.00
   2   6    -0.00   0.00  -0.02    -0.19   0.13  -0.16     0.02  -0.01   0.01
   3   6     0.02   0.19   0.22    -0.00  -0.05   0.02     0.00  -0.06   0.04
   4   6     0.00   0.04   0.03     0.00  -0.00  -0.00    -0.00  -0.03  -0.03
   5   6    -0.00  -0.01  -0.01    -0.00   0.00   0.00    -0.02  -0.13  -0.25
   6  53     0.00  -0.00  -0.00     0.00  -0.00   0.00    -0.00  -0.00  -0.00
   7   1    -0.00  -0.00   0.00    -0.00  -0.00  -0.01    -0.00  -0.00  -0.00
   8   1    -0.00  -0.00   0.00    -0.00  -0.00   0.00    -0.00  -0.00   0.00
   9   1    -0.00  -0.00   0.00    -0.01   0.01  -0.00     0.00  -0.00   0.00
  10   1     0.01  -0.01   0.11     0.04  -0.02   0.48    -0.00  -0.00  -0.02
  11   1    -0.01   0.01  -0.01     0.64  -0.44   0.11    -0.07   0.05  -0.01
  12   1    -0.02  -0.69  -0.20     0.01   0.19   0.07     0.01   0.20   0.07
  13   1    -0.06   0.03  -0.59    -0.02  -0.01  -0.17    -0.02  -0.01  -0.23
  14   1    -0.00  -0.15  -0.05     0.00  -0.00  -0.00    -0.00   0.08   0.03
  15   1    -0.00   0.01  -0.05     0.00   0.00   0.02     0.01  -0.00   0.05
  16   1     0.00   0.03   0.01    -0.00  -0.01  -0.00     0.04   0.51   0.17
  17   1     0.00  -0.00   0.02     0.00  -0.00   0.00     0.02  -0.04   0.71
                     40                     41                     42
                        a                      a                      a 
 Frequencies --  2971.1868              2982.7212              2983.9945
 Red. masses --     1.6170                 1.5033                 1.5659
 Frc consts  --     0.0000                 0.0000                 0.0000
 IR Inten    --    21.2877                28.8842                16.0012
 Raman Activ --     0.0000                 0.0000                 0.0000
 Depolar     --     0.0000                 0.0000                 0.0000
 Atom AN      X      Y      Z        X      Y      Z        X      Y      Z
   1   7     0.00   0.00  -0.00     0.00   0.00  -0.00    -0.00  -0.00   0.00
   2   6     0.06  -0.04   0.02    -0.03   0.02   0.04     0.07  -0.05  -0.20
   3   6     0.01  -0.14   0.13    -0.00   0.03  -0.02    -0.00   0.01  -0.05
   4   6     0.00  -0.01   0.03    -0.00   0.02  -0.01    -0.00   0.00  -0.01
   5   6     0.01   0.09   0.07     0.01   0.18  -0.10     0.00   0.04  -0.02
   6  53    -0.00   0.00   0.00    -0.00   0.00  -0.00    -0.00   0.00  -0.00
   7   1    -0.00  -0.00  -0.00     0.00   0.00   0.00    -0.00   0.00  -0.02
   8   1    -0.00  -0.00   0.00     0.00   0.00  -0.00     0.00  -0.00  -0.00
   9   1     0.01  -0.00   0.00    -0.00   0.00  -0.00     0.01  -0.01   0.00
  10   1     0.00  -0.00  -0.02    -0.03   0.02  -0.18     0.12  -0.07   0.80
  11   1    -0.21   0.15  -0.04     0.12  -0.08   0.03    -0.37   0.26  -0.10
  12   1     0.02   0.50   0.18    -0.00  -0.12  -0.04     0.00  -0.02  -0.01
  13   1    -0.06  -0.01  -0.66     0.01   0.00   0.11     0.02   0.00   0.19
  14   1     0.00   0.02   0.01     0.00  -0.06  -0.02    -0.00  -0.01  -0.00
  15   1    -0.01   0.00  -0.08     0.00   0.00   0.05     0.00  -0.00   0.03
  16   1    -0.02  -0.34  -0.13    -0.05  -0.64  -0.27    -0.01  -0.13  -0.06
  17   1    -0.00   0.01  -0.11     0.02   0.01   0.62     0.00   0.00   0.15
                     43                     44                     45
                        a                      a                      a 
 Frequencies --  3276.5363              3281.4220              3304.8867
 Red. masses --     2.0492                 2.0567                 1.2813
 Frc consts  --     0.0000                 0.0000                 0.0000
 IR Inten    --   208.0637               159.8777                58.0338
 Raman Activ --     0.0000                 0.0000                 0.0000
 Depolar     --     0.0000                 0.0000                 0.0000
 Atom AN      X      Y      Z        X      Y      Z        X      Y      Z
   1   7     0.25   0.01  -0.13    -0.12   0.12  -0.23    -0.02  -0.13  -0.06
   2   6     0.00  -0.00  -0.00    -0.00   0.00  -0.01     0.00  -0.01  -0.01
   3   6    -0.00  -0.00  -0.00    -0.00  -0.00  -0.00     0.00  -0.00   0.00
   4   6    -0.00  -0.00   0.00     0.00  -0.00  -0.00     0.00   0.00  -0.00
   5   6     0.00   0.00  -0.00    -0.00  -0.00  -0.00     0.00   0.00  -0.00
   6  53     0.00  -0.00   0.00     0.00   0.00  -0.00    -0.00   0.00  -0.00
   7   1     0.05  -0.02   0.27     0.07  -0.03   0.71     0.06  -0.04   0.59
   8   1    -0.66  -0.31   0.31    -0.11  -0.04   0.03     0.46   0.20  -0.22
   9   1    -0.35   0.30  -0.12     0.48  -0.38   0.12    -0.44   0.34  -0.13
  10   1     0.00  -0.00   0.01     0.00  -0.00   0.01     0.00  -0.00   0.01
  11   1    -0.01   0.01  -0.00     0.01  -0.01   0.00    -0.01   0.01  -0.00
  12   1     0.00  -0.00   0.00     0.00   0.00   0.00     0.00   0.01   0.00
  13   1     0.00  -0.00   0.00    -0.00  -0.00   0.00    -0.00  -0.00  -0.00
  14   1    -0.00   0.00  -0.00    -0.00  -0.00   0.00    -0.00   0.00  -0.00
  15   1     0.00   0.00  -0.00    -0.00  -0.00  -0.00    -0.00   0.00   0.00
  16   1    -0.00  -0.00   0.00     0.00   0.00   0.00    -0.00  -0.00  -0.00
  17   1     0.00   0.00   0.00     0.00  -0.00   0.00     0.00  -0.00   0.00
