 Entering Gaussian System
 *********************************************
 Gaussian 98:
 frequency output generated by the xtb code
 *********************************************
                         Standard orientation:
 --------------------------------------------------------------------
  Center     Atomic     Atomic              Coordinates (Angstroms)
  Number     Number      Type              X           Y           Z
 --------------------------------------------------------------------
    1          7             0       -3.710730   -0.156650    0.383393
    2          6             0       -2.227269   -0.062907    0.536318
    3          6             0       -1.497354   -0.160304   -0.797885
    4          6             0        0.039747   -0.070511   -0.704720
    5          6             0        0.666484   -1.224913    0.112260
    6          6             0        2.203634   -1.156012    0.081014
    7          6             0        2.708423    0.204297    0.596070
    8          6             0        2.072577    1.369689   -0.183680
    9          6             0        0.535936    1.285937   -0.151294
   10          1             0       -3.973036   -1.047699   -0.049164
   11          1             0       -4.060118    0.598181   -0.215147
   12          1             0       -4.186926   -0.090716    1.288805
   13          1             0       -1.885760   -0.855248    1.210428
   14          1             0       -1.976972    0.879692    1.034335
   15          1             0       -1.865442    0.628457   -1.461755
   16          1             0       -1.774700   -1.100223   -1.285612
   17          1             0        0.442563   -0.156735   -1.727231
   18          1             0        0.304338   -2.192352   -0.254987
   19          1             0        0.326128   -1.155290    1.149941
   20          1             0        2.553800   -1.308645   -0.946077
   21          1             0        2.639212   -1.977353    0.664444
   22          1             0        3.803484    0.255471    0.541686
   23          1             0        2.463318    0.302990    1.659651
   24          1             0        2.416553    1.341855   -1.223761
   25          1             0        2.415393    2.334048    0.212758
   26          1             0        0.081179    2.113789   -0.707504
   27          1             0        0.192710    1.398701    0.881597
 --------------------------------------------------------------------
     1 basis functions        1 primitive gaussians
     1 alpha electrons        1 beta electrons

 Harmonic frequencies (cm**-1), IR intensities (km*mol⁻¹),
 Raman scattering activities (A**4/amu), Raman depolarization ratios,
 reduced masses (AMU), force constants (mDyne/A) and normal coordinates:
                      1                      2                      3
                        a                      a                      a 
 Frequencies --   -65.4387               118.6161               136.0446
 Red. masses --     3.2116                 9.3877                 9.1695
 Frc consts  --     0.0000                 0.0000                 0.0000
 IR Inten    --     0.9815                19.2166                11.1037
 Raman Activ --     0.0000                 0.0000                 0.0000
 Depolar     --     0.0000                 0.0000                 0.0000
 Atom AN      X      Y      Z        X      Y      Z        X      Y      Z
   1   7    -0.01   0.12  -0.01     0.03  -0.52   0.06     0.21   0.05   0.34
   2   6     0.02  -0.35   0.03     0.00   0.04  -0.01     0.22   0.03  -0.01
   3   6    -0.00   0.06  -0.01    -0.02   0.35  -0.04    -0.01  -0.02  -0.13
   4   6    -0.00   0.01  -0.00    -0.01   0.18  -0.03     0.00  -0.03  -0.28
   5   6    -0.04   0.06   0.10    -0.20   0.16   0.09    -0.03  -0.07  -0.29
   6   6    -0.04   0.01   0.10    -0.19  -0.09   0.12    -0.03   0.03   0.10
   7   6    -0.00   0.04  -0.00     0.00  -0.12   0.02    -0.28   0.02   0.35
   8   6     0.04  -0.01  -0.10     0.19  -0.09  -0.10    -0.04  -0.01   0.11
   9   6     0.03   0.04  -0.12     0.18   0.16  -0.14    -0.05  -0.01  -0.28
  10   1    -0.04   0.25  -0.42     0.09  -0.18   0.06     0.02   0.02   0.10
  11   1     0.01   0.33   0.37    -0.07  -0.20  -0.01     0.02   0.02   0.12
  12   1     0.02  -0.38   0.04     0.01  -0.15   0.02     0.12   0.01   0.12
  13   1    -0.05  -0.22  -0.10     0.08   0.04  -0.02     0.09   0.01  -0.01
  14   1     0.07  -0.19   0.14    -0.08   0.03   0.01     0.09   0.01  -0.02
  15   1     0.00   0.08   0.07     0.01   0.15   0.04    -0.02  -0.01  -0.03
  16   1    -0.01   0.06  -0.08    -0.02   0.14  -0.08    -0.02  -0.01  -0.02
  17   1     0.00  -0.02   0.00    -0.00   0.01  -0.00    -0.01  -0.01  -0.08
  18   1    -0.02   0.01   0.06    -0.10   0.05   0.05     0.03  -0.01  -0.14
  19   1    -0.01   0.05   0.03    -0.05   0.09   0.03    -0.07  -0.06  -0.10
  20   1    -0.01  -0.03   0.04    -0.05  -0.07   0.04     0.07   0.05   0.05
  21   1    -0.02   0.01   0.05    -0.10  -0.03   0.06    -0.04   0.00   0.04
  22   1    -0.00  -0.00   0.00     0.00  -0.08   0.01    -0.08   0.02   0.22
  23   1    -0.00   0.04  -0.00    -0.00   0.00   0.00    -0.20  -0.00   0.08
  24   1     0.01  -0.03  -0.03     0.06  -0.07  -0.03     0.07  -0.02   0.06
  25   1     0.02   0.00  -0.05     0.10  -0.03  -0.05    -0.05   0.00   0.04
  26   1     0.02   0.00  -0.06     0.09   0.05  -0.07     0.03  -0.01  -0.13
  27   1     0.00   0.05  -0.04     0.04   0.09  -0.05    -0.08   0.03  -0.11
                      4                      5                      6
                        a                      a                      a 
 Frequencies --   157.5471               228.7404               251.4788
 Red. masses --     4.6580                 8.8500                 6.3889
 Frc consts  --     0.0000                 0.0000                 0.0000
 IR Inten    --     1.9862                10.4100                 0.0524
 Raman Activ --     0.0000                 0.0000                 0.0000
 Depolar     --     0.0000                 0.0000                 0.0000
 Atom AN      X      Y      Z        X      Y      Z        X      Y      Z
   1   7     0.00  -0.17   0.01    -0.26  -0.04  -0.18     0.00   0.01  -0.00
   2   6    -0.03   0.51  -0.06    -0.27   0.02   0.29     0.00  -0.01   0.00
   3   6     0.00  -0.06   0.01    -0.07   0.04   0.37     0.01  -0.16   0.02
   4   6     0.00  -0.06   0.01    -0.02   0.00   0.01     0.00  -0.04   0.01
   5   6     0.04  -0.08  -0.04     0.17  -0.07  -0.22    -0.02   0.16   0.28
   6   6     0.05  -0.02  -0.04     0.18   0.07  -0.09    -0.05   0.00  -0.33
   7   6     0.01  -0.01  -0.01    -0.02   0.02   0.20     0.01  -0.17   0.02
   8   6    -0.04  -0.01   0.04     0.19  -0.07  -0.07     0.04   0.08   0.32
   9   6    -0.04  -0.07   0.08     0.17   0.04  -0.23     0.00   0.10  -0.31
  10   1     0.15   0.06  -0.29    -0.02  -0.01  -0.08    -0.00   0.01  -0.01
  11   1    -0.16   0.10   0.28    -0.02  -0.01  -0.08     0.00   0.01   0.01
  12   1     0.02  -0.44   0.04    -0.16  -0.02  -0.09     0.00  -0.01   0.00
  13   1     0.08   0.28   0.10    -0.12   0.01   0.10    -0.00   0.01   0.02
  14   1    -0.11   0.25  -0.16    -0.12   0.01   0.10     0.00   0.01  -0.03
  15   1     0.01  -0.11  -0.11    -0.03   0.01   0.11    -0.02  -0.09  -0.03
  16   1     0.01  -0.08   0.13    -0.03   0.01   0.11     0.03  -0.08   0.05
  17   1     0.00  -0.00   0.00    -0.09  -0.01  -0.03     0.00  -0.09   0.01
  18   1     0.03  -0.02  -0.03     0.09  -0.01  -0.13    -0.09   0.02   0.22
  19   1     0.01  -0.04  -0.01     0.03  -0.10  -0.07     0.11   0.19   0.11
  20   1     0.01   0.01  -0.01     0.09   0.09  -0.02    -0.13   0.11  -0.15
  21   1     0.02  -0.00  -0.02     0.05  -0.01  -0.06     0.05  -0.06  -0.23
  22   1     0.00   0.01  -0.01     0.00   0.02   0.18     0.00  -0.04   0.00
  23   1     0.01  -0.01  -0.00    -0.12  -0.00   0.03     0.01  -0.14   0.01
  24   1    -0.02   0.01   0.01     0.10  -0.08  -0.01     0.12   0.16   0.12
  25   1    -0.02  -0.00   0.02     0.05  -0.00  -0.06    -0.05  -0.02   0.24
  26   1    -0.03  -0.02   0.04     0.09  -0.01  -0.13     0.09  -0.01  -0.23
  27   1    -0.00  -0.05   0.03     0.02   0.09  -0.09    -0.12   0.15  -0.14
                      7                      8                      9
                        a                      a                      a 
 Frequencies --   297.5111               316.2250               339.8765
 Red. masses --     9.9266                 7.6162                 6.2893
 Frc consts  --     0.0000                 0.0000                 0.0000
 IR Inten    --    18.3278                 0.0079                 0.5641
 Raman Activ --     0.0000                 0.0000                 0.0000
 Depolar     --     0.0000                 0.0000                 0.0000
 Atom AN      X      Y      Z        X      Y      Z        X      Y      Z
   1   7     0.43  -0.01  -0.33     0.00  -0.02   0.00     0.03  -0.01  -0.08
   2   6     0.28   0.05   0.28    -0.01   0.11  -0.01    -0.00   0.02   0.18
   3   6     0.12   0.03   0.25    -0.02   0.46  -0.05    -0.05   0.01   0.14
   4   6     0.02   0.01   0.09     0.02  -0.35   0.04    -0.02  -0.02  -0.20
   5   6    -0.12  -0.08   0.03     0.09  -0.25   0.17    -0.06  -0.02  -0.19
   6   6    -0.16  -0.07  -0.09     0.11   0.07  -0.06    -0.03  -0.12   0.28
   7   6    -0.30  -0.02  -0.07    -0.01   0.11  -0.01     0.24  -0.01  -0.21
   8   6    -0.17   0.03  -0.10    -0.12   0.07   0.04    -0.05   0.17   0.25
   9   6    -0.13   0.07   0.02    -0.07  -0.28  -0.11    -0.06  -0.02  -0.19
  10   1     0.20  -0.00  -0.15     0.02  -0.02   0.02     0.04  -0.00  -0.04
  11   1     0.20  -0.00  -0.14    -0.02  -0.03  -0.02     0.04  -0.00  -0.04
  12   1    -0.04  -0.02  -0.17    -0.00   0.00  -0.00    -0.05  -0.01  -0.05
  13   1     0.05   0.01   0.09     0.03  -0.01  -0.06    -0.02   0.00   0.06
  14   1     0.05   0.02   0.09    -0.03   0.00   0.06    -0.02   0.01   0.06
  15   1     0.01   0.01   0.09     0.14   0.31   0.11    -0.04   0.00   0.05
  16   1     0.01   0.01   0.09    -0.17   0.26  -0.17    -0.04   0.00   0.05
  17   1     0.01   0.00   0.03     0.01  -0.15   0.02    -0.04  -0.01  -0.07
  18   1    -0.06  -0.00  -0.01     0.06  -0.10   0.09     0.02  -0.01  -0.10
  19   1    -0.02  -0.03   0.02     0.06  -0.05   0.06    -0.10  -0.03  -0.08
  20   1    -0.07  -0.00  -0.03    -0.01   0.07  -0.04     0.07  -0.21   0.14
  21   1    -0.01  -0.01  -0.04     0.11   0.03  -0.06    -0.10   0.03   0.24
  22   1    -0.08  -0.00   0.03    -0.00   0.06  -0.01     0.06  -0.02  -0.26
  23   1    -0.14  -0.01  -0.03    -0.00   0.01  -0.00     0.28   0.01  -0.01
  24   1    -0.06  -0.01  -0.03     0.01   0.08   0.02     0.05   0.24   0.09
  25   1    -0.01  -0.00  -0.04    -0.11   0.03   0.06    -0.10   0.01   0.24
  26   1    -0.06  -0.00  -0.01    -0.05  -0.12  -0.07     0.02  -0.01  -0.10
  27   1    -0.02   0.03   0.01    -0.05  -0.07  -0.04    -0.10   0.00  -0.08
                     10                     11                     12
                        a                      a                      a 
 Frequencies --   411.9567               433.7679               505.1395
 Red. masses --     8.4465                 9.2404                 6.0000
 Frc consts  --     0.0000                 0.0000                 0.0000
 IR Inten    --     1.0082                 0.1083                 7.8739
 Raman Activ --     0.0000                 0.0000                 0.0000
 Depolar     --     0.0000                 0.0000                 0.0000
 Atom AN      X      Y      Z        X      Y      Z        X      Y      Z
   1   7    -0.14   0.00   0.10     0.00  -0.01   0.00     0.15   0.00  -0.03
   2   6    -0.07  -0.02  -0.15     0.00  -0.04   0.00     0.08  -0.00  -0.06
   3   6     0.20   0.01  -0.02     0.01  -0.11   0.01    -0.11  -0.01  -0.08
   4   6     0.19   0.05   0.34     0.01  -0.13   0.01    -0.19   0.02   0.27
   5   6     0.04  -0.32   0.01    -0.32  -0.21   0.01    -0.10  -0.16  -0.01
   6   6     0.01  -0.23   0.02    -0.36   0.25  -0.02    -0.08   0.22   0.03
   7   6    -0.23  -0.03  -0.20    -0.01   0.17  -0.02     0.30   0.03   0.14
   8   6    -0.01   0.23  -0.03     0.34   0.29  -0.03    -0.05  -0.22   0.07
   9   6     0.01   0.32  -0.06     0.34  -0.18   0.03    -0.12   0.14  -0.04
  10   1    -0.08  -0.00   0.06    -0.00   0.00  -0.00     0.05   0.00  -0.01
  11   1    -0.08   0.00   0.06     0.00   0.00   0.00     0.05   0.00  -0.01
  12   1     0.04   0.01   0.07     0.00  -0.01   0.00     0.03  -0.00  -0.01
  13   1    -0.02  -0.00  -0.04    -0.01  -0.00   0.01     0.04   0.00  -0.03
  14   1    -0.02  -0.01  -0.04     0.01  -0.01  -0.01     0.04  -0.00  -0.03
  15   1     0.10   0.00  -0.03    -0.02  -0.07  -0.02    -0.02  -0.00  -0.03
  16   1     0.10   0.00  -0.03     0.02  -0.06   0.04    -0.02  -0.01  -0.03
  17   1     0.09   0.02   0.11     0.00  -0.07   0.01    -0.02   0.01   0.09
  18   1     0.01  -0.03  -0.16    -0.01  -0.06  -0.08     0.09  -0.01  -0.21
  19   1    -0.01  -0.26   0.01    -0.15  -0.14  -0.01    -0.09  -0.28  -0.01
  20   1     0.02  -0.13   0.02    -0.16   0.13  -0.04    -0.09   0.19  -0.04
  21   1     0.04   0.00   0.08    -0.02   0.06  -0.08     0.03  -0.01  -0.13
  22   1    -0.06  -0.00  -0.01     0.00  -0.08   0.01     0.08  -0.01  -0.18
  23   1    -0.10  -0.01  -0.06    -0.00   0.09  -0.01     0.29   0.02   0.08
  24   1     0.01   0.14  -0.01     0.15   0.16   0.01    -0.06  -0.21   0.01
  25   1     0.04   0.02   0.08     0.02   0.08   0.07     0.03  -0.01  -0.13
  26   1     0.01  -0.01  -0.16     0.01  -0.04   0.09     0.09  -0.02  -0.21
  27   1    -0.03   0.25  -0.05     0.17  -0.12   0.04    -0.12   0.26  -0.06
                     13                     14                     15
                        a                      a                      a 
 Frequencies --   621.0596               785.9081               802.8305
 Red. masses --     8.8858                 2.4171                 7.8954
 Frc consts  --     0.0000                 0.0000                 0.0000
 IR Inten    --     1.9709                34.5105                 2.7062
 Raman Activ --     0.0000                 0.0000                 0.0000
 Depolar     --     0.0000                 0.0000                 0.0000
 Atom AN      X      Y      Z        X      Y      Z        X      Y      Z
   1   7    -0.21  -0.01   0.04     0.00  -0.04   0.01    -0.05   0.00   0.04
   2   6    -0.06   0.00   0.03     0.01  -0.18   0.02     0.00   0.02   0.13
   3   6     0.51   0.05   0.18     0.01  -0.22   0.02    -0.17  -0.02  -0.14
   4   6     0.43   0.00  -0.20     0.01  -0.08   0.00     0.11  -0.02  -0.32
   5   6    -0.09   0.04  -0.05    -0.01   0.03  -0.09    -0.00  -0.36   0.10
   6   6    -0.21   0.11   0.01    -0.06   0.03  -0.05     0.09  -0.24   0.08
   7   6    -0.01   0.01   0.06    -0.00   0.02   0.00    -0.01   0.01   0.15
   8   6    -0.20  -0.12   0.04     0.06   0.05   0.04     0.06   0.26   0.02
   9   6    -0.08  -0.06  -0.04     0.01   0.06   0.08    -0.04   0.37   0.01
  10   1    -0.09  -0.00   0.04    -0.20   0.08  -0.06     0.05   0.00  -0.04
  11   1    -0.09   0.00   0.04     0.20   0.11   0.04     0.05  -0.01  -0.03
  12   1     0.02   0.01   0.05    -0.01   0.07  -0.01    -0.13  -0.01  -0.05
  13   1    -0.07   0.00   0.04     0.07   0.28   0.36     0.01  -0.00   0.02
  14   1    -0.07  -0.00   0.04    -0.10   0.20  -0.40     0.01   0.00   0.03
  15   1     0.14   0.01   0.05     0.09   0.23   0.30    -0.10  -0.01  -0.02
  16   1     0.14   0.02   0.05    -0.12   0.16  -0.34    -0.10  -0.01  -0.01
  17   1     0.12   0.00  -0.06     0.00   0.03  -0.00     0.05  -0.01  -0.08
  18   1    -0.02   0.02  -0.03    -0.04  -0.01   0.05    -0.06  -0.12   0.15
  19   1    -0.11   0.05  -0.05     0.02   0.08  -0.02    -0.00   0.06   0.01
  20   1    -0.12   0.14  -0.04     0.03  -0.04   0.01    -0.07   0.13  -0.04
  21   1    -0.01  -0.02  -0.11    -0.06   0.03   0.05     0.19  -0.11  -0.15
  22   1    -0.01  -0.02  -0.16     0.00  -0.02   0.00    -0.01  -0.01  -0.12
  23   1     0.17   0.01   0.05     0.00  -0.01   0.00     0.17   0.02   0.08
  24   1    -0.10  -0.16  -0.00    -0.03  -0.05  -0.00    -0.05  -0.13  -0.01
  25   1    -0.01  -0.00  -0.11     0.06   0.03  -0.06     0.17   0.09  -0.17
  26   1    -0.02  -0.02  -0.02     0.04  -0.01  -0.04    -0.08   0.14   0.13
  27   1    -0.10  -0.07  -0.03    -0.03   0.08   0.00     0.01  -0.06   0.03
                     16                     17                     18
                        a                      a                      a 
 Frequencies --   818.6258               870.2612               876.2700
 Red. masses --     4.3430                 3.3381                 6.9398
 Frc consts  --     0.0000                 0.0000                 0.0000
 IR Inten    --     3.9948                26.4637                22.6963
 Raman Activ --     0.0000                 0.0000                 0.0000
 Depolar     --     0.0000                 0.0000                 0.0000
 Atom AN      X      Y      Z        X      Y      Z        X      Y      Z
   1   7    -0.00   0.02  -0.00    -0.03  -0.20   0.07    -0.16   0.06   0.17
   2   6    -0.00   0.06  -0.00     0.02  -0.05   0.05     0.04   0.04   0.19
   3   6    -0.00   0.02  -0.00    -0.03   0.27  -0.10    -0.08  -0.10  -0.27
   4   6     0.01  -0.16   0.01     0.04   0.10  -0.03     0.17  -0.03  -0.11
   5   6    -0.09  -0.13  -0.20    -0.03  -0.09   0.06     0.14   0.06   0.11
   6   6    -0.09   0.07  -0.22     0.05   0.02  -0.01    -0.05   0.26   0.06
   7   6    -0.01   0.16  -0.01    -0.04   0.06  -0.06    -0.21  -0.05  -0.25
   8   6     0.08   0.12   0.20    -0.06  -0.08   0.04    -0.00  -0.23   0.10
   9   6     0.10  -0.07   0.22     0.09  -0.11   0.01     0.11   0.02   0.12
  10   1     0.07  -0.03   0.02    -0.39   0.12  -0.11     0.25  -0.02  -0.08
  11   1    -0.07  -0.04  -0.01     0.46   0.17   0.02     0.05  -0.06  -0.10
  12   1     0.00  -0.02   0.00    -0.12   0.17  -0.06    -0.38  -0.08  -0.13
  13   1    -0.02  -0.08  -0.10     0.26   0.08  -0.01    -0.01  -0.02   0.03
  14   1     0.03  -0.05   0.11    -0.24   0.06   0.01     0.11  -0.01   0.04
  15   1     0.00  -0.05  -0.07    -0.13  -0.15  -0.22    -0.00   0.03  -0.02
  16   1    -0.00  -0.04   0.08     0.14  -0.10   0.21    -0.07   0.01  -0.12
  17   1    -0.00   0.05  -0.01     0.04  -0.00   0.01     0.15   0.01   0.01
  18   1    -0.13  -0.11   0.24    -0.01  -0.02   0.02     0.18   0.00  -0.07
  19   1     0.14   0.24  -0.01     0.02  -0.03   0.03    -0.07  -0.08  -0.00
  20   1     0.17  -0.21   0.04     0.01  -0.02  -0.00    -0.06  -0.00   0.01
  21   1    -0.14   0.14   0.20     0.05   0.04   0.02     0.05   0.14   0.06
  22   1    -0.00   0.00  -0.00    -0.01   0.05  -0.01    -0.06  -0.02  -0.04
  23   1     0.00  -0.06   0.01    -0.02   0.01  -0.02    -0.08  -0.01  -0.07
  24   1    -0.15  -0.23   0.00    -0.03  -0.01   0.01    -0.06   0.00   0.01
  25   1     0.13   0.11  -0.23    -0.03  -0.01   0.01     0.08  -0.12   0.09
  26   1     0.14  -0.14  -0.21     0.08  -0.03  -0.04     0.16   0.02  -0.05
  27   1    -0.17   0.22  -0.03    -0.05  -0.00  -0.02    -0.06   0.08  -0.01
                     19                     20                     21
                        a                      a                      a 
 Frequencies --   883.8471               913.2650               921.8329
 Red. masses --     6.3110                 5.4933                 4.5492
 Frc consts  --     0.0000                 0.0000                 0.0000
 IR Inten    --     5.1879                25.7879                 3.5203
 Raman Activ --     0.0000                 0.0000                 0.0000
 Depolar     --     0.0000                 0.0000                 0.0000
 Atom AN      X      Y      Z        X      Y      Z        X      Y      Z
   1   7     0.09  -0.01  -0.08     0.15  -0.02  -0.19     0.01  -0.05  -0.00
   2   6    -0.04  -0.02  -0.10    -0.06  -0.02  -0.06    -0.00   0.04  -0.01
   3   6    -0.08   0.02   0.11    -0.09   0.02   0.16    -0.00   0.01   0.01
   4   6    -0.09   0.01   0.07    -0.01  -0.02  -0.29     0.01  -0.16   0.01
   5   6     0.24  -0.05  -0.06    -0.00  -0.12   0.16     0.13   0.18   0.15
   6   6    -0.05   0.13   0.04     0.05   0.15   0.10    -0.12   0.14  -0.17
   7   6    -0.50  -0.02  -0.02     0.02  -0.01  -0.25     0.01  -0.15   0.01
   8   6    -0.04  -0.13   0.07     0.05  -0.13   0.12     0.11   0.18   0.14
   9   6     0.24   0.05  -0.08     0.01   0.13   0.14    -0.15   0.14  -0.17
  10   1    -0.07  -0.00   0.03    -0.17  -0.01   0.10    -0.08   0.02  -0.01
  11   1    -0.04   0.01   0.04    -0.15   0.02   0.09     0.07   0.03   0.01
  12   1     0.16   0.02   0.05     0.39   0.04   0.13     0.01   0.03   0.00
  13   1     0.00   0.00  -0.03    -0.07   0.00   0.02     0.05  -0.02  -0.06
  14   1    -0.01  -0.00  -0.03    -0.08   0.00   0.01    -0.05  -0.01   0.06
  15   1    -0.02  -0.00   0.02    -0.10  -0.00   0.07     0.08  -0.01  -0.05
  16   1    -0.01  -0.00   0.03    -0.08   0.00   0.08    -0.08  -0.01   0.06
  17   1    -0.11  -0.01  -0.02    -0.03  -0.00  -0.08     0.01  -0.24   0.02
  18   1     0.04  -0.05   0.10     0.16  -0.08   0.01     0.17   0.08  -0.18
  19   1     0.16   0.07   0.01    -0.16  -0.04  -0.01     0.02  -0.23   0.05
  20   1     0.11   0.10   0.05    -0.15  -0.01  -0.02     0.01  -0.23   0.01
  21   1     0.03   0.08   0.05     0.16   0.10   0.01    -0.17   0.11   0.17
  22   1    -0.15  -0.05  -0.43     0.01   0.02   0.14     0.00  -0.08   0.01
  23   1     0.29   0.02   0.08    -0.20  -0.01  -0.11     0.01  -0.25   0.02
  24   1     0.12  -0.08   0.07    -0.15   0.00  -0.02     0.00  -0.23   0.03
  25   1     0.03  -0.07   0.06     0.15  -0.09   0.04     0.17   0.09  -0.19
  26   1     0.04   0.07   0.08     0.17   0.09  -0.02    -0.17   0.11   0.17
  27   1     0.17  -0.05   0.02    -0.17   0.03  -0.02    -0.01  -0.24  -0.00
                     22                     23                     24
                        a                      a                      a 
 Frequencies --   943.2037               965.6881              1014.5966
 Red. masses --     6.3734                 7.6037                10.0417
 Frc consts  --     0.0000                 0.0000                 0.0000
 IR Inten    --     1.3292                 3.3380                10.7358
 Raman Activ --     0.0000                 0.0000                 0.0000
 Depolar     --     0.0000                 0.0000                 0.0000
 Atom AN      X      Y      Z        X      Y      Z        X      Y      Z
   1   7     0.01  -0.07   0.00    -0.13  -0.01   0.01    -0.46  -0.05  -0.23
   2   6    -0.01   0.09  -0.01     0.13   0.01   0.02     0.67   0.04   0.15
   3   6     0.00   0.00   0.01     0.19   0.01   0.01    -0.06  -0.00  -0.05
   4   6     0.01  -0.22   0.02    -0.10  -0.01  -0.02    -0.05   0.00  -0.00
   5   6     0.25   0.07  -0.18    -0.16  -0.34  -0.03     0.03   0.06   0.04
   6   6    -0.19   0.12   0.18    -0.02   0.29  -0.13    -0.00  -0.04  -0.01
   7   6     0.01  -0.26   0.02     0.18   0.01   0.03    -0.04  -0.01   0.03
   8   6     0.18   0.09  -0.20     0.01  -0.31  -0.06     0.00   0.05  -0.02
   9   6    -0.26   0.09   0.16    -0.19   0.31  -0.10     0.03  -0.06   0.04
  10   1    -0.12   0.03  -0.02    -0.01  -0.00  -0.01    -0.25  -0.02   0.04
  11   1     0.11   0.04   0.01    -0.02  -0.00  -0.01    -0.25   0.00   0.04
  12   1     0.00   0.05  -0.00    -0.07  -0.01  -0.02     0.08   0.01   0.04
  13   1     0.08  -0.04  -0.12     0.02   0.00   0.01     0.11   0.00   0.06
  14   1    -0.08  -0.02   0.12     0.02   0.00   0.01     0.11   0.03   0.04
  15   1     0.12  -0.01  -0.08     0.05   0.00   0.00    -0.13   0.00   0.05
  16   1    -0.12  -0.01   0.08     0.05   0.00   0.00    -0.11  -0.01   0.05
  17   1    -0.01   0.09  -0.01    -0.01   0.00   0.00     0.05   0.01   0.02
  18   1     0.15  -0.07   0.11    -0.08  -0.16   0.21     0.02   0.03  -0.05
  19   1     0.06   0.16  -0.06     0.12   0.07   0.03     0.04  -0.06   0.02
  20   1    -0.01   0.20   0.03     0.16  -0.08   0.05     0.01   0.00  -0.00
  21   1    -0.11  -0.09  -0.08    -0.07   0.17   0.16    -0.02  -0.03  -0.01
  22   1     0.02  -0.30   0.03     0.05   0.01   0.10    -0.01  -0.01  -0.03
  23   1    -0.01   0.14  -0.02    -0.05  -0.00  -0.01     0.03   0.00   0.02
  24   1    -0.02   0.19  -0.08     0.15   0.10   0.03     0.01  -0.00  -0.00
  25   1     0.12  -0.06   0.10    -0.05  -0.14   0.19    -0.02   0.03  -0.02
  26   1    -0.13  -0.10  -0.08    -0.10   0.19   0.17     0.02  -0.05  -0.04
  27   1    -0.08   0.16   0.02     0.12  -0.05   0.05     0.02   0.07   0.01
                     25                     26                     27
                        a                      a                      a 
 Frequencies --  1024.4596              1041.8756              1064.8947
 Red. masses --     5.6689                 6.7622                 7.0305
 Frc consts  --     0.0000                 0.0000                 0.0000
 IR Inten    --     3.6878                20.2379                 0.1577
 Raman Activ --     0.0000                 0.0000                 0.0000
 Depolar     --     0.0000                 0.0000                 0.0000
 Atom AN      X      Y      Z        X      Y      Z        X      Y      Z
   1   7     0.01   0.12  -0.01    -0.16   0.01   0.13     0.01  -0.00  -0.02
   2   6    -0.01  -0.20   0.02     0.21  -0.02  -0.26    -0.01   0.01   0.08
   3   6    -0.01   0.23  -0.03     0.25   0.04   0.23     0.04  -0.01  -0.07
   4   6    -0.01   0.27  -0.03    -0.40  -0.01   0.00     0.01   0.01   0.07
   5   6     0.18  -0.17   0.10    -0.00   0.01  -0.04    -0.32   0.10  -0.03
   6   6    -0.09   0.14   0.02     0.08  -0.05   0.15     0.35   0.08   0.03
   7   6     0.01  -0.20   0.02    -0.05  -0.02  -0.14    -0.19  -0.02  -0.10
   8   6     0.08   0.13  -0.05     0.08   0.09   0.14     0.36  -0.03   0.05
   9   6    -0.17  -0.20  -0.06    -0.00  -0.03  -0.04    -0.31  -0.13  -0.00
  10   1     0.15  -0.02   0.02     0.08   0.01  -0.06    -0.02  -0.00   0.01
  11   1    -0.13  -0.04  -0.02     0.07  -0.02  -0.06    -0.02   0.00   0.01
  12   1     0.00  -0.05   0.00    -0.24  -0.02  -0.07     0.04   0.00   0.01
  13   1    -0.05   0.08   0.19     0.10  -0.01  -0.10    -0.03   0.00   0.04
  14   1     0.03   0.05  -0.20     0.10  -0.00  -0.10    -0.03   0.00   0.04
  15   1    -0.34  -0.05   0.04     0.16   0.01   0.01     0.00  -0.00  -0.01
  16   1     0.35  -0.02  -0.04     0.18   0.01   0.01     0.00  -0.00  -0.01
  17   1     0.00   0.12  -0.01    -0.39  -0.03  -0.11     0.09   0.01   0.05
  18   1     0.13  -0.10   0.09     0.08  -0.05   0.04    -0.24   0.12  -0.08
  19   1     0.09  -0.02   0.04    -0.09   0.06  -0.04    -0.10   0.02  -0.01
  20   1     0.00  -0.02   0.02    -0.12   0.06  -0.02     0.14   0.09   0.01
  21   1     0.01   0.09   0.06     0.15  -0.01  -0.06     0.27   0.13   0.03
  22   1     0.01  -0.25   0.03    -0.01  -0.00   0.02    -0.05  -0.01  -0.12
  23   1     0.00  -0.07   0.01    -0.06  -0.01  -0.05     0.06   0.00  -0.00
  24   1     0.00  -0.02  -0.02    -0.11  -0.08  -0.01     0.15  -0.07   0.03
  25   1    -0.02   0.07  -0.07     0.15   0.02  -0.07     0.28  -0.09   0.05
  26   1    -0.12  -0.13  -0.07     0.07   0.06   0.03    -0.23  -0.16  -0.05
  27   1    -0.08  -0.04  -0.03    -0.09  -0.08  -0.03    -0.09  -0.03  -0.01
                     28                     29                     30
                        a                      a                      a 
 Frequencies --  1069.8838              1111.5467              1120.0605
 Red. masses --     1.4071                 8.7767                 4.1160
 Frc consts  --     0.0000                 0.0000                 0.0000
 IR Inten    --     1.2715                 0.1684                 5.0244
 Raman Activ --     0.0000                 0.0000                 0.0000
 Depolar     --     0.0000                 0.0000                 0.0000
 Atom AN      X      Y      Z        X      Y      Z        X      Y      Z
   1   7     0.00  -0.06   0.00     0.00  -0.01   0.00     0.00  -0.08   0.01
   2   6    -0.00   0.07  -0.01    -0.00   0.04  -0.01    -0.01   0.19  -0.02
   3   6     0.00  -0.05   0.01     0.00  -0.05   0.01     0.01  -0.25   0.03
   4   6     0.00   0.01  -0.00    -0.01   0.16  -0.02    -0.01   0.32  -0.03
   5   6     0.00  -0.02  -0.01     0.29  -0.06   0.04     0.04  -0.13   0.09
   6   6     0.05   0.06   0.04    -0.30  -0.25  -0.07     0.00   0.07   0.01
   7   6     0.01  -0.09   0.01    -0.02   0.43  -0.04     0.01  -0.10   0.01
   8   6    -0.06   0.04  -0.05     0.32  -0.20   0.11    -0.01   0.06  -0.03
   9   6     0.00  -0.01   0.01    -0.28  -0.10  -0.02    -0.02  -0.15  -0.05
  10   1    -0.06   0.01  -0.01    -0.01   0.00  -0.00    -0.08   0.01  -0.02
  11   1     0.06   0.02   0.01     0.01   0.00   0.00     0.08   0.02   0.01
  12   1    -0.00   0.02  -0.00    -0.00   0.00  -0.00    -0.00   0.03  -0.00
  13   1    -0.02  -0.02  -0.04     0.02  -0.01  -0.04     0.00  -0.06  -0.14
  14   1     0.02  -0.01   0.05    -0.02  -0.01   0.04     0.00  -0.03   0.14
  15   1     0.06   0.02   0.00     0.03   0.02   0.02     0.18   0.07   0.07
  16   1    -0.06   0.01  -0.00    -0.04   0.01  -0.03    -0.19   0.04  -0.08
  17   1    -0.02   0.32  -0.03    -0.01   0.18  -0.02    -0.01   0.15  -0.02
  18   1     0.21  -0.11   0.08     0.03   0.01  -0.01    -0.22   0.08  -0.04
  19   1    -0.30   0.17  -0.11     0.10  -0.04   0.02     0.10  -0.05   0.06
  20   1    -0.26  -0.17  -0.06    -0.23  -0.15  -0.06     0.03   0.01   0.02
  21   1     0.16   0.11   0.04    -0.03  -0.04  -0.03     0.26   0.21   0.08
  22   1    -0.01   0.15  -0.01    -0.01   0.13  -0.01     0.02  -0.41   0.04
  23   1     0.02  -0.39   0.04    -0.01   0.20  -0.02     0.00  -0.00   0.00
  24   1     0.27  -0.13   0.09     0.25  -0.10   0.09    -0.03  -0.00  -0.02
  25   1    -0.17   0.09  -0.06     0.03  -0.03   0.03    -0.28   0.16  -0.12
  26   1    -0.20  -0.15  -0.06    -0.03   0.01   0.01     0.21   0.11   0.02
  27   1     0.28   0.22   0.07    -0.10  -0.05  -0.01    -0.10  -0.07  -0.04
                     31                     32                     33
                        a                      a                      a 
 Frequencies --  1131.4116              1153.8688              1192.0471
 Red. masses --     8.7806                 8.2373                 4.7743
 Frc consts  --     0.0000                 0.0000                 0.0000
 IR Inten    --    13.4126                 4.0561                 5.5489
 Raman Activ --     0.0000                 0.0000                 0.0000
 Depolar     --     0.0000                 0.0000                 0.0000
 Atom AN      X      Y      Z        X      Y      Z        X      Y      Z
   1   7    -0.05   0.01   0.07    -0.00  -0.01  -0.08    -0.01   0.14  -0.01
   2   6     0.13  -0.04  -0.40     0.01   0.02   0.21     0.01  -0.27   0.03
   3   6    -0.38   0.02   0.39    -0.09  -0.03  -0.21    -0.01   0.21  -0.02
   4   6     0.44   0.03   0.08     0.09   0.04   0.36     0.02  -0.30   0.03
   5   6    -0.02  -0.03  -0.05     0.09  -0.05  -0.28     0.07   0.12  -0.14
   6   6    -0.04   0.07   0.01    -0.11   0.05   0.25    -0.03  -0.08   0.03
   7   6     0.07   0.00  -0.02     0.12  -0.02  -0.24    -0.00   0.09  -0.01
   8   6    -0.04  -0.07   0.03    -0.11  -0.01   0.26     0.04  -0.08  -0.02
   9   6    -0.02   0.02  -0.06     0.09   0.00  -0.29    -0.08   0.14   0.11
  10   1     0.06   0.01  -0.05    -0.05  -0.01   0.03     0.12  -0.02   0.04
  11   1     0.05  -0.02  -0.05    -0.05   0.01   0.03    -0.11  -0.04  -0.03
  12   1    -0.13  -0.01  -0.04     0.09   0.01   0.03     0.00  -0.06   0.01
  13   1     0.14  -0.02  -0.17    -0.01   0.00   0.06     0.11   0.07   0.12
  14   1     0.13  -0.00  -0.18    -0.01   0.01   0.06    -0.12   0.04  -0.13
  15   1    -0.16   0.00   0.13     0.04  -0.00  -0.08     0.05  -0.07  -0.17
  16   1    -0.15   0.01   0.13     0.03  -0.01  -0.08    -0.04  -0.04   0.18
  17   1     0.04  -0.00  -0.01    -0.02   0.01   0.07     0.01  -0.17   0.02
  18   1    -0.16   0.06  -0.03    -0.13  -0.01   0.09    -0.16   0.11  -0.09
  19   1     0.00   0.06  -0.01     0.06   0.20  -0.07    -0.03   0.08  -0.06
  20   1    -0.02   0.00   0.00    -0.14   0.13   0.01    -0.16  -0.07  -0.04
  21   1     0.04   0.06   0.02     0.08  -0.02  -0.07     0.29   0.16   0.03
  22   1     0.02   0.01   0.05     0.04   0.01   0.14     0.01  -0.27   0.03
  23   1    -0.04  -0.00  -0.02    -0.17  -0.02  -0.10    -0.00   0.02  -0.00
  24   1    -0.02  -0.01   0.00    -0.12  -0.14   0.03     0.17  -0.04   0.05
  25   1     0.05  -0.05   0.03     0.08   0.01  -0.07    -0.30   0.12  -0.06
  26   1    -0.15  -0.08  -0.02    -0.13   0.02   0.09     0.15   0.15   0.06
  27   1     0.01  -0.06  -0.00     0.08  -0.20  -0.03     0.02   0.09   0.04
                     34                     35                     36
                        a                      a                      a 
 Frequencies --  1228.3878              1229.3727              1243.3221
 Red. masses --     3.4441                 3.7492                 3.7499
 Frc consts  --     0.0000                 0.0000                 0.0000
 IR Inten    --     6.6621                 1.7116                 2.5621
 Raman Activ --     0.0000                 0.0000                 0.0000
 Depolar     --     0.0000                 0.0000                 0.0000
 Atom AN      X      Y      Z        X      Y      Z        X      Y      Z
   1   7    -0.01   0.23  -0.02    -0.01   0.02  -0.04     0.00   0.00  -0.00
   2   6     0.01  -0.24   0.02     0.03  -0.02   0.09    -0.08  -0.01   0.03
   3   6     0.01  -0.07   0.02    -0.06  -0.02  -0.09     0.13   0.01  -0.00
   4   6    -0.01   0.16  -0.03     0.04   0.03   0.12    -0.15  -0.04  -0.30
   5   6    -0.04  -0.08   0.01     0.10  -0.01  -0.03     0.11   0.00   0.07
   6   6    -0.02   0.10   0.13    -0.05  -0.01  -0.15    -0.14   0.00   0.08
   7   6     0.00  -0.11  -0.03     0.01   0.03   0.35     0.11   0.01  -0.03
   8   6     0.02   0.08  -0.11    -0.05  -0.01  -0.18    -0.15  -0.01   0.10
   9   6     0.03  -0.08   0.01     0.10   0.00  -0.03     0.12   0.03   0.06
  10   1     0.17  -0.02   0.06    -0.00  -0.01   0.02     0.01  -0.00   0.01
  11   1    -0.16  -0.05  -0.05    -0.04   0.00   0.01     0.00   0.00   0.00
  12   1     0.00  -0.10   0.01     0.03  -0.01   0.01     0.01  -0.00   0.00
  13   1     0.40   0.06  -0.05     0.05   0.01   0.02     0.05   0.01  -0.01
  14   1    -0.40   0.03   0.04    -0.04   0.01   0.03     0.03  -0.01  -0.01
  15   1     0.22   0.01  -0.08     0.09  -0.00  -0.07    -0.00  -0.01  -0.01
  16   1    -0.23   0.00   0.09     0.04  -0.00  -0.06    -0.02   0.01  -0.00
  17   1     0.02   0.14  -0.01    -0.21  -0.00  -0.06    -0.10  -0.01  -0.10
  18   1    -0.04  -0.01   0.02    -0.06   0.04  -0.03    -0.30   0.18  -0.14
  19   1     0.18  -0.07   0.07    -0.12   0.09  -0.06     0.32  -0.20   0.13
  20   1     0.00   0.08   0.03    -0.26  -0.29  -0.08    -0.06   0.03   0.01
  21   1    -0.10  -0.07  -0.03     0.22   0.23   0.11     0.14   0.10   0.03
  22   1    -0.02   0.29  -0.03    -0.00   0.03  -0.05     0.03  -0.01   0.07
  23   1    -0.00  -0.25   0.01     0.14  -0.01   0.12    -0.05   0.02  -0.02
  24   1     0.06   0.01  -0.01    -0.29   0.25  -0.14    -0.07  -0.04   0.02
  25   1     0.05  -0.01   0.01     0.26  -0.18   0.16     0.15  -0.08   0.05
  26   1     0.05  -0.00  -0.01    -0.05  -0.05  -0.02    -0.30  -0.25  -0.10
  27   1    -0.14  -0.07  -0.04    -0.14  -0.13  -0.05     0.32   0.26   0.08
                     37                     38                     39
                        a                      a                      a 
 Frequencies --  1248.2772              1271.7283              1293.1707
 Red. masses --     3.6090                 2.2882                 3.7566
 Frc consts  --     0.0000                 0.0000                 0.0000
 IR Inten    --     4.9195                 1.9988                18.2020
 Raman Activ --     0.0000                 0.0000                 0.0000
 Depolar     --     0.0000                 0.0000                 0.0000
 Atom AN      X      Y      Z        X      Y      Z        X      Y      Z
   1   7    -0.01   0.11  -0.01    -0.00   0.08  -0.01    -0.07  -0.02  -0.10
   2   6     0.01  -0.14   0.01    -0.01   0.14  -0.01    -0.05   0.02   0.20
   3   6    -0.01  -0.01   0.00     0.01  -0.19   0.02    -0.22  -0.01  -0.02
   4   6     0.00   0.06   0.01     0.00  -0.06   0.00     0.27   0.01  -0.04
   5   6    -0.12   0.04   0.15    -0.08   0.08  -0.09     0.00  -0.06   0.16
   6   6     0.11  -0.09  -0.21     0.03  -0.05   0.00     0.03   0.05  -0.03
   7   6    -0.01   0.05  -0.01    -0.00   0.04  -0.00    -0.01  -0.01  -0.07
   8   6    -0.09  -0.05   0.22    -0.02  -0.05   0.01     0.03  -0.05  -0.02
   9   6     0.10   0.01  -0.16     0.06   0.11   0.07    -0.01   0.09   0.14
  10   1     0.07  -0.01   0.03     0.04   0.00   0.02     0.01  -0.03   0.03
  11   1    -0.07  -0.03  -0.03    -0.04  -0.00  -0.01     0.01   0.04   0.02
  12   1     0.00  -0.05   0.01     0.00  -0.01   0.00     0.13   0.01   0.05
  13   1     0.17   0.04   0.00     0.36  -0.02  -0.25     0.17  -0.01  -0.05
  14   1    -0.18   0.02  -0.01    -0.34  -0.00   0.24     0.18   0.01  -0.06
  15   1     0.16  -0.00  -0.08    -0.31   0.05   0.28     0.25  -0.01  -0.18
  16   1    -0.16  -0.00   0.08     0.32   0.02  -0.30     0.25   0.00  -0.18
  17   1    -0.01   0.26  -0.02     0.01  -0.24   0.03    -0.50  -0.05  -0.23
  18   1     0.25  -0.09   0.03     0.12  -0.05   0.03    -0.09   0.06  -0.06
  19   1    -0.22   0.01  -0.03     0.03   0.01  -0.01    -0.11  -0.02   0.00
  20   1     0.15  -0.05  -0.01    -0.06  -0.04  -0.02     0.14   0.08   0.03
  21   1    -0.04  -0.01   0.02     0.09   0.03  -0.00    -0.16  -0.08  -0.01
  22   1     0.01  -0.31   0.03     0.01  -0.10   0.01    -0.00  -0.00  -0.01
  23   1    -0.02   0.43  -0.04    -0.00   0.06  -0.01    -0.03  -0.00  -0.02
  24   1    -0.14  -0.06   0.02     0.07  -0.03   0.03     0.14  -0.05   0.04
  25   1     0.03   0.00  -0.02    -0.10   0.02  -0.00    -0.17   0.06  -0.02
  26   1    -0.21  -0.10   0.00    -0.10  -0.07  -0.02    -0.08  -0.07  -0.05
  27   1     0.19   0.01   0.01    -0.03   0.01   0.01    -0.11   0.01  -0.00
                     40                     41                     42
                        a                      a                      a 
 Frequencies --  1306.8618              1316.4235              1338.7398
 Red. masses --     3.4340                 3.4750                 4.1905
 Frc consts  --     0.0000                 0.0000                 0.0000
 IR Inten    --    20.9396                 6.1606                12.5724
 Raman Activ --     0.0000                 0.0000                 0.0000
 Depolar     --     0.0000                 0.0000                 0.0000
 Atom AN      X      Y      Z        X      Y      Z        X      Y      Z
   1   7     0.13   0.02   0.11     0.00   0.03   0.00    -0.00  -0.00  -0.00
   2   6     0.19  -0.01  -0.18     0.00   0.03  -0.01    -0.00  -0.01   0.00
   3   6     0.11  -0.01  -0.16     0.00   0.01  -0.01     0.00  -0.02   0.00
   4   6     0.04   0.02   0.08     0.02  -0.29   0.03    -0.01   0.13  -0.01
   5   6     0.12  -0.07   0.09     0.18  -0.08   0.16    -0.02  -0.07  -0.04
   6   6    -0.01   0.04  -0.02     0.03   0.08  -0.04     0.25   0.10   0.08
   7   6     0.01  -0.00  -0.04    -0.00   0.02  -0.00    -0.02   0.32  -0.03
   8   6    -0.00  -0.05  -0.01    -0.04   0.08   0.02    -0.25   0.05  -0.09
   9   6     0.13   0.11   0.08    -0.16  -0.12  -0.13     0.03  -0.05   0.05
  10   1    -0.08   0.06  -0.02     0.02   0.00   0.00     0.00  -0.00  -0.00
  11   1    -0.08  -0.07  -0.01    -0.02  -0.00  -0.00    -0.00  -0.00   0.00
  12   1    -0.17  -0.02  -0.07    -0.01  -0.00  -0.00     0.00  -0.00   0.00
  13   1    -0.36   0.01   0.18     0.12   0.00  -0.07    -0.01   0.00   0.01
  14   1    -0.37  -0.01   0.19    -0.14   0.00   0.08     0.01  -0.00  -0.01
  15   1    -0.20  -0.00   0.08    -0.19  -0.01   0.09     0.06   0.00  -0.02
  16   1    -0.20  -0.00   0.07     0.17  -0.01  -0.09    -0.06   0.00   0.02
  17   1    -0.33  -0.04  -0.11    -0.03   0.38  -0.04     0.01  -0.15   0.02
  18   1    -0.15   0.08  -0.05    -0.30   0.18  -0.15    -0.05  -0.02   0.04
  19   1    -0.14   0.05  -0.04    -0.24   0.08  -0.06     0.02   0.00  -0.00
  20   1     0.07   0.04   0.02     0.06   0.02   0.01    -0.21  -0.16  -0.05
  21   1    -0.10  -0.04   0.00    -0.17  -0.07  -0.00    -0.24  -0.23  -0.10
  22   1     0.00  -0.00  -0.00     0.00  -0.02   0.00     0.02  -0.49   0.05
  23   1    -0.02  -0.00  -0.02     0.00  -0.06   0.01     0.01  -0.22   0.02
  24   1     0.08  -0.04   0.03    -0.06   0.01  -0.01     0.22  -0.12   0.08
  25   1    -0.12   0.03  -0.01     0.18  -0.05   0.01     0.26  -0.17   0.14
  26   1    -0.17  -0.12  -0.04     0.27   0.23   0.11     0.04  -0.03  -0.03
  27   1    -0.16  -0.08  -0.03     0.23   0.11   0.04    -0.02  -0.00  -0.00
                     43                     44                     45
                        a                      a                      a 
 Frequencies --  1344.1945              1347.3683              1354.4016
 Red. masses --     3.9808                 4.6384                 4.4799
 Frc consts  --     0.0000                 0.0000                 0.0000
 IR Inten    --     0.3398                17.7894                 0.2768
 Raman Activ --     0.0000                 0.0000                 0.0000
 Depolar     --     0.0000                 0.0000                 0.0000
 Atom AN      X      Y      Z        X      Y      Z        X      Y      Z
   1   7     0.00  -0.03   0.00     0.03   0.01   0.03     0.00   0.02  -0.00
   2   6     0.00   0.02  -0.00     0.10   0.00  -0.04     0.00  -0.02   0.00
   3   6    -0.00   0.03  -0.00    -0.14  -0.01   0.03     0.00  -0.04   0.00
   4   6     0.01  -0.22   0.02     0.05   0.01   0.01    -0.01   0.28  -0.03
   5   6    -0.12   0.06  -0.05    -0.02   0.08   0.02     0.15  -0.16  -0.01
   6   6     0.15   0.14   0.02    -0.28  -0.20  -0.08     0.04   0.14  -0.06
   7   6     0.02  -0.28   0.03     0.16   0.02  -0.01     0.02  -0.30   0.03
   8   6    -0.18   0.12  -0.05    -0.30   0.15  -0.12    -0.06   0.14   0.03
   9   6     0.12   0.08   0.03    -0.01  -0.08   0.04    -0.13  -0.17   0.05
  10   1    -0.01   0.00  -0.01    -0.04   0.03  -0.03     0.00  -0.00   0.01
  11   1     0.01   0.01   0.01    -0.03  -0.04  -0.02    -0.00  -0.01  -0.01
  12   1    -0.00   0.03  -0.00    -0.02  -0.00  -0.01    -0.00  -0.03   0.00
  13   1    -0.05  -0.01   0.01    -0.12  -0.01   0.06     0.04   0.00  -0.01
  14   1     0.05  -0.00  -0.01    -0.12   0.01   0.06    -0.04   0.00   0.01
  15   1    -0.05  -0.01   0.01     0.13   0.02  -0.05     0.06   0.01  -0.01
  16   1     0.06  -0.01  -0.01     0.13  -0.01  -0.05    -0.06   0.01   0.01
  17   1    -0.02   0.35  -0.04    -0.02  -0.01  -0.01     0.02  -0.48   0.05
  18   1    -0.04   0.02  -0.01     0.16  -0.04   0.01    -0.11   0.02  -0.02
  19   1     0.24  -0.12   0.09    -0.03  -0.01  -0.00    -0.19   0.17  -0.09
  20   1    -0.27  -0.20  -0.07     0.31   0.20   0.07    -0.10  -0.12  -0.03
  21   1    -0.02   0.01   0.01     0.28   0.19   0.06    -0.07   0.01   0.01
  22   1    -0.00   0.09  -0.01     0.05   0.00   0.09    -0.01   0.21  -0.02
  23   1    -0.02   0.42  -0.04    -0.02  -0.01  -0.01    -0.02   0.40  -0.04
  24   1     0.30  -0.15   0.10     0.33  -0.15   0.11     0.12  -0.11   0.06
  25   1     0.03   0.00  -0.01     0.30  -0.15   0.10     0.07   0.01  -0.01
  26   1     0.05   0.02   0.00     0.15   0.06   0.00     0.10   0.04   0.01
  27   1    -0.22  -0.16  -0.06    -0.02   0.01  -0.00     0.17   0.20   0.06
                     46                     47                     48
                        a                      a                      a 
 Frequencies --  1364.3176              1368.5791              1370.7961
 Red. masses --     4.1800                 3.9321                 3.4854
 Frc consts  --     0.0000                 0.0000                 0.0000
 IR Inten    --    84.4127                31.0793               158.5165
 Raman Activ --     0.0000                 0.0000                 0.0000
 Depolar     --     0.0000                 0.0000                 0.0000
 Atom AN      X      Y      Z        X      Y      Z        X      Y      Z
   1   7    -0.25  -0.02  -0.00    -0.06   0.00   0.11    -0.26  -0.02   0.04
   2   6    -0.03  -0.00   0.00     0.23  -0.00  -0.13     0.02  -0.01  -0.05
   3   6     0.09   0.01   0.03    -0.32  -0.00   0.16     0.09  -0.01  -0.14
   4   6    -0.26  -0.02  -0.02    -0.05  -0.01  -0.13     0.21   0.02   0.09
   5   6     0.22  -0.08   0.07     0.01  -0.02  -0.02    -0.15   0.06  -0.05
   6   6    -0.08  -0.01  -0.05     0.07   0.06   0.04     0.02  -0.02   0.02
   7   6     0.05  -0.00  -0.02    -0.04  -0.00   0.00    -0.01   0.00   0.01
   8   6    -0.08  -0.01  -0.05     0.08  -0.04   0.05     0.02   0.03   0.01
   9   6     0.21   0.11   0.05     0.01   0.01  -0.02    -0.14  -0.09  -0.03
  10   1     0.30  -0.05  -0.09     0.07   0.09  -0.19     0.37  -0.04  -0.14
  11   1     0.27   0.08  -0.08     0.07  -0.11  -0.16     0.32   0.07  -0.11
  12   1     0.29   0.06   0.16     0.15   0.03   0.09     0.34   0.09   0.19
  13   1     0.07   0.01  -0.03    -0.28   0.01   0.15    -0.09   0.03   0.08
  14   1     0.07  -0.00  -0.03    -0.29  -0.00   0.16    -0.10  -0.03   0.09
  15   1    -0.05  -0.01   0.03     0.35   0.04  -0.14    -0.17   0.00   0.08
  16   1    -0.05   0.01   0.03     0.35  -0.03  -0.13    -0.17  -0.01   0.08
  17   1     0.25   0.03   0.12     0.22   0.01   0.06    -0.31  -0.03  -0.12
  18   1    -0.16   0.09  -0.06    -0.07   0.02   0.00     0.14  -0.07   0.04
  19   1    -0.28   0.13  -0.10     0.07  -0.04   0.02     0.17  -0.07   0.06
  20   1     0.13   0.07   0.03    -0.11  -0.07  -0.02    -0.04  -0.01  -0.01
  21   1    -0.01   0.02   0.01    -0.07  -0.05  -0.02     0.04   0.01   0.01
  22   1     0.01   0.00   0.00    -0.01  -0.00  -0.02    -0.00   0.00   0.01
  23   1    -0.03  -0.00  -0.01     0.01   0.00   0.00     0.02   0.00   0.01
  24   1     0.13  -0.04   0.04    -0.12   0.05  -0.03    -0.04   0.01  -0.01
  25   1    -0.01  -0.02   0.01    -0.07   0.04  -0.03     0.04  -0.01   0.01
  26   1    -0.15  -0.11  -0.04    -0.06  -0.02   0.01     0.13   0.09   0.03
  27   1    -0.26  -0.17  -0.07     0.07   0.06   0.01     0.16   0.10   0.04
                     49                     50                     51
                        a                      a                      a 
 Frequencies --  1389.7165              1401.0215              1485.1276
 Red. masses --     1.5416                 1.8332                 1.8371
 Frc consts  --     0.0000                 0.0000                 0.0000
 IR Inten    --   120.6992                97.5416                 3.6846
 Raman Activ --     0.0000                 0.0000                 0.0000
 Depolar     --     0.0000                 0.0000                 0.0000
 Atom AN      X      Y      Z        X      Y      Z        X      Y      Z
   1   7     0.04  -0.19   0.01     0.06   0.02   0.17    -0.00  -0.00  -0.01
   2   6     0.00  -0.05   0.01    -0.10   0.01   0.12    -0.11  -0.03  -0.23
   3   6    -0.01  -0.00   0.01     0.09  -0.00  -0.06    -0.01   0.00   0.03
   4   6    -0.00   0.02  -0.01     0.00   0.00   0.03     0.02   0.00   0.00
   5   6     0.00  -0.01   0.00     0.00  -0.00   0.00     0.03   0.05  -0.03
   6   6    -0.00  -0.00  -0.00    -0.00  -0.01  -0.01     0.00  -0.01  -0.01
   7   6     0.00  -0.00   0.00     0.00   0.00  -0.00     0.01   0.00   0.01
   8   6     0.00  -0.00   0.00    -0.01   0.00  -0.01     0.00   0.00  -0.01
   9   6    -0.00  -0.00   0.00     0.00   0.00   0.00     0.04  -0.05  -0.02
  10   1     0.27   0.05  -0.31    -0.23   0.33  -0.51    -0.04   0.01  -0.01
  11   1    -0.34   0.10   0.35    -0.20  -0.44  -0.42    -0.04  -0.02  -0.01
  12   1    -0.08   0.71  -0.10     0.17   0.04   0.10    -0.02   0.00  -0.01
  13   1     0.05   0.00  -0.00     0.14  -0.02  -0.08     0.25   0.45   0.39
  14   1    -0.05   0.00  -0.01     0.13   0.02  -0.08     0.29  -0.33   0.47
  15   1     0.03  -0.00  -0.02    -0.07   0.00   0.04    -0.01  -0.04  -0.04
  16   1    -0.02  -0.00   0.01    -0.07  -0.00   0.04    -0.01   0.03  -0.05
  17   1     0.01  -0.01   0.00    -0.05  -0.00  -0.01     0.01   0.00   0.00
  18   1     0.00  -0.00  -0.00     0.01  -0.00  -0.00    -0.05  -0.03   0.14
  19   1    -0.01   0.01  -0.00    -0.02   0.01  -0.01    -0.08  -0.13  -0.02
  20   1     0.00   0.00   0.00     0.01   0.01   0.00     0.00   0.02  -0.00
  21   1     0.00   0.00   0.00     0.00   0.00   0.00    -0.00   0.01   0.01
  22   1    -0.00   0.00  -0.00     0.00   0.00   0.00    -0.00  -0.00  -0.02
  23   1    -0.00   0.00  -0.00     0.00  -0.00  -0.00    -0.02  -0.00  -0.00
  24   1    -0.00   0.00  -0.00     0.01  -0.01   0.00     0.00  -0.02   0.00
  25   1    -0.00   0.00  -0.00     0.00  -0.00   0.00    -0.00  -0.01   0.01
  26   1    -0.00  -0.00  -0.00     0.01   0.00  -0.00    -0.06   0.05   0.13
  27   1     0.01   0.01   0.00    -0.02  -0.02  -0.00    -0.09   0.11  -0.04
                     52                     53                     54
                        a                      a                      a 
 Frequencies --  1499.0399              1499.1517              1506.3749
 Red. masses --     1.9359                 1.9047                 1.9432
 Frc consts  --     0.0000                 0.0000                 0.0000
 IR Inten    --     3.9562                 0.0147                 0.0803
 Raman Activ --     0.0000                 0.0000                 0.0000
 Depolar     --     0.0000                 0.0000                 0.0000
 Atom AN      X      Y      Z        X      Y      Z        X      Y      Z
   1   7     0.00  -0.00  -0.01     0.00  -0.01  -0.00     0.00  -0.00  -0.00
   2   6    -0.05  -0.00  -0.01    -0.00   0.01  -0.00    -0.03  -0.01  -0.05
   3   6    -0.10  -0.03  -0.26    -0.01  -0.00  -0.02    -0.02  -0.00  -0.02
   4   6    -0.00   0.00  -0.01     0.00  -0.03   0.00    -0.03  -0.00  -0.01
   5   6     0.03   0.02  -0.01    -0.11  -0.12   0.09    -0.04  -0.09   0.06
   6   6     0.01  -0.01  -0.01    -0.04   0.04   0.03     0.02  -0.03  -0.02
   7   6     0.02   0.00   0.02    -0.00   0.02  -0.00    -0.14  -0.03  -0.17
   8   6     0.00   0.00  -0.00     0.04   0.04  -0.04     0.02   0.03  -0.02
   9   6     0.02  -0.00   0.00     0.13  -0.12  -0.07    -0.05   0.10   0.04
  10   1     0.00  -0.01   0.02    -0.00   0.00  -0.00    -0.01   0.00   0.00
  11   1    -0.00   0.01   0.02     0.00   0.00   0.00    -0.01  -0.00   0.00
  12   1    -0.00  -0.00  -0.00    -0.00   0.00  -0.00    -0.01   0.00  -0.00
  13   1     0.04   0.02  -0.01    -0.01   0.00   0.01     0.05   0.10   0.09
  14   1     0.04  -0.02  -0.00     0.02   0.00  -0.01     0.06  -0.07   0.11
  15   1     0.20   0.46   0.44     0.01   0.03   0.03     0.03   0.05   0.04
  16   1     0.24  -0.34   0.52     0.02  -0.02   0.03     0.04  -0.04   0.05
  17   1    -0.01  -0.00  -0.01    -0.00   0.01  -0.00     0.02   0.00   0.01
  18   1    -0.06  -0.01   0.07     0.19   0.08  -0.40     0.10   0.06  -0.24
  19   1    -0.04  -0.08  -0.01     0.21   0.39   0.04     0.10   0.25   0.02
  20   1    -0.01   0.03  -0.01     0.08  -0.13   0.05    -0.06   0.08  -0.03
  21   1    -0.02   0.01   0.03     0.07  -0.07  -0.14    -0.06   0.03   0.08
  22   1    -0.00  -0.00  -0.05     0.00  -0.01  -0.00     0.03   0.06   0.52
  23   1    -0.05  -0.00  -0.01    -0.00  -0.01   0.00     0.50   0.04   0.11
  24   1    -0.00  -0.01   0.00    -0.07  -0.15  -0.02    -0.05  -0.09  -0.01
  25   1    -0.01  -0.00   0.01    -0.07  -0.04   0.15    -0.06  -0.02   0.09
  26   1    -0.03  -0.00   0.02    -0.20   0.14   0.38     0.10  -0.09  -0.23
  27   1    -0.02   0.03  -0.01    -0.25   0.36  -0.12     0.13  -0.23   0.07
                     55                     56                     57
                        a                      a                      a 
 Frequencies --  1509.8978              1511.4241              1521.9463
 Red. masses --     1.9830                 1.8913                 1.9975
 Frc consts  --     0.0000                 0.0000                 0.0000
 IR Inten    --     0.2028                 1.0738                 0.3025
 Raman Activ --     0.0000                 0.0000                 0.0000
 Depolar     --     0.0000                 0.0000                 0.0000
 Atom AN      X      Y      Z        X      Y      Z        X      Y      Z
   1   7    -0.00   0.00  -0.00     0.00  -0.00  -0.00     0.00   0.00   0.00
   2   6    -0.00  -0.00  -0.00    -0.03  -0.01  -0.05     0.01   0.00   0.03
   3   6    -0.00   0.00  -0.00    -0.01  -0.00  -0.02     0.00  -0.00  -0.01
   4   6     0.00  -0.02   0.00    -0.01  -0.00   0.00     0.02   0.00   0.01
   5   6     0.04   0.06  -0.03    -0.06  -0.08   0.06     0.05   0.07  -0.05
   6   6    -0.13   0.14   0.06    -0.08   0.10   0.05    -0.08   0.11   0.04
   7   6     0.00  -0.01   0.00     0.04   0.01   0.07    -0.12  -0.02  -0.12
   8   6     0.11   0.13  -0.08    -0.07  -0.10   0.08    -0.07  -0.11   0.06
   9   6    -0.05   0.06   0.02    -0.07   0.08   0.05     0.06  -0.07  -0.03
  10   1     0.00   0.00   0.00    -0.01   0.00  -0.00     0.01  -0.00   0.00
  11   1    -0.00  -0.00  -0.00    -0.01  -0.00  -0.00     0.01   0.00   0.00
  12   1    -0.00   0.00  -0.00    -0.00  -0.00  -0.00     0.00  -0.00   0.00
  13   1     0.01   0.00  -0.00     0.05   0.10   0.09    -0.02  -0.06  -0.05
  14   1    -0.00  -0.00   0.01     0.06  -0.07   0.11    -0.03   0.04  -0.06
  15   1    -0.00  -0.00   0.00     0.02   0.04   0.03    -0.01   0.01   0.01
  16   1     0.00  -0.00   0.00     0.02  -0.03   0.04    -0.00  -0.01   0.01
  17   1    -0.00   0.02  -0.00    -0.01  -0.00  -0.00    -0.03  -0.00  -0.01
  18   1    -0.07  -0.02   0.14     0.11   0.06  -0.25    -0.10  -0.04   0.20
  19   1    -0.08  -0.14  -0.01     0.12   0.26   0.02    -0.10  -0.21  -0.02
  20   1     0.24  -0.36   0.14     0.17  -0.27   0.10     0.16  -0.26   0.09
  21   1     0.21  -0.15  -0.37     0.15  -0.12  -0.28     0.13  -0.11  -0.26
  22   1    -0.00   0.03  -0.01    -0.02  -0.02  -0.20     0.01   0.04   0.38
  23   1    -0.00   0.01  -0.00    -0.19  -0.01  -0.04     0.37   0.03   0.08
  24   1    -0.19  -0.39  -0.05     0.14   0.32   0.04     0.13   0.28   0.03
  25   1    -0.19  -0.09   0.38     0.14   0.08  -0.31     0.12   0.07  -0.28
  26   1     0.08  -0.05  -0.14     0.12  -0.10  -0.23    -0.11   0.07   0.19
  27   1     0.10  -0.14   0.05     0.14  -0.23   0.07    -0.12   0.19  -0.06
                     58                     59                     60
                        a                      a                      a 
 Frequencies --  2864.9908              2904.2024              2905.0365
 Red. masses --     1.7476                 1.9354                 1.9204
 Frc consts  --     0.0000                 0.0000                 0.0000
 IR Inten    --    66.2604                90.0673                92.3363
 Raman Activ --     0.0000                 0.0000                 0.0000
 Depolar     --     0.0000                 0.0000                 0.0000
 Atom AN      X      Y      Z        X      Y      Z        X      Y      Z
   1   7    -0.00   0.00   0.00     0.00  -0.00   0.00    -0.00  -0.00  -0.00
   2   6    -0.00  -0.00  -0.00     0.00  -0.00   0.00    -0.00  -0.00  -0.00
   3   6    -0.01  -0.00   0.00    -0.00   0.00  -0.00    -0.00  -0.00  -0.00
   4   6    -0.10   0.02   0.24     0.00  -0.00   0.00     0.00  -0.00  -0.00
   5   6    -0.00  -0.01  -0.00    -0.01  -0.00   0.00    -0.00  -0.01  -0.01
   6   6     0.00   0.00  -0.01    -0.04   0.11  -0.18    -0.01   0.04  -0.09
   7   6    -0.00   0.00   0.00     0.00   0.01  -0.00    -0.21   0.00   0.13
   8   6     0.00  -0.00  -0.01     0.02   0.13   0.14    -0.01  -0.06  -0.08
   9   6    -0.00   0.01  -0.01     0.01  -0.00  -0.00    -0.00   0.01  -0.01
  10   1     0.00  -0.00  -0.00    -0.00   0.00   0.00     0.00   0.00  -0.00
  11   1     0.00   0.00  -0.00    -0.00   0.00  -0.00     0.00  -0.00  -0.00
  12   1    -0.00   0.00   0.00     0.00  -0.00  -0.00    -0.00   0.00   0.00
  13   1     0.00  -0.00   0.00    -0.00   0.00  -0.00     0.00  -0.00   0.00
  14   1     0.00   0.00   0.00     0.00   0.00   0.00     0.00   0.00   0.00
  15   1     0.01  -0.02   0.01     0.00  -0.00   0.00     0.00  -0.00   0.00
  16   1     0.00   0.02   0.01    -0.00  -0.00  -0.00     0.00   0.00   0.00
  17   1     0.35  -0.08  -0.89    -0.00  -0.00   0.00    -0.01   0.00   0.02
  18   1     0.01   0.03   0.01     0.01   0.02   0.01     0.01   0.03   0.01
  19   1    -0.01  -0.00   0.04     0.01  -0.00  -0.04     0.00  -0.00  -0.00
  20   1    -0.00   0.00   0.01    -0.12   0.06   0.32    -0.07   0.04   0.20
  21   1     0.00  -0.01   0.00     0.25  -0.46   0.33     0.10  -0.18   0.12
  22   1     0.00   0.00   0.00    -0.01   0.00   0.00     0.69   0.03  -0.03
  23   1     0.00  -0.00  -0.01     0.00  -0.00  -0.00     0.08  -0.04  -0.45
  24   1    -0.00   0.00   0.01     0.11   0.01  -0.30    -0.07  -0.00   0.22
  25   1     0.00   0.01   0.00    -0.18  -0.49  -0.20     0.08   0.23   0.09
  26   1     0.02  -0.03   0.02    -0.01   0.02  -0.02     0.01  -0.03   0.02
  27   1    -0.01   0.01   0.03    -0.01   0.00   0.03     0.00   0.00  -0.01
                     61                     62                     63
                        a                      a                      a 
 Frequencies --  2907.1176              2919.7103              2923.1890
 Red. masses --     1.8933                 1.9163                 1.8845
 Frc consts  --     0.0000                 0.0000                 0.0000
 IR Inten    --    79.7375                70.2163                71.3099
 Raman Activ --     0.0000                 0.0000                 0.0000
 Depolar     --     0.0000                 0.0000                 0.0000
 Atom AN      X      Y      Z        X      Y      Z        X      Y      Z
   1   7     0.00  -0.00  -0.00     0.00   0.00   0.00    -0.00   0.00  -0.00
   2   6     0.00   0.00   0.00     0.00  -0.01   0.00    -0.00  -0.00  -0.00
   3   6    -0.00   0.00  -0.00    -0.00   0.02  -0.00    -0.00   0.00  -0.00
   4   6     0.00  -0.00  -0.00     0.00  -0.01  -0.00    -0.00   0.00   0.02
   5   6     0.00  -0.01  -0.01    -0.03  -0.18  -0.16     0.02   0.11   0.10
   6   6     0.03  -0.09   0.13    -0.01   0.01   0.01     0.01  -0.01  -0.01
   7   6    -0.13  -0.00   0.05     0.00   0.00  -0.00    -0.01  -0.00  -0.00
   8   6     0.02   0.13   0.12     0.01   0.00  -0.01     0.02   0.02  -0.01
   9   6     0.00   0.01  -0.02     0.03  -0.09   0.13     0.05  -0.13   0.19
  10   1     0.00   0.00   0.00     0.00  -0.00  -0.00    -0.00  -0.00  -0.00
  11   1     0.00  -0.00   0.00     0.00  -0.00   0.00    -0.00   0.00  -0.00
  12   1    -0.00   0.00   0.00     0.00  -0.00  -0.00     0.00  -0.00   0.00
  13   1    -0.00   0.00  -0.00    -0.00   0.01  -0.01     0.00  -0.00   0.00
  14   1    -0.00  -0.00  -0.00     0.00   0.01   0.01     0.00   0.01   0.01
  15   1     0.00  -0.00   0.00     0.01  -0.02   0.02     0.00  -0.01   0.01
  16   1     0.00   0.00   0.00    -0.01  -0.03  -0.02    -0.00  -0.00  -0.00
  17   1     0.00  -0.00  -0.01    -0.01   0.00   0.01     0.02  -0.00  -0.06
  18   1     0.01   0.03   0.01     0.23   0.63   0.24    -0.15  -0.42  -0.16
  19   1    -0.02   0.00   0.06    -0.12   0.00   0.32     0.07   0.00  -0.19
  20   1     0.08  -0.05  -0.21     0.03  -0.01  -0.10    -0.02   0.01   0.08
  21   1    -0.20   0.38  -0.27     0.02  -0.04   0.03    -0.03   0.05  -0.04
  22   1     0.46   0.02  -0.03    -0.01  -0.00   0.00     0.06   0.00  -0.00
  23   1     0.01  -0.01  -0.12     0.00   0.00   0.00    -0.00  -0.00  -0.00
  24   1     0.09   0.01  -0.25    -0.02   0.00   0.06    -0.04   0.01   0.11
  25   1    -0.17  -0.49  -0.20    -0.01  -0.02  -0.01    -0.03  -0.08  -0.04
  26   1     0.01  -0.02   0.01    -0.19   0.35  -0.24    -0.29   0.54  -0.37
  27   1    -0.02   0.01   0.06     0.08  -0.03  -0.22     0.12  -0.05  -0.31
                     64                     65                     66
                        a                      a                      a 
 Frequencies --  2941.1854              2945.1103              2945.2859
 Red. masses --     1.9433                 1.5448                 1.5805
 Frc consts  --     0.0000                 0.0000                 0.0000
 IR Inten    --    32.6000               110.2065               163.2317
 Raman Activ --     0.0000                 0.0000                 0.0000
 Depolar     --     0.0000                 0.0000                 0.0000
 Atom AN      X      Y      Z        X      Y      Z        X      Y      Z
   1   7    -0.00  -0.00  -0.00     0.00   0.00  -0.00     0.00  -0.00  -0.00
   2   6     0.00  -0.05   0.00    -0.00   0.00  -0.00    -0.00  -0.00  -0.00
   3   6    -0.01   0.28  -0.03     0.00  -0.02   0.00    -0.00   0.00  -0.00
   4   6    -0.00   0.01  -0.00     0.00  -0.00   0.00     0.00   0.00   0.00
   5   6    -0.00   0.00   0.01     0.00  -0.02  -0.02     0.01   0.02   0.00
   6   6     0.01  -0.01  -0.01     0.08  -0.08  -0.09    -0.03   0.03   0.07
   7   6    -0.00  -0.00   0.00     0.01  -0.00   0.02     0.05   0.02   0.20
   8   6    -0.01  -0.01   0.01    -0.08  -0.07   0.12    -0.01  -0.00   0.05
   9   6     0.00   0.00  -0.01     0.00  -0.02   0.03     0.01  -0.01   0.00
  10   1    -0.00  -0.00  -0.00     0.00  -0.00   0.00    -0.00   0.00   0.00
  11   1     0.00  -0.00   0.00    -0.00   0.00  -0.00    -0.00  -0.00   0.00
  12   1    -0.00   0.00   0.00    -0.00  -0.00   0.00    -0.00   0.00   0.00
  13   1    -0.04   0.09  -0.08     0.00  -0.00   0.00     0.00   0.00   0.00
  14   1     0.03   0.11   0.06    -0.00  -0.00  -0.00     0.00   0.00   0.00
  15   1     0.22  -0.47   0.41    -0.02   0.04  -0.03     0.00  -0.00   0.00
  16   1    -0.17  -0.56  -0.31     0.01   0.04   0.02    -0.00  -0.00  -0.00
  17   1     0.00  -0.00   0.00     0.00  -0.00  -0.00     0.00  -0.00  -0.00
  18   1    -0.00  -0.01  -0.00     0.02   0.06   0.02    -0.03  -0.08  -0.03
  19   1     0.01  -0.00  -0.04    -0.01   0.00   0.04    -0.01   0.01   0.03
  20   1    -0.01   0.00   0.04    -0.17   0.06   0.53     0.10  -0.03  -0.31
  21   1    -0.01   0.02  -0.02    -0.12   0.24  -0.20     0.03  -0.06   0.06
  22   1     0.00  -0.00   0.00    -0.05  -0.00   0.01    -0.39  -0.01   0.06
  23   1     0.00  -0.00  -0.00     0.03  -0.01  -0.09     0.21  -0.07  -0.76
  24   1     0.01  -0.00  -0.05     0.18  -0.04  -0.58     0.06  -0.01  -0.17
  25   1     0.01   0.03   0.02     0.09   0.29   0.16     0.00   0.01   0.01
  26   1     0.01  -0.01   0.01    -0.04   0.07  -0.05    -0.03   0.05  -0.04
  27   1    -0.01   0.00   0.04     0.01  -0.01  -0.04    -0.01   0.00   0.04
                     67                     68                     69
                        a                      a                      a 
 Frequencies --  2948.6448              2959.5346              2961.9906
 Red. masses --     1.5306                 1.5477                 1.5471
 Frc consts  --     0.0000                 0.0000                 0.0000
 IR Inten    --   158.7255                57.7830               120.1528
 Raman Activ --     0.0000                 0.0000                 0.0000
 Depolar     --     0.0000                 0.0000                 0.0000
 Atom AN      X      Y      Z        X      Y      Z        X      Y      Z
   1   7    -0.00   0.00   0.00    -0.00   0.00  -0.00     0.00   0.00   0.00
   2   6    -0.00  -0.00  -0.00    -0.00   0.04  -0.01     0.01   0.01   0.01
   3   6    -0.00  -0.00  -0.01     0.00  -0.00   0.00    -0.01  -0.00  -0.01
   4   6    -0.00   0.00   0.01    -0.00  -0.01   0.00     0.01  -0.00  -0.01
   5   6    -0.00   0.02   0.03    -0.08  -0.06   0.14     0.06   0.04  -0.11
   6   6    -0.08   0.08   0.08    -0.00  -0.01   0.02    -0.00   0.01  -0.01
   7   6    -0.06  -0.01  -0.05     0.00   0.00   0.00    -0.01  -0.00  -0.02
   8   6    -0.07  -0.07   0.10     0.00  -0.01  -0.01    -0.00  -0.02  -0.01
   9   6    -0.00  -0.01   0.04     0.07  -0.06  -0.09     0.09  -0.08  -0.13
  10   1     0.00  -0.00  -0.00     0.00   0.00   0.00     0.00   0.00   0.00
  11   1    -0.00   0.00  -0.00    -0.00   0.00  -0.00     0.00  -0.00  -0.00
  12   1     0.00   0.00   0.00     0.00  -0.00  -0.00     0.00  -0.00   0.00
  13   1     0.00  -0.00   0.00     0.03  -0.07   0.05    -0.01   0.02  -0.02
  14   1     0.00   0.00   0.00    -0.02  -0.07  -0.04    -0.01  -0.05  -0.02
  15   1     0.01  -0.02   0.01    -0.01   0.01  -0.01     0.01  -0.03   0.02
  16   1     0.00   0.02   0.01     0.00   0.01   0.01     0.01   0.04   0.01
  17   1     0.01  -0.00  -0.02     0.00  -0.00  -0.00    -0.01   0.00   0.02
  18   1    -0.02  -0.06  -0.02     0.10   0.30   0.15    -0.07  -0.21  -0.11
  19   1     0.03  -0.00  -0.08     0.20  -0.07  -0.66    -0.15   0.05   0.49
  20   1     0.16  -0.05  -0.50     0.01  -0.00  -0.02    -0.00   0.00   0.00
  21   1     0.12  -0.24   0.20    -0.02   0.03  -0.02     0.02  -0.04   0.03
  22   1     0.28   0.01  -0.03    -0.01  -0.00   0.00     0.05   0.00  -0.01
  23   1    -0.07   0.02   0.24     0.00  -0.00  -0.02    -0.02   0.01   0.09
  24   1     0.16  -0.04  -0.51    -0.00   0.00   0.02    -0.00  -0.00   0.01
  25   1     0.09   0.29   0.15     0.01   0.02   0.01     0.02   0.06   0.03
  26   1    -0.03   0.06  -0.04    -0.10   0.19  -0.16    -0.12   0.25  -0.20
  27   1     0.03  -0.01  -0.09    -0.15   0.03   0.48    -0.20   0.05   0.66
                     70                     71                     72
                        a                      a                      a 
 Frequencies --  2970.7519              2976.0782              2998.9648
 Red. masses --     1.4956                 1.9851                 1.5215
 Frc consts  --     0.0000                 0.0000                 0.0000
 IR Inten    --    41.6511                18.8574                25.0491
 Raman Activ --     0.0000                 0.0000                 0.0000
 Depolar     --     0.0000                 0.0000                 0.0000
 Atom AN      X      Y      Z        X      Y      Z        X      Y      Z
   1   7    -0.00  -0.00  -0.00     0.00  -0.00   0.00     0.00  -0.00  -0.00
   2   6    -0.01  -0.01  -0.03    -0.01   0.29  -0.03     0.10   0.02   0.19
   3   6     0.10   0.02   0.18    -0.00   0.06  -0.00     0.02   0.00   0.04
   4   6     0.00   0.00   0.01    -0.00   0.00   0.00    -0.00   0.00   0.01
   5   6     0.00   0.00  -0.01     0.01   0.00  -0.02    -0.00  -0.00   0.01
   6   6    -0.00   0.00   0.00     0.00   0.00  -0.00    -0.00   0.00   0.00
   7   6    -0.00  -0.00  -0.00    -0.00  -0.00   0.00    -0.00   0.00   0.00
   8   6    -0.00  -0.00   0.00    -0.00   0.00   0.00    -0.00  -0.00   0.00
   9   6     0.01  -0.01  -0.01    -0.01   0.01   0.02    -0.00   0.00   0.01
  10   1    -0.00  -0.00   0.00     0.00   0.01   0.01     0.01   0.02   0.01
  11   1    -0.00   0.00  -0.00    -0.01   0.01  -0.01     0.01  -0.01   0.01
  12   1    -0.00   0.00   0.01     0.00  -0.00  -0.00     0.00   0.00   0.00
  13   1     0.03  -0.08   0.06     0.21  -0.46   0.40    -0.21   0.53  -0.40
  14   1     0.03   0.11   0.05    -0.16  -0.57  -0.31    -0.14  -0.59  -0.27
  15   1    -0.21   0.52  -0.39     0.04  -0.08   0.07    -0.04   0.09  -0.07
  16   1    -0.15  -0.60  -0.27    -0.03  -0.12  -0.06    -0.03  -0.10  -0.05
  17   1     0.01  -0.00  -0.03     0.00   0.00  -0.00     0.00  -0.00  -0.01
  18   1    -0.01  -0.02  -0.01    -0.01  -0.02  -0.01     0.00   0.00   0.00
  19   1    -0.01   0.00   0.03    -0.02   0.01   0.07     0.01  -0.00  -0.04
  20   1     0.00  -0.00  -0.01    -0.00   0.00   0.01     0.00  -0.00  -0.00
  21   1     0.00  -0.01   0.01     0.00  -0.00   0.00     0.00  -0.00   0.00
  22   1     0.01   0.00  -0.00     0.00   0.00  -0.00     0.00   0.00  -0.00
  23   1    -0.00   0.00   0.01    -0.00   0.00  -0.00     0.00  -0.00  -0.00
  24   1     0.00  -0.00  -0.01     0.00  -0.00  -0.01     0.00  -0.00  -0.00
  25   1     0.00   0.01   0.01    -0.00  -0.00  -0.00     0.00   0.00   0.00
  26   1    -0.01   0.02  -0.02     0.01  -0.02   0.02     0.00  -0.00   0.00
  27   1    -0.01   0.00   0.04     0.03  -0.01  -0.08     0.01  -0.01  -0.04
                     73                     74                     75
                        a                      a                      a 
 Frequencies --  3274.1685              3281.0170              3303.2231
 Red. masses --     2.0431                 2.0520                 1.2926
 Frc consts  --     0.0000                 0.0000                 0.0000
 IR Inten    --   196.0632               168.2490                57.7740
 Raman Activ --     0.0000                 0.0000                 0.0000
 Depolar     --     0.0000                 0.0000                 0.0000
 Atom AN      X      Y      Z        X      Y      Z        X      Y      Z
   1   7    -0.05   0.01   0.28    -0.02   0.28  -0.02    -0.14  -0.02  -0.05
   2   6     0.00   0.00   0.01    -0.00   0.01  -0.00    -0.01  -0.00  -0.00
   3   6     0.00   0.00   0.00     0.00  -0.00   0.00     0.00   0.00   0.00
   4   6     0.00   0.00   0.00    -0.00   0.00   0.00     0.00   0.00   0.00
   5   6     0.00   0.00   0.00     0.00   0.00  -0.00     0.00   0.00  -0.00
   6   6     0.00  -0.00   0.00     0.00   0.00  -0.00    -0.00   0.00   0.00
   7   6    -0.00   0.00   0.00    -0.00   0.00  -0.00    -0.00  -0.00  -0.00
   8   6     0.00   0.00   0.00    -0.00   0.00   0.00    -0.00  -0.00   0.00
   9   6     0.00  -0.00  -0.00    -0.00   0.00   0.00     0.00  -0.00  -0.00
  10   1    -0.07  -0.25  -0.10    -0.16  -0.58  -0.29     0.15   0.57   0.27
  11   1    -0.12   0.26  -0.18     0.23  -0.50   0.41     0.19  -0.45   0.35
  12   1     0.39  -0.06  -0.76     0.02   0.02  -0.05     0.19  -0.03  -0.41
  13   1    -0.00   0.01  -0.01     0.00  -0.01   0.01     0.01  -0.01   0.01
  14   1    -0.00  -0.01  -0.00    -0.00  -0.01  -0.01     0.00   0.01   0.01
  15   1    -0.00   0.00  -0.00    -0.00   0.00  -0.00    -0.00   0.00  -0.00
  16   1    -0.00  -0.00  -0.00     0.00   0.00  -0.00    -0.00  -0.00  -0.00
  17   1     0.00  -0.00  -0.00     0.00  -0.00  -0.00     0.00  -0.00  -0.00
  18   1    -0.00  -0.00   0.00    -0.00  -0.00  -0.00    -0.00  -0.00  -0.00
  19   1    -0.00   0.00  -0.00    -0.00   0.00   0.00    -0.00   0.00   0.00
  20   1     0.00  -0.00  -0.00    -0.00  -0.00   0.00     0.00  -0.00  -0.00
  21   1    -0.00   0.00  -0.00     0.00  -0.00   0.00     0.00  -0.00   0.00
  22   1     0.00  -0.00  -0.00     0.00  -0.00   0.00     0.00   0.00  -0.00
  23   1     0.00  -0.00  -0.00    -0.00  -0.00   0.00    -0.00   0.00   0.00
  24   1     0.00   0.00  -0.00     0.00  -0.00  -0.00     0.00  -0.00  -0.00
  25   1    -0.00  -0.00  -0.00     0.00  -0.00  -0.00     0.00   0.00   0.00
  26   1    -0.00   0.00   0.00     0.00  -0.00   0.00    -0.00   0.00  -0.00
  27   1    -0.00  -0.00   0.00     0.00   0.00  -0.00    -0.00   0.00   0.00
