 Entering Gaussian System
 *********************************************
 Gaussian 98:
 frequency output generated by the xtb code
 *********************************************
                         Standard orientation:
 --------------------------------------------------------------------
  Center     Atomic     Atomic              Coordinates (Angstroms)
  Number     Number      Type              X           Y           Z
 --------------------------------------------------------------------
    1          7             0       -5.680135   -1.275929    0.548412
    2          6             0       -4.778170   -1.417796   -0.629591
    3          6             0       -4.461395   -0.084639   -1.299744
    4          6             0       -3.714187    0.906589   -0.404409
    5          6             0       -2.325338    0.429242    0.024297
    6          6             0       -1.564019    1.470670    0.846443
    7          6             0       -0.198900    0.989053    1.347049
    8          6             0        0.820785    0.747986    0.232716
    9          6             0        2.195315    0.331160    0.758822
   10          6             0        3.219910    0.092853   -0.351211
   11          6             0        4.594149   -0.322564    0.176545
   12          6             0        5.620784   -0.558641   -0.932879
   13          6             0        6.985934   -0.968267   -0.402303
   14          1             0       -5.929949   -2.192057    0.952395
   15          1             0       -6.558824   -0.805365    0.285164
   16          1             0       -5.243690   -0.718990    1.298020
   17          1             0       -5.245596   -2.098665   -1.352748
   18          1             0       -3.852032   -1.916021   -0.321683
   19          1             0       -5.400034    0.366785   -1.644152
   20          1             0       -3.873599   -0.257594   -2.209746
   21          1             0       -4.314353    1.129714    0.484593
   22          1             0       -3.612834    1.868377   -0.922811
   23          1             0       -1.745072    0.159308   -0.864894
   24          1             0       -2.411521   -0.496376    0.603959
   25          1             0       -2.186395    1.772835    1.697925
   26          1             0       -1.434127    2.381718    0.250951
   27          1             0       -0.326723    0.069235    1.929341
   28          1             0        0.215696    1.718833    2.053636
   29          1             0        0.920897    1.654905   -0.374716
   30          1             0        0.448288   -0.018303   -0.455902
   31          1             0        2.095962   -0.575089    1.367484
   32          1             0        2.572371    1.096579    1.447039
   33          1             0        3.319232    0.999321   -0.959473
   34          1             0        2.844153   -0.672937   -1.039549
   35          1             0        4.495477   -1.229722    0.783997
   36          1             0        4.969176    0.442676    0.866062
   37          1             0        5.711807    0.350177   -1.541051
   38          1             0        5.240408   -1.323900   -1.621226
   39          1             0        7.400321   -0.202788    0.256085
   40          1             0        7.705691   -1.132553   -1.206965
   41          1             0        6.924761   -1.892016    0.175699
 --------------------------------------------------------------------
     1 basis functions        1 primitive gaussians
     1 alpha electrons        1 beta electrons

 Harmonic frequencies (cm**-1), IR intensities (km*mol⁻¹),
 Raman scattering activities (A**4/amu), Raman depolarization ratios,
 reduced masses (AMU), force constants (mDyne/A) and normal coordinates:
                      1                      2                      3
                        a                      a                      a 
 Frequencies --    36.5146                59.2824                64.5765
 Red. masses --    10.2814                 9.6194                 8.7990
 Frc consts  --     0.0000                 0.0000                 0.0000
 IR Inten    --    10.8665                12.5063                 7.4244
 Raman Activ --     0.0000                 0.0000                 0.0000
 Depolar     --     0.0000                 0.0000                 0.0000
 Atom AN      X      Y      Z        X      Y      Z        X      Y      Z
   1   7    -0.34   0.25   0.09     0.44   0.05   0.16     0.20  -0.33   0.15
   2   6    -0.29   0.11   0.11     0.14   0.07  -0.06     0.02   0.02  -0.03
   3   6    -0.16   0.05   0.06     0.01   0.09  -0.08    -0.24   0.17   0.16
   4   6    -0.02  -0.01   0.01    -0.00   0.13  -0.12    -0.17   0.08   0.19
   5   6    -0.01  -0.09  -0.11    -0.05   0.08  -0.01    -0.02   0.16  -0.19
   6   6     0.06  -0.16  -0.08    -0.02   0.08  -0.04     0.01   0.08  -0.12
   7   6     0.04  -0.23  -0.10    -0.07  -0.01   0.02     0.01   0.02  -0.18
   8   6     0.04  -0.23  -0.10    -0.12  -0.28   0.04     0.01   0.07  -0.19
   9   6     0.05  -0.17  -0.07    -0.11  -0.24   0.05    -0.04  -0.09  -0.16
  10   6     0.11  -0.09  -0.04    -0.15  -0.31   0.04     0.06   0.04  -0.09
  11   6     0.13   0.05   0.02    -0.07  -0.08   0.02    -0.02  -0.11   0.02
  12   6     0.20   0.16   0.06    -0.07   0.03  -0.01     0.13   0.04   0.13
  13   6     0.22   0.29   0.12     0.03   0.35  -0.03     0.03  -0.10   0.26
  14   1    -0.12   0.08   0.03     0.14   0.01   0.05     0.11  -0.12   0.01
  15   1    -0.08   0.09   0.01     0.10   0.02   0.10     0.02  -0.11   0.10
  16   1    -0.08   0.06   0.02     0.17   0.01   0.02     0.06  -0.10   0.04
  17   1    -0.10   0.03   0.04    -0.01   0.03   0.01    -0.00   0.02  -0.02
  18   1    -0.10   0.01   0.05     0.06   0.02  -0.08     0.04   0.02  -0.07
  19   1    -0.03   0.04   0.02    -0.01   0.01  -0.01    -0.10   0.04   0.12
  20   1    -0.06  -0.01   0.01    -0.01   0.03  -0.03    -0.11   0.11   0.01
  21   1     0.02   0.00   0.02    -0.01   0.07  -0.05    -0.00  -0.05   0.11
  22   1    -0.00  -0.00   0.00     0.02   0.02  -0.05    -0.11   0.06   0.10
  23   1    -0.02  -0.01  -0.05    -0.01  -0.00   0.01    -0.05   0.12  -0.10
  24   1    -0.00  -0.04  -0.05    -0.04   0.04   0.02     0.06   0.01  -0.10
  25   1     0.02  -0.05  -0.02    -0.01   0.05  -0.02     0.01   0.00  -0.02
  26   1     0.03  -0.04  -0.01     0.02   0.01  -0.03     0.00   0.04  -0.01
  27   1     0.00  -0.07  -0.04    -0.05   0.03   0.05    -0.00  -0.01  -0.07
  28   1     0.02  -0.07  -0.02     0.01   0.01  -0.02     0.01  -0.01  -0.04
  29   1     0.00  -0.07  -0.03    -0.03  -0.11  -0.04     0.03   0.04  -0.02
  30   1     0.02  -0.08  -0.02    -0.05  -0.11   0.06    -0.01   0.05  -0.08
  31   1     0.03  -0.05  -0.03    -0.03  -0.05   0.04    -0.04  -0.05  -0.09
  32   1    -0.00  -0.04  -0.01    -0.03  -0.05  -0.01    -0.02  -0.06  -0.00
  33   1     0.01  -0.02  -0.01    -0.08  -0.11  -0.03     0.05   0.04   0.02
  34   1     0.06  -0.04  -0.01    -0.03  -0.13   0.05     0.03   0.05  -0.07
  35   1     0.06   0.01   0.01     0.03  -0.02   0.02    -0.04  -0.06  -0.04
  36   1     0.01   0.03   0.01    -0.05   0.00  -0.01    -0.02  -0.07   0.06
  37   1     0.04   0.05   0.02    -0.08   0.00  -0.02     0.07   0.04   0.08
  38   1     0.09   0.03   0.01     0.01  -0.03   0.02     0.06   0.05  -0.02
  39   1     0.04   0.10   0.03    -0.02   0.14  -0.04    -0.01  -0.06   0.13
  40   1     0.08   0.10   0.04     0.01   0.11  -0.02     0.04   0.00   0.09
  41   1     0.08   0.09   0.04     0.07   0.11   0.02    -0.02  -0.05   0.03
                      4                      5                      6
                        a                      a                      a 
 Frequencies --    74.2574                88.2864                92.8273
 Red. masses --     8.7196                 6.6785                 8.3631
 Frc consts  --     0.0000                 0.0000                 0.0000
 IR Inten    --    12.4099                 1.1494                 1.4696
 Raman Activ --     0.0000                 0.0000                 0.0000
 Depolar     --     0.0000                 0.0000                 0.0000
 Atom AN      X      Y      Z        X      Y      Z        X      Y      Z
   1   7    -0.31  -0.25  -0.31    -0.15   0.07  -0.03     0.11   0.08  -0.03
   2   6     0.08  -0.02  -0.03     0.08  -0.07   0.16    -0.01   0.03  -0.10
   3   6     0.05   0.06   0.13     0.13  -0.16   0.00     0.07   0.04  -0.05
   4   6    -0.05   0.02   0.27     0.04  -0.03  -0.07    -0.01   0.00   0.05
   5   6     0.02   0.11   0.15     0.03   0.05   0.05    -0.22  -0.21   0.51
   6   6     0.08   0.20  -0.01     0.03   0.15  -0.08    -0.02  -0.05   0.11
   7   6     0.09   0.24  -0.02     0.01   0.17  -0.01     0.06   0.01  -0.06
   8   6    -0.00  -0.07  -0.04     0.04   0.13   0.02    -0.04   0.06  -0.17
   9   6     0.02  -0.01  -0.04    -0.10  -0.30   0.03    -0.03  -0.01  -0.25
  10   6    -0.05  -0.27  -0.04    -0.02  -0.03   0.04     0.00   0.03  -0.23
  11   6     0.01  -0.05  -0.02    -0.10  -0.35  -0.01    -0.05   0.00  -0.11
  12   6    -0.00  -0.14  -0.02     0.03   0.26  -0.01     0.11   0.01   0.04
  13   6     0.08   0.19   0.02     0.00   0.09  -0.07     0.02   0.00   0.27
  14   1    -0.06  -0.08  -0.11    -0.05   0.03   0.02     0.00   0.02  -0.02
  15   1    -0.09  -0.11  -0.15    -0.03  -0.00  -0.07     0.04   0.06   0.02
  16   1    -0.18  -0.05  -0.04    -0.08   0.05  -0.01     0.07  -0.01  -0.01
  17   1     0.11  -0.02  -0.06     0.07  -0.06   0.05    -0.04   0.03  -0.03
  18   1     0.02   0.03   0.06     0.02   0.01   0.11    -0.01  -0.02  -0.06
  19   1     0.01   0.01   0.03     0.04  -0.06  -0.04     0.03   0.02  -0.04
  20   1     0.03   0.05   0.04     0.06  -0.08   0.02     0.04   0.01   0.00
  21   1    -0.01  -0.05   0.09    -0.00   0.02  -0.04    -0.07   0.07  -0.05
  22   1    -0.05   0.03   0.11     0.01  -0.02  -0.05     0.10  -0.02  -0.01
  23   1    -0.02   0.02   0.03     0.01  -0.02   0.03    -0.05  -0.23   0.21
  24   1     0.03   0.04   0.07     0.00   0.04   0.05    -0.17   0.03   0.27
  25   1     0.04   0.09  -0.01     0.01   0.08  -0.04     0.05   0.06   0.04
  26   1     0.02   0.04  -0.04     0.02   0.02  -0.06    -0.03  -0.06  -0.04
  27   1     0.02   0.11   0.06    -0.01   0.05   0.00     0.05   0.00  -0.01
  28   1     0.05   0.11  -0.06    -0.00   0.05  -0.00     0.03   0.01  -0.03
  29   1    -0.00  -0.06  -0.07     0.08   0.06   0.06    -0.02   0.03  -0.03
  30   1    -0.02  -0.06   0.05    -0.03   0.10  -0.04    -0.03   0.03  -0.06
  31   1     0.01   0.04   0.05    -0.09  -0.15  -0.09    -0.01  -0.01  -0.09
  32   1     0.02   0.04  -0.06    -0.01  -0.18   0.10    -0.00  -0.02  -0.06
  33   1    -0.04  -0.12  -0.08     0.04   0.05   0.11     0.01   0.02  -0.05
  34   1    -0.02  -0.13   0.05    -0.01   0.07  -0.08     0.01   0.02  -0.08
  35   1     0.03   0.01   0.04    -0.05  -0.19  -0.15    -0.04  -0.00  -0.04
  36   1    -0.01   0.03  -0.05    -0.05  -0.21   0.13    -0.04  -0.01  -0.01
  37   1    -0.05  -0.07  -0.06     0.01   0.16   0.13     0.06   0.00   0.02
  38   1     0.03  -0.10   0.05     0.05   0.17  -0.12     0.06   0.00  -0.01
  39   1    -0.00   0.11  -0.05    -0.03  -0.05   0.09    -0.02   0.00   0.09
  40   1     0.02   0.03   0.01     0.02   0.14  -0.02     0.04  -0.00   0.11
  41   1     0.07   0.09   0.06    -0.00  -0.05  -0.14    -0.02   0.00   0.07
                      7                      8                      9
                        a                      a                      a 
 Frequencies --   107.1746               119.3856               136.5780
 Red. masses --     7.1203                 8.0976                 6.6645
 Frc consts  --     0.0000                 0.0000                 0.0000
 IR Inten    --     0.2675                 0.2900                 0.1466
 Raman Activ --     0.0000                 0.0000                 0.0000
 Depolar     --     0.0000                 0.0000                 0.0000
 Atom AN      X      Y      Z        X      Y      Z        X      Y      Z
   1   7    -0.00  -0.07  -0.03    -0.03   0.10  -0.04    -0.04  -0.03  -0.04
   2   6    -0.02   0.01  -0.04     0.20  -0.01   0.15     0.16  -0.00   0.11
   3   6    -0.05   0.05   0.01     0.19  -0.07   0.02     0.05  -0.02   0.02
   4   6    -0.06   0.03   0.03     0.09   0.03  -0.01    -0.04   0.09  -0.03
   5   6    -0.10  -0.03   0.12     0.16   0.16  -0.12    -0.06   0.10   0.04
   6   6     0.05   0.11  -0.18    -0.01  -0.02   0.25     0.03   0.09  -0.03
   7   6    -0.01   0.09  -0.04     0.01  -0.10   0.09    -0.04  -0.08  -0.02
   8   6    -0.06  -0.41   0.01    -0.18  -0.22  -0.06    -0.03  -0.09  -0.01
   9   6     0.04   0.01   0.10    -0.06   0.03  -0.19    -0.13  -0.43  -0.03
  10   6     0.07   0.07   0.12    -0.13  -0.03  -0.24     0.06   0.24   0.00
  11   6     0.12   0.17   0.07    -0.13   0.11  -0.15     0.09   0.34   0.01
  12   6     0.08   0.29   0.01     0.03   0.16   0.00    -0.04  -0.14  -0.01
  13   6    -0.04  -0.29  -0.14    -0.14  -0.10   0.25    -0.02  -0.06  -0.00
  14   1     0.01  -0.02  -0.02     0.01   0.04   0.03     0.05  -0.00   0.03
  15   1    -0.01  -0.02   0.00    -0.01  -0.02  -0.08    -0.04  -0.10  -0.07
  16   1    -0.00  -0.02  -0.00    -0.07   0.08  -0.02    -0.08   0.08  -0.03
  17   1    -0.00   0.01  -0.02     0.11  -0.04   0.05     0.10  -0.04   0.03
  18   1     0.00   0.01  -0.02     0.05   0.03   0.11     0.06   0.05   0.08
  19   1    -0.02   0.01   0.01     0.06  -0.05  -0.03     0.00  -0.04  -0.01
  20   1    -0.02   0.03  -0.00     0.08  -0.04   0.03     0.02  -0.01   0.01
  21   1    -0.03   0.02  -0.00     0.03  -0.02   0.01    -0.02   0.04  -0.02
  22   1     0.00   0.00   0.00    -0.01   0.02   0.00    -0.01   0.02  -0.03
  23   1    -0.04  -0.09   0.05     0.06   0.16  -0.06    -0.02  -0.00   0.02
  24   1    -0.05   0.04   0.11     0.09  -0.01  -0.13    -0.03   0.05   0.04
  25   1     0.03   0.12  -0.08    -0.02  -0.10   0.10     0.02   0.06  -0.02
  26   1     0.04  -0.02  -0.13    -0.02   0.05   0.16     0.04   0.01  -0.02
  27   1    -0.03   0.09   0.08     0.01  -0.02   0.04    -0.04  -0.03  -0.03
  28   1     0.03   0.08  -0.09     0.05  -0.03   0.00     0.01  -0.05   0.01
  29   1    -0.05  -0.20  -0.13    -0.11  -0.10  -0.07     0.05   0.00   0.05
  30   1    -0.01  -0.23   0.12    -0.06  -0.12   0.05    -0.04   0.03  -0.05
  31   1     0.08   0.03   0.08     0.03   0.03  -0.01    -0.07  -0.23  -0.17
  32   1    -0.04   0.06  -0.01    -0.02   0.05  -0.10    -0.07  -0.24   0.14
  33   1    -0.00   0.02   0.03    -0.06  -0.03  -0.10    -0.02   0.14   0.10
  34   1     0.04   0.01   0.04    -0.03  -0.04  -0.04     0.09   0.12  -0.09
  35   1     0.06   0.04   0.01    -0.03   0.03  -0.04     0.02   0.16   0.09
  36   1     0.02   0.05   0.03    -0.08   0.04  -0.03     0.06   0.16  -0.08
  37   1     0.09   0.14   0.09     0.08   0.07   0.04    -0.01  -0.11  -0.10
  38   1    -0.04   0.18  -0.08     0.02   0.09  -0.05    -0.05  -0.10   0.09
  39   1     0.04  -0.20   0.06    -0.06  -0.08   0.14     0.04   0.05  -0.11
  40   1    -0.02  -0.04  -0.06     0.01  -0.01   0.11    -0.04  -0.14  -0.01
  41   1    -0.08  -0.15  -0.16    -0.11  -0.06   0.02    -0.02   0.06   0.11
                     10                     11                     12
                        a                      a                      a 
 Frequencies --   153.0860               164.0858               189.9779
 Red. masses --     6.8510                 3.9822                 5.6286
 Frc consts  --     0.0000                 0.0000                 0.0000
 IR Inten    --     0.0283                 0.2419                 2.9093
 Raman Activ --     0.0000                 0.0000                 0.0000
 Depolar     --     0.0000                 0.0000                 0.0000
 Atom AN      X      Y      Z        X      Y      Z        X      Y      Z
   1   7     0.00  -0.01   0.01    -0.02  -0.04  -0.03    -0.07  -0.10  -0.01
   2   6    -0.03  -0.01  -0.02     0.16   0.05   0.10     0.21  -0.02   0.18
   3   6    -0.01  -0.01  -0.01    -0.10   0.05  -0.01     0.03  -0.05   0.02
   4   6    -0.00  -0.02  -0.00    -0.09   0.14  -0.11    -0.14   0.22  -0.14
   5   6    -0.00  -0.01   0.00    -0.18   0.01   0.07    -0.20   0.21   0.04
   6   6    -0.01  -0.00   0.01    -0.04  -0.06   0.01    -0.03   0.07   0.04
   7   6     0.01   0.02  -0.01    -0.06  -0.22  -0.04    -0.09  -0.27  -0.07
   8   6     0.09   0.31   0.00     0.04   0.07  -0.02    -0.01  -0.01  -0.07
   9   6    -0.05  -0.16  -0.00     0.07   0.18   0.02     0.03   0.13  -0.02
  10   6    -0.11  -0.44   0.00     0.04  -0.09   0.04     0.06  -0.03   0.04
  11   6     0.10   0.30   0.04     0.04  -0.10   0.04     0.06  -0.06   0.06
  12   6     0.06   0.23   0.02     0.05   0.02   0.01     0.05  -0.02   0.03
  13   6    -0.03  -0.17  -0.03     0.07  -0.00  -0.06     0.09  -0.01  -0.07
  14   1    -0.02  -0.00  -0.01     0.33   0.01   0.23    -0.30  -0.06  -0.24
  15   1     0.01   0.03   0.02    -0.18  -0.39  -0.12     0.14   0.27   0.00
  16   1     0.02  -0.03   0.01    -0.19   0.35  -0.16     0.03  -0.33   0.19
  17   1    -0.02   0.00  -0.01     0.13  -0.06   0.04     0.13  -0.05   0.04
  18   1    -0.01  -0.01  -0.01     0.08   0.11   0.08     0.07   0.04   0.11
  19   1    -0.00   0.00  -0.00    -0.05  -0.02   0.02    -0.01  -0.08  -0.03
  20   1    -0.00  -0.00  -0.00    -0.05   0.02  -0.02     0.03  -0.03   0.02
  21   1    -0.00  -0.00  -0.00    -0.04   0.10  -0.05    -0.07   0.11  -0.07
  22   1    -0.00  -0.01  -0.00     0.01   0.02  -0.07    -0.03   0.03  -0.10
  23   1     0.00  -0.00   0.00    -0.04  -0.06   0.04    -0.05   0.02   0.03
  24   1    -0.00  -0.00   0.00    -0.10   0.03   0.05    -0.10   0.08   0.03
  25   1    -0.00  -0.01   0.01     0.01   0.00   0.01     0.02   0.04   0.03
  26   1    -0.01   0.00   0.01     0.01  -0.02   0.00     0.03   0.02   0.03
  27   1     0.01  -0.03  -0.06    -0.03  -0.11  -0.08    -0.07  -0.13  -0.11
  28   1    -0.03  -0.03   0.04    -0.03  -0.12   0.05    -0.01  -0.16   0.06
  29   1     0.09   0.15   0.11    -0.01   0.04   0.03    -0.03   0.02   0.01
  30   1     0.01   0.19  -0.10     0.05   0.03  -0.04     0.04   0.01  -0.05
  31   1    -0.10  -0.04  -0.01     0.02   0.09   0.06     0.02   0.07   0.04
  32   1     0.05  -0.09   0.01     0.03   0.10  -0.05    -0.00   0.07  -0.04
  33   1    -0.14  -0.21  -0.14     0.02  -0.06  -0.04     0.03  -0.03  -0.02
  34   1     0.01  -0.27   0.13    -0.01  -0.05   0.05     0.01  -0.02   0.03
  35   1     0.14   0.15   0.12     0.02  -0.04  -0.01     0.01  -0.02   0.01
  36   1    -0.03   0.21  -0.09     0.01  -0.04   0.03     0.02  -0.02   0.02
  37   1     0.08   0.08   0.03     0.01   0.02   0.03     0.00  -0.00   0.01
  38   1    -0.03   0.11  -0.02     0.02   0.02  -0.02     0.01  -0.00   0.01
  39   1     0.02  -0.12   0.06     0.02  -0.02   0.01     0.03  -0.01  -0.02
  40   1    -0.01  -0.02  -0.01     0.02   0.04  -0.03     0.01   0.02  -0.04
  41   1    -0.07  -0.09  -0.08     0.03  -0.02  -0.05     0.05  -0.01  -0.04
                     13                     14                     15
                        a                      a                      a 
 Frequencies --   211.9992               232.4794               238.9435
 Red. masses --     8.3637                 9.4527                 7.7188
 Frc consts  --     0.0000                 0.0000                 0.0000
 IR Inten    --     4.6625                 0.3555                 7.1314
 Raman Activ --     0.0000                 0.0000                 0.0000
 Depolar     --     0.0000                 0.0000                 0.0000
 Atom AN      X      Y      Z        X      Y      Z        X      Y      Z
   1   7     0.10   0.21  -0.04    -0.02  -0.06   0.05     0.13   0.26  -0.07
   2   6     0.01  -0.07  -0.06    -0.17  -0.09  -0.07     0.02  -0.11  -0.08
   3   6     0.12  -0.10  -0.06    -0.09  -0.13  -0.12     0.13  -0.13  -0.04
   4   6    -0.17  -0.10   0.18    -0.19   0.04  -0.17    -0.28  -0.14   0.32
   5   6    -0.07   0.08   0.04    -0.15   0.22  -0.00    -0.10   0.10   0.01
   6   6    -0.16  -0.02   0.23    -0.20   0.12   0.22     0.08   0.14  -0.22
   7   6     0.03   0.08  -0.18    -0.09   0.21   0.19    -0.12  -0.21   0.01
   8   6    -0.10  -0.01  -0.30    -0.03  -0.00   0.22     0.06  -0.01   0.14
   9   6    -0.14  -0.00  -0.14     0.09  -0.07   0.03     0.09   0.05   0.10
  10   6     0.13  -0.03   0.11     0.08  -0.02  -0.07    -0.04   0.01  -0.02
  11   6     0.08  -0.03   0.28     0.18  -0.03  -0.21     0.00  -0.00  -0.14
  12   6    -0.01  -0.01   0.18     0.31  -0.08  -0.13     0.04  -0.01  -0.11
  13   6     0.15  -0.03  -0.24     0.26  -0.08   0.05    -0.03   0.01   0.10
  14   1     0.03   0.09   0.06     0.03  -0.01   0.05     0.01   0.11   0.06
  15   1     0.02   0.04  -0.02    -0.03  -0.04   0.04     0.05   0.08  -0.04
  16   1     0.05   0.11  -0.07     0.02   0.01  -0.02     0.08   0.12  -0.08
  17   1    -0.03  -0.01  -0.00    -0.09  -0.01  -0.01    -0.03  -0.02  -0.01
  18   1    -0.01  -0.05  -0.02    -0.05  -0.06  -0.05    -0.01  -0.06  -0.02
  19   1     0.05  -0.04  -0.09    -0.02  -0.04  -0.07     0.06  -0.06  -0.10
  20   1     0.11  -0.02   0.03    -0.00  -0.06  -0.01     0.13  -0.00   0.05
  21   1    -0.07  -0.12   0.06    -0.08   0.03  -0.07    -0.09  -0.19   0.12
  22   1    -0.10   0.01   0.11    -0.07  -0.01  -0.09    -0.18   0.02   0.20
  23   1    -0.02   0.12  -0.02    -0.01   0.11   0.01    -0.09   0.04  -0.04
  24   1     0.04  -0.03  -0.06    -0.04   0.04  -0.04     0.04   0.03   0.01
  25   1    -0.01  -0.12   0.13    -0.06  -0.03   0.09     0.02   0.16  -0.11
  26   1    -0.13   0.06   0.14    -0.09   0.07   0.12     0.12  -0.02  -0.13
  27   1     0.06   0.03  -0.03    -0.02   0.09   0.11    -0.12  -0.10  -0.08
  28   1     0.04   0.04  -0.09    -0.03   0.10   0.02    -0.05  -0.14   0.09
  29   1    -0.03  -0.02  -0.11    -0.01  -0.02   0.03     0.01   0.03   0.08
  30   1    -0.04  -0.02  -0.06    -0.04  -0.01   0.09     0.05   0.02  -0.00
  31   1    -0.07   0.00  -0.04     0.04  -0.03  -0.01     0.05   0.02   0.04
  32   1    -0.08   0.00  -0.02     0.05  -0.04   0.02     0.04   0.03   0.01
  33   1     0.07  -0.01   0.04     0.01   0.01  -0.01    -0.03  -0.00  -0.02
  34   1     0.08  -0.01   0.01     0.01   0.00  -0.02    -0.04  -0.00   0.01
  35   1     0.02  -0.01   0.08     0.05  -0.01  -0.06     0.01  -0.00  -0.04
  36   1     0.02  -0.01   0.08     0.05  -0.01  -0.06     0.01  -0.00  -0.04
  37   1    -0.04   0.00   0.06     0.11  -0.03  -0.04     0.03  -0.01  -0.03
  38   1    -0.04   0.01   0.06     0.11  -0.03  -0.04     0.03  -0.01  -0.03
  39   1     0.10  -0.02  -0.09     0.06  -0.01   0.01    -0.04   0.01   0.05
  40   1    -0.03   0.01  -0.14     0.10  -0.04   0.04     0.03   0.01   0.06
  41   1     0.10  -0.02  -0.08     0.05  -0.01   0.03    -0.03   0.00   0.03
                     16                     17                     18
                        a                      a                      a 
 Frequencies --   256.0318               283.6132               331.2915
 Red. masses --     1.9469                 7.9593                 8.8094
 Frc consts  --     0.0000                 0.0000                 0.0000
 IR Inten    --     0.0017                 4.4563                 0.2310
 Raman Activ --     0.0000                 0.0000                 0.0000
 Depolar     --     0.0000                 0.0000                 0.0000
 Atom AN      X      Y      Z        X      Y      Z        X      Y      Z
   1   7    -0.00  -0.00   0.01    -0.09  -0.21   0.13     0.00  -0.00   0.00
   2   6    -0.01   0.00   0.00    -0.37  -0.08  -0.13    -0.01  -0.03  -0.00
   3   6    -0.00  -0.00  -0.00     0.17  -0.11  -0.02    -0.02  -0.05  -0.05
   4   6     0.01   0.00  -0.01     0.11   0.06  -0.10    -0.16   0.08  -0.05
   5   6     0.00   0.00   0.00     0.12   0.28   0.12    -0.14   0.09   0.02
   6   6    -0.00   0.00   0.00     0.21   0.26   0.08     0.01  -0.10   0.14
   7   6     0.00   0.01   0.00     0.08  -0.19  -0.01     0.24   0.05  -0.26
   8   6    -0.01  -0.01   0.00     0.01  -0.04  -0.09     0.31  -0.07  -0.14
   9   6    -0.01  -0.02  -0.00     0.00   0.03  -0.07     0.16  -0.06   0.23
  10   6     0.02   0.07  -0.00     0.01   0.00  -0.02     0.05  -0.02   0.19
  11   6     0.03   0.11   0.00    -0.06   0.01   0.10     0.07  -0.01  -0.07
  12   6    -0.06  -0.24  -0.01    -0.11   0.03   0.07    -0.16   0.05  -0.23
  13   6     0.02   0.06   0.00    -0.08   0.03  -0.03    -0.34   0.09   0.15
  14   1     0.00  -0.00   0.00     0.10  -0.07   0.08    -0.00   0.00   0.01
  15   1    -0.00  -0.00   0.00    -0.10  -0.15   0.11     0.00   0.00   0.00
  16   1    -0.00   0.00   0.00     0.00   0.00  -0.02     0.01   0.00  -0.00
  17   1    -0.00   0.00  -0.00    -0.22   0.09  -0.07    -0.00  -0.02   0.01
  18   1    -0.00  -0.00  -0.00    -0.15  -0.16  -0.12    -0.00  -0.01   0.00
  19   1     0.00   0.00  -0.00     0.11   0.02  -0.10    -0.00  -0.04  -0.05
  20   1    -0.00  -0.00  -0.00     0.11  -0.11   0.05     0.02  -0.02   0.01
  21   1     0.00   0.00  -0.00     0.00   0.06  -0.06    -0.07   0.03  -0.03
  22   1     0.00  -0.00  -0.01     0.02  -0.01  -0.09    -0.05   0.01  -0.03
  23   1     0.00  -0.00   0.00     0.06   0.06   0.05    -0.04   0.05   0.00
  24   1    -0.00   0.00   0.00     0.02   0.09   0.05    -0.06   0.01  -0.03
  25   1    -0.00  -0.00   0.00     0.08   0.12   0.02     0.07  -0.13   0.13
  26   1    -0.00   0.00   0.00     0.12   0.06   0.02    -0.09   0.03   0.11
  27   1     0.00   0.01   0.01    -0.04  -0.10  -0.09     0.13   0.03  -0.03
  28   1     0.00   0.01  -0.00     0.07  -0.15   0.07     0.07   0.05  -0.11
  29   1    -0.00  -0.01  -0.00    -0.01   0.00  -0.00     0.14  -0.04  -0.07
  30   1    -0.00  -0.00   0.00     0.02  -0.01  -0.04     0.12  -0.04  -0.03
  31   1     0.00  -0.02  -0.02     0.01   0.02  -0.01     0.02  -0.02   0.06
  32   1    -0.01  -0.02   0.02    -0.01   0.02  -0.03     0.03  -0.01   0.07
  33   1    -0.00   0.03   0.01     0.02  -0.00  -0.01    -0.01   0.00   0.06
  34   1     0.02   0.02  -0.01     0.01  -0.00  -0.00    -0.01   0.00   0.06
  35   1     0.01   0.08   0.08    -0.03   0.00   0.03     0.06  -0.01  -0.03
  36   1     0.04   0.08  -0.07    -0.02   0.00   0.03     0.06  -0.01  -0.03
  37   1    -0.05  -0.12  -0.08    -0.04   0.01   0.02    -0.04   0.02  -0.06
  38   1    -0.01  -0.13   0.07    -0.04   0.01   0.02    -0.04   0.01  -0.06
  39   1    -0.27  -0.17   0.39    -0.01   0.01  -0.02    -0.17   0.04   0.07
  40   1     0.15   0.55   0.03    -0.04   0.01  -0.02    -0.01  -0.00   0.13
  41   1     0.16  -0.25  -0.41    -0.01   0.01  -0.01    -0.17   0.04   0.07
                     19                     20                     21
                        a                      a                      a 
 Frequencies --   384.2203               400.8836               466.8575
 Red. masses --     8.5765                 8.0005                 8.9926
 Frc consts  --     0.0000                 0.0000                 0.0000
 IR Inten    --     5.2354                 3.0996                 0.4828
 Raman Activ --     0.0000                 0.0000                 0.0000
 Depolar     --     0.0000                 0.0000                 0.0000
 Atom AN      X      Y      Z        X      Y      Z        X      Y      Z
   1   7    -0.07  -0.15   0.16     0.05   0.11  -0.14     0.01   0.01  -0.04
   2   6    -0.04   0.24   0.07     0.01  -0.19  -0.07    -0.01  -0.09  -0.02
   3   6     0.36   0.12  -0.04    -0.22  -0.04   0.16     0.02  -0.03   0.11
   4   6     0.12   0.06   0.10     0.21  -0.15  -0.02    -0.01   0.10   0.01
   5   6     0.02  -0.13  -0.04     0.20   0.05   0.13    -0.03   0.03  -0.00
   6   6    -0.18  -0.05  -0.09    -0.04   0.24   0.11     0.06  -0.07   0.01
   7   6    -0.20  -0.00  -0.17    -0.11  -0.07  -0.12     0.13  -0.01  -0.20
   8   6    -0.14   0.03  -0.12    -0.14   0.00  -0.17     0.16  -0.04  -0.05
   9   6    -0.20   0.05   0.15    -0.20   0.05   0.11    -0.04  -0.00   0.31
  10   6    -0.06   0.01   0.22    -0.02  -0.00   0.24    -0.41   0.12  -0.02
  11   6     0.12  -0.03  -0.15     0.14  -0.03  -0.11    -0.33   0.10  -0.18
  12   6     0.15  -0.03  -0.19     0.11  -0.02  -0.20     0.13  -0.05   0.19
  13   6     0.08  -0.03   0.06     0.03  -0.01   0.06     0.30  -0.08  -0.05
  14   1     0.07  -0.10  -0.04    -0.05   0.08   0.03    -0.01   0.02   0.02
  15   1    -0.07  -0.10   0.09     0.05   0.07  -0.08     0.01   0.01  -0.03
  16   1    -0.07  -0.07   0.09     0.05   0.06  -0.08     0.02   0.02  -0.04
  17   1    -0.02   0.11  -0.01    -0.01  -0.05  -0.02    -0.03   0.01  -0.03
  18   1    -0.03   0.02   0.01     0.01  -0.05  -0.03    -0.02  -0.07  -0.02
  19   1     0.17   0.05  -0.18    -0.12   0.03   0.25     0.00  -0.02   0.03
  20   1     0.23  -0.06   0.09    -0.22   0.08  -0.07     0.01   0.01   0.03
  21   1     0.02  -0.03   0.03     0.09   0.04  -0.00     0.01   0.08  -0.00
  22   1     0.05   0.04   0.08     0.07  -0.07  -0.06     0.01   0.00  -0.04
  23   1     0.00  -0.02  -0.02     0.10   0.01   0.07    -0.02   0.00  -0.01
  24   1     0.01  -0.04  -0.02     0.08   0.03   0.07    -0.03   0.00  -0.01
  25   1    -0.06  -0.04  -0.02    -0.00   0.04   0.05     0.05  -0.07   0.04
  26   1    -0.09  -0.01  -0.02    -0.02   0.08   0.04    -0.03   0.01   0.03
  27   1    -0.06  -0.01  -0.06    -0.08  -0.07  -0.12     0.06  -0.00  -0.04
  28   1    -0.06  -0.02  -0.03     0.03  -0.11   0.03     0.04   0.01  -0.07
  29   1    -0.02   0.01  -0.03    -0.03   0.00  -0.04     0.10  -0.03  -0.03
  30   1    -0.01   0.00  -0.04    -0.01  -0.00  -0.06     0.09  -0.03  -0.02
  31   1    -0.09   0.02   0.05    -0.09   0.03   0.05    -0.01  -0.00   0.08
  32   1    -0.09   0.03   0.05    -0.10   0.03   0.04    -0.01   0.00   0.08
  33   1    -0.04   0.01   0.07    -0.02   0.00   0.07    -0.18   0.05   0.01
  34   1    -0.04   0.01   0.07    -0.02   0.01   0.07    -0.19   0.05   0.01
  35   1     0.07  -0.02  -0.05     0.08  -0.02  -0.04    -0.14   0.04  -0.04
  36   1     0.07  -0.02  -0.05     0.08  -0.02  -0.04    -0.14   0.04  -0.04
  37   1     0.06  -0.01  -0.06     0.05  -0.01  -0.06     0.06  -0.02   0.04
  38   1     0.06  -0.02  -0.06     0.05  -0.01  -0.06     0.07  -0.02   0.04
  39   1    -0.01   0.00   0.03    -0.03   0.01   0.03     0.16  -0.04  -0.04
  40   1     0.07  -0.02   0.06     0.06  -0.02   0.07    -0.00   0.00  -0.10
  41   1    -0.01   0.00   0.03    -0.03   0.01   0.03     0.16  -0.04  -0.04
                     22                     23                     24
                        a                      a                      a 
 Frequencies --   486.4546               514.6382               759.1256
 Red. masses --     8.0512                 8.8902                 1.8671
 Frc consts  --     0.0000                 0.0000                 0.0000
 IR Inten    --     3.7816                 0.1718                22.7534
 Raman Activ --     0.0000                 0.0000                 0.0000
 Depolar     --     0.0000                 0.0000                 0.0000
 Atom AN      X      Y      Z        X      Y      Z        X      Y      Z
   1   7    -0.04  -0.03   0.14    -0.01  -0.01   0.03    -0.01   0.00   0.03
   2   6     0.02   0.28   0.06    -0.01   0.02   0.01     0.03  -0.03   0.02
   3   6    -0.17   0.05  -0.44    -0.10  -0.04  -0.17     0.04   0.00  -0.02
   4   6    -0.02  -0.38  -0.07    -0.17   0.00  -0.06     0.01   0.06  -0.05
   5   6     0.12   0.02   0.14    -0.04   0.05  -0.04     0.02   0.01  -0.10
   6   6    -0.01   0.21   0.12     0.40  -0.17   0.02     0.06  -0.00  -0.06
   7   6     0.02  -0.03  -0.09     0.34  -0.04   0.27     0.05   0.06   0.03
   8   6     0.10  -0.05  -0.02    -0.20   0.10  -0.13     0.01   0.11   0.04
   9   6     0.06  -0.02   0.08    -0.32   0.09  -0.02     0.01   0.12  -0.01
  10   6    -0.08   0.03  -0.04    -0.10   0.02   0.21     0.02   0.09   0.01
  11   6    -0.09   0.03  -0.03     0.05  -0.01  -0.04     0.02   0.05   0.01
  12   6     0.01  -0.01   0.06     0.08  -0.02  -0.10     0.01   0.02  -0.00
  13   6     0.05  -0.01  -0.01     0.06  -0.02   0.02     0.00  -0.00   0.00
  14   1     0.04  -0.07  -0.07     0.00  -0.01  -0.01    -0.02   0.00   0.00
  15   1    -0.04  -0.03   0.08    -0.01  -0.00   0.02     0.01  -0.01  -0.04
  16   1    -0.05  -0.08   0.11    -0.00  -0.01   0.02    -0.05   0.01   0.03
  17   1     0.10  -0.08   0.10     0.03  -0.05   0.03    -0.05   0.04  -0.00
  18   1     0.08   0.26   0.07     0.02   0.06   0.02    -0.02  -0.08  -0.03
  19   1    -0.04   0.07  -0.08    -0.03  -0.03  -0.07    -0.02  -0.02   0.05
  20   1    -0.09  -0.03  -0.14    -0.01  -0.02  -0.04    -0.04   0.02  -0.04
  21   1    -0.05  -0.27  -0.01    -0.07  -0.05  -0.02     0.04  -0.15   0.05
  22   1    -0.04  -0.02   0.13    -0.08   0.02   0.02    -0.12   0.09   0.09
  23   1     0.08   0.02   0.07    -0.06   0.00  -0.04     0.00  -0.23   0.04
  24   1     0.10   0.02   0.08    -0.03   0.00  -0.03    -0.15   0.12   0.14
  25   1     0.03   0.03   0.06     0.10   0.08  -0.05    -0.01  -0.17   0.02
  26   1    -0.02   0.07   0.05     0.23  -0.10  -0.05    -0.06   0.09   0.11
  27   1    -0.04  -0.04  -0.08     0.19   0.02   0.14    -0.02  -0.08  -0.16
  28   1     0.04  -0.07   0.02     0.11   0.06  -0.00    -0.04  -0.10   0.16
  29   1     0.05  -0.02  -0.01    -0.10   0.04  -0.02    -0.13  -0.12  -0.24
  30   1     0.05  -0.02  -0.01    -0.11   0.04  -0.02     0.00  -0.19   0.25
  31   1     0.03  -0.01   0.02    -0.15   0.04   0.00    -0.12  -0.14  -0.27
  32   1     0.02  -0.00   0.01    -0.14   0.03   0.02     0.01  -0.20   0.25
  33   1    -0.04   0.01  -0.00    -0.03   0.00   0.06    -0.07  -0.12  -0.23
  34   1    -0.04   0.01  -0.01    -0.03   0.01   0.06    -0.01  -0.16   0.21
  35   1    -0.04   0.01  -0.01     0.04  -0.01  -0.02    -0.08  -0.07  -0.14
  36   1    -0.04   0.01  -0.01     0.04  -0.01  -0.02     0.03  -0.11   0.13
  37   1     0.01  -0.00   0.02     0.03  -0.01  -0.03    -0.01  -0.04  -0.07
  38   1     0.01  -0.00   0.02     0.03  -0.01  -0.03    -0.02  -0.05   0.06
  39   1     0.03  -0.01  -0.01     0.00  -0.00   0.01     0.01  -0.01   0.01
  40   1    -0.01   0.00  -0.03     0.04  -0.01   0.03     0.00  -0.00   0.00
  41   1     0.03  -0.01  -0.01     0.00  -0.00   0.01    -0.02  -0.01  -0.01
                     25                     26                     27
                        a                      a                      a 
 Frequencies --   762.5385               768.7025               787.6084
 Red. masses --     2.0975                 2.1539                 2.8230
 Frc consts  --     0.0000                 0.0000                 0.0000
 IR Inten    --     8.6323                 4.9669                 9.7824
 Raman Activ --     0.0000                 0.0000                 0.0000
 Depolar     --     0.0000                 0.0000                 0.0000
 Atom AN      X      Y      Z        X      Y      Z        X      Y      Z
   1   7     0.02  -0.02  -0.06     0.02  -0.02  -0.04    -0.01   0.04   0.07
   2   6    -0.07   0.05  -0.04    -0.06   0.01  -0.03     0.12   0.03   0.06
   3   6    -0.11   0.00   0.04    -0.09   0.00   0.03     0.15  -0.01  -0.05
   4   6    -0.05  -0.07   0.10    -0.05  -0.01   0.07     0.04  -0.05  -0.08
   5   6    -0.02  -0.07   0.12     0.01  -0.08   0.01    -0.10   0.05   0.10
   6   6    -0.05   0.01   0.06     0.03   0.02  -0.01    -0.11  -0.06   0.10
   7   6    -0.02  -0.01  -0.01     0.06   0.09   0.03    -0.06  -0.09  -0.02
   8   6     0.03   0.01  -0.03     0.04   0.13   0.01     0.03  -0.01  -0.06
   9   6     0.04   0.05   0.02     0.01   0.06  -0.00     0.06   0.09   0.03
  10   6     0.03   0.09   0.00    -0.02  -0.06   0.00     0.03   0.07  -0.00
  11   6     0.02   0.08  -0.00    -0.04  -0.13  -0.01    -0.02  -0.06  -0.01
  12   6     0.01   0.05   0.01    -0.03  -0.10  -0.01    -0.03  -0.11   0.00
  13   6    -0.00   0.00  -0.00    -0.00  -0.01  -0.00    -0.01  -0.02   0.00
  14   1     0.02   0.00   0.00     0.01   0.01   0.01     0.00  -0.03  -0.07
  15   1    -0.01   0.02   0.07     0.00   0.02   0.05     0.00  -0.05  -0.11
  16   1     0.10  -0.01  -0.06     0.08  -0.01  -0.05    -0.18   0.00   0.13
  17   1     0.10  -0.09   0.01     0.08  -0.07   0.01    -0.15   0.16  -0.01
  18   1     0.04   0.16   0.06     0.03   0.11   0.04    -0.05  -0.20  -0.09
  19   1     0.04   0.02  -0.14     0.03   0.00  -0.13    -0.05  -0.00   0.22
  20   1     0.10  -0.05   0.11     0.09  -0.04   0.09    -0.15   0.06  -0.15
  21   1    -0.05   0.27  -0.08    -0.01   0.15  -0.02    -0.06  -0.11  -0.05
  22   1     0.20  -0.14  -0.16     0.09  -0.07  -0.08    -0.01   0.03   0.04
  23   1    -0.02   0.30  -0.08    -0.03   0.05  -0.04     0.04   0.22   0.01
  24   1     0.21  -0.18  -0.19     0.08  -0.06  -0.04     0.01  -0.10  -0.15
  25   1     0.02   0.19  -0.03     0.00  -0.02   0.00     0.00   0.25  -0.04
  26   1     0.05  -0.10  -0.13    -0.03   0.01  -0.01     0.11  -0.15  -0.16
  27   1     0.01  -0.01  -0.00    -0.02  -0.11  -0.20     0.07   0.04   0.11
  28   1     0.00  -0.01  -0.01    -0.03  -0.13   0.20    -0.00   0.08  -0.12
  29   1    -0.03  -0.02  -0.06    -0.08  -0.13  -0.25    -0.04   0.01  -0.01
  30   1     0.04  -0.05   0.03    -0.02  -0.17   0.25     0.09  -0.03  -0.03
  31   1    -0.02  -0.09  -0.15    -0.11  -0.03  -0.09    -0.03  -0.09  -0.17
  32   1    -0.02  -0.10   0.15     0.07  -0.09   0.08    -0.01  -0.11   0.17
  33   1    -0.09  -0.10  -0.20     0.11   0.04   0.11     0.01  -0.07  -0.13
  34   1     0.01  -0.15   0.19    -0.07   0.11  -0.10    -0.05  -0.06   0.12
  35   1    -0.09  -0.10  -0.19     0.09   0.14   0.27    -0.04   0.06   0.11
  36   1     0.02  -0.15   0.18     0.01   0.19  -0.26     0.06   0.05  -0.11
  37   1    -0.02  -0.07  -0.13     0.05   0.13   0.24     0.07   0.10   0.20
  38   1    -0.02  -0.08   0.12     0.03   0.16  -0.23    -0.00   0.13  -0.18
  39   1     0.03  -0.03   0.02    -0.07   0.07  -0.05    -0.08   0.08  -0.05
  40   1    -0.01  -0.01  -0.00     0.01   0.03   0.00     0.01   0.04  -0.00
  41   1    -0.04  -0.01  -0.02     0.10   0.02   0.05     0.11   0.02   0.05
                     28                     29                     30
                        a                      a                      a 
 Frequencies --   802.4390               836.1780               856.8080
 Red. masses --     2.5839                 4.1610                 4.0821
 Frc consts  --     0.0000                 0.0000                 0.0000
 IR Inten    --    21.5107                22.9204                 5.7626
 Raman Activ --     0.0000                 0.0000                 0.0000
 Depolar     --     0.0000                 0.0000                 0.0000
 Atom AN      X      Y      Z        X      Y      Z        X      Y      Z
   1   7     0.02   0.04   0.04    -0.16  -0.09   0.07     0.12   0.05  -0.12
   2   6     0.11   0.05   0.05    -0.06  -0.21  -0.08    -0.04   0.17   0.04
   3   6     0.09  -0.02  -0.03     0.09   0.08  -0.12    -0.08  -0.08   0.16
   4   6    -0.03  -0.05  -0.04     0.16   0.21  -0.04    -0.04  -0.16   0.00
   5   6    -0.10  -0.06   0.05     0.01   0.06   0.03     0.04   0.11  -0.03
   6   6    -0.03  -0.02   0.05    -0.12  -0.09   0.10     0.02   0.00  -0.04
   7   6     0.07   0.11   0.04    -0.10  -0.06  -0.03    -0.09  -0.18  -0.04
   8   6     0.05   0.12  -0.02     0.04   0.06  -0.06    -0.01   0.00   0.02
   9   6    -0.01  -0.07  -0.00     0.06   0.06   0.03     0.05   0.18   0.01
  10   6    -0.04  -0.14   0.00    -0.01  -0.08  -0.01    -0.02  -0.07  -0.01
  11   6    -0.00   0.02  -0.00    -0.02  -0.06  -0.01    -0.04  -0.16  -0.01
  12   6     0.04   0.15   0.01     0.02   0.08   0.01     0.03   0.12   0.01
  13   6     0.01   0.03   0.00     0.00   0.03   0.00     0.02   0.07   0.00
  14   1     0.00  -0.03  -0.08    -0.06   0.07   0.21     0.08  -0.05  -0.14
  15   1     0.01  -0.05  -0.12    -0.04   0.09   0.21     0.01  -0.04  -0.05
  16   1    -0.18   0.00   0.12     0.26   0.01  -0.19    -0.08  -0.02   0.06
  17   1    -0.14   0.15  -0.00     0.18  -0.19  -0.03    -0.05   0.07   0.01
  18   1    -0.03  -0.17  -0.10    -0.00   0.08   0.17     0.01   0.04  -0.05
  19   1    -0.04  -0.02   0.12    -0.00   0.04   0.05     0.02  -0.00  -0.05
  20   1    -0.08   0.04  -0.08    -0.05   0.06  -0.09     0.05  -0.09   0.10
  21   1    -0.08  -0.00  -0.06     0.06  -0.16   0.06     0.03   0.04   0.00
  22   1     0.04  -0.02  -0.01    -0.07   0.16   0.16    -0.03  -0.09  -0.09
  23   1    -0.03   0.16  -0.04     0.11   0.04   0.07     0.01  -0.07   0.03
  24   1     0.04  -0.12  -0.14    -0.11  -0.01  -0.05     0.02   0.09   0.10
  25   1     0.01   0.12  -0.02    -0.03   0.19  -0.05     0.00  -0.06   0.01
  26   1     0.01  -0.08  -0.11     0.10  -0.14  -0.12     0.05   0.06   0.09
  27   1     0.01  -0.10  -0.20     0.07   0.01   0.06     0.04   0.09   0.21
  28   1    -0.03  -0.12   0.19    -0.04   0.06  -0.08    -0.01   0.13  -0.20
  29   1     0.01  -0.10  -0.20    -0.06  -0.02  -0.09    -0.15   0.04   0.04
  30   1    -0.06  -0.10   0.18     0.09  -0.07   0.04     0.15  -0.04  -0.04
  31   1    -0.06   0.07   0.11    -0.07  -0.02  -0.06    -0.09  -0.07  -0.19
  32   1     0.09   0.03  -0.11     0.07  -0.07   0.07     0.04  -0.13   0.18
  33   1     0.04   0.10   0.21     0.08   0.02   0.08     0.16  -0.01   0.04
  34   1     0.01   0.12  -0.19    -0.05   0.07  -0.07    -0.14   0.08  -0.04
  35   1     0.09  -0.04  -0.05     0.08   0.01   0.05     0.14   0.04   0.15
  36   1    -0.10   0.01   0.05    -0.07   0.06  -0.05    -0.09   0.12  -0.14
  37   1    -0.10  -0.10  -0.22    -0.08  -0.03  -0.09    -0.16  -0.03  -0.12
  38   1     0.03  -0.16   0.21     0.05  -0.08   0.09     0.12  -0.12   0.11
  39   1     0.12  -0.11   0.06     0.09  -0.07   0.04     0.16  -0.13   0.08
  40   1    -0.02  -0.06  -0.00    -0.02  -0.04  -0.01    -0.02  -0.09  -0.00
  41   1    -0.15  -0.03  -0.07    -0.11  -0.02  -0.05    -0.20  -0.02  -0.08
                     31                     32                     33
                        a                      a                      a 
 Frequencies --   875.4756               886.7485               925.0197
 Red. masses --     4.0574                 6.1926                 4.0134
 Frc consts  --     0.0000                 0.0000                 0.0000
 IR Inten    --    12.6865                 7.2956                 2.1828
 Raman Activ --     0.0000                 0.0000                 0.0000
 Depolar     --     0.0000                 0.0000                 0.0000
 Atom AN      X      Y      Z        X      Y      Z        X      Y      Z
   1   7    -0.11   0.14  -0.11    -0.16  -0.05   0.27     0.01  -0.01   0.06
   2   6    -0.00   0.13  -0.06     0.12  -0.22  -0.13    -0.01  -0.02  -0.04
   3   6     0.29  -0.14   0.10     0.10   0.13  -0.30    -0.01   0.01  -0.04
   4   6    -0.02  -0.16   0.01    -0.01   0.06   0.16     0.04  -0.06   0.07
   5   6    -0.15   0.11   0.01    -0.01  -0.02   0.11     0.03   0.18   0.08
   6   6     0.08  -0.05  -0.11     0.18   0.02  -0.17     0.07  -0.12  -0.07
   7   6     0.02   0.00  -0.03    -0.01  -0.01  -0.09    -0.16  -0.16  -0.13
   8   6    -0.02   0.02   0.07    -0.07  -0.05   0.14     0.00   0.17   0.08
   9   6    -0.03  -0.00  -0.02    -0.03   0.08  -0.02    -0.01   0.02   0.01
  10   6    -0.01   0.00  -0.00    -0.00   0.02  -0.01    -0.05  -0.17  -0.04
  11   6     0.01   0.01   0.01    -0.01  -0.09   0.03     0.06   0.17   0.04
  12   6     0.00  -0.00  -0.01     0.02   0.03  -0.02     0.00  -0.01  -0.01
  13   6     0.00  -0.01  -0.00     0.02   0.04  -0.00    -0.02  -0.12  -0.02
  14   1     0.26  -0.09  -0.14    -0.16   0.06   0.16    -0.05   0.01   0.02
  15   1    -0.20  -0.02   0.43     0.03   0.02  -0.08     0.03  -0.00  -0.08
  16   1     0.20  -0.11  -0.05    -0.08   0.05   0.05    -0.06   0.02   0.04
  17   1     0.13   0.02  -0.08    -0.03  -0.08   0.02    -0.02  -0.04   0.03
  18   1    -0.09   0.01   0.22     0.03  -0.07  -0.05     0.04   0.05  -0.05
  19   1    -0.02   0.00   0.34    -0.02   0.03   0.05     0.02   0.06  -0.01
  20   1    -0.17   0.09  -0.16    -0.04   0.17  -0.15     0.00   0.01  -0.01
  21   1    -0.12   0.03  -0.09    -0.14   0.16  -0.09    -0.02   0.05  -0.02
  22   1     0.01  -0.10  -0.09     0.22  -0.03  -0.01     0.04  -0.05  -0.04
  23   1    -0.13   0.03  -0.06    -0.16   0.08  -0.10    -0.01   0.03   0.02
  24   1     0.03   0.03   0.01     0.18  -0.04  -0.00     0.06   0.07   0.07
  25   1     0.05  -0.12   0.03     0.10  -0.22   0.08     0.05  -0.07   0.02
  26   1    -0.04   0.05   0.06    -0.11   0.12   0.10     0.08   0.01   0.07
  27   1    -0.01  -0.00  -0.01    -0.11   0.04   0.03     0.08   0.05   0.13
  28   1    -0.04   0.01   0.01    -0.00   0.02  -0.04    -0.14   0.14  -0.17
  29   1    -0.01  -0.00   0.01    -0.05   0.04   0.11    -0.18  -0.02  -0.10
  30   1    -0.04   0.00   0.04    -0.02   0.04  -0.02     0.13  -0.11   0.13
  31   1    -0.00   0.01   0.00     0.02  -0.03  -0.08    -0.19   0.05   0.04
  32   1    -0.00   0.01  -0.01    -0.04  -0.03   0.06     0.21  -0.06  -0.04
  33   1    -0.01   0.00   0.00     0.07  -0.03  -0.04    -0.03   0.08   0.17
  34   1     0.01  -0.00  -0.00    -0.06   0.00   0.03     0.09   0.06  -0.19
  35   1    -0.00  -0.00  -0.01     0.04   0.03   0.09     0.04  -0.08  -0.18
  36   1     0.01  -0.01   0.01    -0.01   0.05  -0.07    -0.09  -0.07   0.19
  37   1     0.01   0.00   0.00    -0.08   0.00  -0.03     0.20  -0.04  -0.03
  38   1    -0.01   0.01  -0.00     0.06  -0.04   0.02    -0.21   0.07   0.03
  39   1    -0.01   0.01  -0.00     0.06  -0.06   0.04    -0.19   0.14  -0.08
  40   1     0.01   0.00   0.01     0.01  -0.05   0.01     0.05   0.09   0.02
  41   1     0.01   0.00   0.01    -0.10  -0.00  -0.03     0.21   0.02   0.10
                     34                     35                     36
                        a                      a                      a 
 Frequencies --   939.1130               961.7963               970.9073
 Red. masses --     6.2894                 7.9305                 5.9948
 Frc consts  --     0.0000                 0.0000                 0.0000
 IR Inten    --     3.2681                 3.4309                34.7140
 Raman Activ --     0.0000                 0.0000                 0.0000
 Depolar     --     0.0000                 0.0000                 0.0000
 Atom AN      X      Y      Z        X      Y      Z        X      Y      Z
   1   7    -0.03   0.01   0.05     0.18  -0.09  -0.22     0.03   0.28  -0.02
   2   6     0.03  -0.02  -0.05    -0.22   0.06   0.26    -0.03  -0.21  -0.11
   3   6     0.02   0.01  -0.02    -0.04  -0.05  -0.01    -0.15  -0.17  -0.15
   4   6    -0.02  -0.02   0.03     0.13   0.09  -0.07     0.01   0.35   0.15
   5   6     0.01  -0.00  -0.03    -0.02   0.11   0.21     0.22  -0.08   0.07
   6   6    -0.01   0.03  -0.01     0.22  -0.21  -0.08     0.05  -0.06   0.04
   7   6    -0.01  -0.02   0.08    -0.09   0.07  -0.28    -0.09   0.04  -0.09
   8   6    -0.05   0.02  -0.10    -0.12   0.04   0.25    -0.04   0.00   0.04
   9   6     0.04  -0.01   0.06    -0.11  -0.02   0.01    -0.01   0.00   0.03
  10   6     0.16  -0.06   0.07     0.04   0.04  -0.06     0.01  -0.00  -0.04
  11   6     0.14  -0.01  -0.41     0.08  -0.05  -0.05     0.02  -0.01   0.01
  12   6    -0.02  -0.01   0.30     0.01  -0.02   0.06     0.01  -0.00   0.01
  13   6    -0.31   0.07   0.17    -0.08   0.05   0.03    -0.01   0.00  -0.00
  14   1    -0.00  -0.00   0.00    -0.01   0.01  -0.01     0.26  -0.15  -0.34
  15   1    -0.01  -0.00   0.01     0.08   0.01  -0.12    -0.14  -0.12   0.15
  16   1    -0.02  -0.00   0.02     0.06   0.01  -0.09    -0.18  -0.11   0.24
  17   1     0.00  -0.01  -0.00    -0.03   0.00   0.06    -0.07  -0.20   0.13
  18   1     0.01  -0.01  -0.01    -0.02   0.05   0.02    -0.02  -0.04   0.06
  19   1    -0.00  -0.00   0.01     0.03   0.08   0.01    -0.10  -0.19  -0.08
  20   1     0.01   0.05  -0.01    -0.10  -0.21  -0.02     0.03   0.09  -0.02
  21   1    -0.01   0.05  -0.01    -0.04  -0.14  -0.02     0.09   0.08   0.10
  22   1     0.03  -0.03  -0.03    -0.02   0.11   0.12    -0.01   0.10   0.05
  23   1    -0.03  -0.04  -0.02     0.02   0.17   0.03     0.10   0.00   0.04
  24   1     0.02   0.02   0.03     0.00  -0.06  -0.09    -0.01  -0.04  -0.02
  25   1    -0.05  -0.02  -0.03     0.24  -0.07   0.11     0.03   0.02   0.01
  26   1     0.03   0.02   0.03    -0.07  -0.05  -0.05    -0.02  -0.05  -0.05
  27   1     0.01   0.00   0.03    -0.06   0.01  -0.10    -0.05   0.01  -0.03
  28   1     0.01   0.00   0.00    -0.14   0.03  -0.02    -0.02   0.00  -0.02
  29   1    -0.04   0.01  -0.02     0.01  -0.01   0.04    -0.00   0.00   0.01
  30   1    -0.01   0.00  -0.02    -0.10   0.02   0.09     0.02  -0.00  -0.00
  31   1    -0.04   0.01   0.02     0.04   0.01   0.03     0.01  -0.00   0.00
  32   1    -0.01  -0.00   0.03    -0.04   0.03  -0.03     0.01  -0.00   0.01
  33   1     0.01  -0.00   0.04    -0.01  -0.01  -0.06     0.01  -0.00  -0.01
  34   1     0.01   0.00   0.01     0.04  -0.03   0.01     0.00   0.00  -0.01
  35   1     0.09  -0.02  -0.13    -0.01   0.01   0.02     0.01  -0.00   0.00
  36   1     0.07  -0.02  -0.11     0.09  -0.01  -0.05    -0.00  -0.00   0.00
  37   1     0.13  -0.04   0.05    -0.03   0.01   0.04     0.00  -0.00   0.00
  38   1     0.10  -0.03   0.05     0.08  -0.02  -0.01    -0.00  -0.00   0.00
  39   1     0.19  -0.03  -0.08     0.08  -0.04   0.00    -0.01   0.00  -0.00
  40   1    -0.45   0.15  -0.31    -0.10   0.01  -0.07    -0.00   0.00  -0.00
  41   1     0.21  -0.07  -0.07    -0.02  -0.02  -0.04    -0.00   0.00   0.00
                     37                     38                     39
                        a                      a                      a 
 Frequencies --   979.7911              1006.4171              1011.3363
 Red. masses --     4.4718                 7.0776                 4.2526
 Frc consts  --     0.0000                 0.0000                 0.0000
 IR Inten    --     2.0018                12.6588                 2.5407
 Raman Activ --     0.0000                 0.0000                 0.0000
 Depolar     --     0.0000                 0.0000                 0.0000
 Atom AN      X      Y      Z        X      Y      Z        X      Y      Z
   1   7     0.02  -0.05  -0.15     0.23  -0.02  -0.15    -0.04   0.06   0.16
   2   6    -0.01   0.04   0.21    -0.35  -0.12   0.19     0.03  -0.00  -0.28
   3   6    -0.03   0.01  -0.04     0.13  -0.02  -0.14     0.03  -0.04   0.15
   4   6    -0.07   0.14  -0.09     0.18   0.08   0.17     0.09  -0.13  -0.03
   5   6     0.01  -0.27   0.02    -0.13   0.09  -0.05    -0.11   0.14  -0.02
   6   6     0.05   0.19  -0.00    -0.14   0.02  -0.07     0.02  -0.14   0.03
   7   6     0.12   0.02   0.02     0.03  -0.00   0.21     0.05   0.12  -0.10
   8   6    -0.03  -0.12   0.04     0.08  -0.04  -0.20    -0.06  -0.09   0.10
   9   6     0.02   0.16  -0.03     0.10  -0.00  -0.03    -0.05   0.07   0.01
  10   6    -0.04  -0.11   0.02     0.01  -0.01   0.10    -0.01   0.00  -0.04
  11   6     0.01   0.03  -0.01    -0.09   0.01  -0.02     0.03  -0.06   0.01
  12   6     0.02   0.07   0.01    -0.02   0.04  -0.02     0.04   0.08   0.02
  13   6    -0.04  -0.10   0.01     0.04  -0.04   0.00    -0.05  -0.07  -0.00
  14   1     0.03   0.00   0.01     0.03  -0.03  -0.11    -0.04   0.00  -0.00
  15   1    -0.01   0.02   0.06     0.07  -0.04  -0.16     0.00  -0.01  -0.04
  16   1     0.13  -0.01  -0.11    -0.08  -0.01   0.05    -0.12   0.01   0.10
  17   1    -0.02   0.13  -0.05    -0.05  -0.23   0.20     0.06  -0.12   0.01
  18   1    -0.08  -0.14   0.07     0.00   0.14   0.05     0.10   0.17  -0.08
  19   1    -0.06  -0.11  -0.02     0.08   0.20   0.13     0.08   0.12   0.03
  20   1    -0.04  -0.06  -0.02    -0.12  -0.05  -0.12     0.04   0.01   0.06
  21   1    -0.06  -0.07  -0.02    -0.07   0.03  -0.04     0.11  -0.03   0.05
  22   1     0.02   0.10   0.11     0.14   0.02   0.07    -0.13  -0.06  -0.09
  23   1    -0.00   0.03  -0.03    -0.19  -0.03  -0.09     0.05   0.04   0.05
  24   1     0.04  -0.13  -0.09     0.02   0.06   0.05    -0.15   0.02  -0.05
  25   1     0.06  -0.02   0.06    -0.17  -0.04  -0.10     0.09   0.05   0.03
  26   1    -0.17   0.06  -0.03     0.03   0.04   0.05    -0.02  -0.08  -0.08
  27   1    -0.19   0.05   0.03     0.05  -0.02   0.03     0.01  -0.04  -0.13
  28   1     0.21  -0.08  -0.01     0.00  -0.01   0.07    -0.05  -0.03   0.07
  29   1    -0.10   0.07   0.14     0.06  -0.01  -0.04     0.16  -0.02   0.07
  30   1     0.08   0.03  -0.10    -0.04   0.02  -0.06    -0.15   0.07  -0.01
  31   1    -0.04  -0.04  -0.13     0.05  -0.02  -0.04     0.18  -0.06  -0.09
  32   1    -0.01  -0.06   0.11    -0.05   0.01   0.02    -0.21   0.04   0.09
  33   1     0.16  -0.01   0.07     0.06  -0.01   0.02     0.23  -0.06  -0.07
  34   1    -0.15   0.09  -0.05    -0.08   0.02   0.04    -0.22   0.06   0.04
  35   1     0.21  -0.07  -0.08     0.04  -0.01  -0.01     0.23  -0.05  -0.01
  36   1    -0.19   0.04   0.07    -0.09   0.03   0.00    -0.19   0.07   0.02
  37   1     0.17  -0.07  -0.10     0.03  -0.02  -0.04     0.13  -0.06  -0.10
  38   1    -0.17   0.02   0.10    -0.05   0.01   0.02    -0.13   0.00   0.10
  39   1    -0.12   0.10  -0.07    -0.03   0.02  -0.01    -0.10   0.07  -0.05
  40   1     0.00   0.08  -0.01     0.03   0.01   0.02    -0.01   0.06  -0.01
  41   1     0.17   0.00   0.06     0.04   0.00   0.02     0.12   0.00   0.05
                     40                     41                     42
                        a                      a                      a 
 Frequencies --  1034.4298              1048.4573              1069.9075
 Red. masses --     4.9853                 9.5591                 9.3261
 Frc consts  --     0.0000                 0.0000                 0.0000
 IR Inten    --     0.8037                 1.0280                 0.7529
 Raman Activ --     0.0000                 0.0000                 0.0000
 Depolar     --     0.0000                 0.0000                 0.0000
 Atom AN      X      Y      Z        X      Y      Z        X      Y      Z
   1   7     0.04   0.06   0.07     0.05  -0.00  -0.01     0.01  -0.01  -0.05
   2   6    -0.09  -0.07  -0.16    -0.08  -0.04   0.02    -0.01  -0.04   0.11
   3   6     0.07  -0.01   0.12     0.08   0.03  -0.00    -0.02   0.07  -0.08
   4   6     0.14  -0.03  -0.04     0.02  -0.03   0.02    -0.01  -0.02   0.04
   5   6    -0.25  -0.07  -0.07    -0.11  -0.10  -0.14     0.03   0.05  -0.01
   6   6    -0.06   0.15  -0.04     0.03   0.11   0.10    -0.20   0.03  -0.04
   7   6     0.22  -0.06  -0.00     0.09   0.00  -0.04     0.10  -0.10   0.00
   8   6     0.09  -0.05   0.17    -0.20   0.05  -0.04     0.37  -0.08   0.20
   9   6    -0.06   0.06  -0.19    -0.09   0.02   0.43    -0.32   0.08  -0.25
  10   6    -0.08  -0.03   0.13    -0.01   0.01  -0.46    -0.34   0.11  -0.07
  11   6    -0.01   0.05   0.00     0.31  -0.08   0.07     0.25  -0.09   0.18
  12   6    -0.03  -0.04  -0.05     0.18  -0.07   0.19     0.19  -0.05   0.01
  13   6     0.02   0.03   0.05    -0.17   0.06  -0.17    -0.19   0.05  -0.02
  14   1     0.00  -0.02  -0.06    -0.00  -0.00  -0.02     0.02  -0.01  -0.01
  15   1     0.01  -0.03  -0.05     0.02  -0.01  -0.04    -0.01  -0.00   0.02
  16   1    -0.11  -0.00   0.10    -0.03  -0.00   0.02     0.03  -0.01  -0.02
  17   1     0.05  -0.18   0.06     0.00  -0.07   0.05    -0.03   0.02   0.02
  18   1     0.07   0.16  -0.02     0.00   0.04   0.02    -0.04  -0.08   0.04
  19   1     0.09   0.15   0.05     0.04   0.07   0.05    -0.03  -0.04  -0.03
  20   1     0.01  -0.00   0.03    -0.01   0.03  -0.02     0.03   0.07  -0.01
  21   1     0.11  -0.07   0.05     0.01   0.01   0.00     0.01   0.04   0.01
  22   1    -0.07   0.00  -0.01     0.02  -0.02  -0.01     0.06  -0.01   0.00
  23   1     0.02   0.06   0.01    -0.07  -0.07  -0.05     0.04  -0.01   0.03
  24   1    -0.17  -0.08  -0.14    -0.06  -0.02  -0.03     0.05   0.05   0.06
  25   1     0.13   0.03   0.09    -0.02   0.05  -0.00    -0.08   0.03  -0.04
  26   1    -0.23   0.02  -0.10     0.04   0.02   0.02     0.02   0.01   0.01
  27   1    -0.17   0.05   0.06     0.02  -0.01  -0.02     0.13  -0.03   0.02
  28   1     0.22  -0.07  -0.04     0.18  -0.05  -0.04    -0.07   0.04  -0.00
  29   1    -0.20   0.06   0.11    -0.06   0.02   0.01     0.19  -0.06   0.01
  30   1     0.15  -0.04   0.01     0.04  -0.01  -0.04     0.09  -0.04   0.07
  31   1    -0.19   0.04  -0.03    -0.06   0.01   0.11    -0.03   0.01  -0.07
  32   1     0.15  -0.05  -0.07     0.04  -0.02   0.11    -0.11   0.04  -0.08
  33   1    -0.13   0.04   0.09    -0.07   0.03  -0.09    -0.05   0.01  -0.04
  34   1     0.13  -0.02  -0.03    -0.01   0.01  -0.13    -0.09   0.03  -0.01
  35   1    -0.08   0.01  -0.02    -0.02  -0.00   0.03     0.14  -0.04   0.04
  36   1     0.14  -0.05  -0.00     0.03  -0.01   0.04     0.11  -0.03   0.03
  37   1    -0.03   0.02   0.03    -0.03   0.01   0.08     0.09  -0.02  -0.01
  38   1     0.08  -0.00  -0.07    -0.01   0.00   0.06     0.08  -0.03   0.01
  39   1     0.09  -0.04   0.01    -0.14   0.03   0.00    -0.01   0.01  -0.03
  40   1    -0.05  -0.01  -0.04     0.05  -0.02   0.05    -0.11   0.04  -0.06
  41   1    -0.00  -0.02  -0.03    -0.16   0.05  -0.01    -0.01  -0.00  -0.03
                     43                     44                     45
                        a                      a                      a 
 Frequencies --  1089.3150              1100.3066              1104.7976
 Red. masses --     7.5902                 7.5881                 6.7242
 Frc consts  --     0.0000                 0.0000                 0.0000
 IR Inten    --     1.4365                 0.6789                 3.9810
 Raman Activ --     0.0000                 0.0000                 0.0000
 Depolar     --     0.0000                 0.0000                 0.0000
 Atom AN      X      Y      Z        X      Y      Z        X      Y      Z
   1   7    -0.05   0.01   0.10     0.03  -0.02  -0.02     0.09  -0.08  -0.02
   2   6     0.07   0.15  -0.24    -0.06  -0.02   0.06    -0.20   0.04   0.09
   3   6    -0.04  -0.26   0.12     0.06   0.06  -0.02     0.24   0.08  -0.03
   4   6     0.01   0.20  -0.01    -0.09  -0.03  -0.01    -0.36  -0.01  -0.02
   5   6     0.14   0.06   0.22     0.06   0.02   0.01     0.33  -0.03   0.02
   6   6    -0.02  -0.13  -0.18    -0.02  -0.03  -0.02     0.11  -0.15   0.09
   7   6    -0.05   0.04   0.25     0.00   0.01   0.06    -0.14   0.15   0.00
   8   6     0.15  -0.07  -0.21     0.25  -0.09   0.08    -0.01  -0.06  -0.08
   9   6     0.01   0.02  -0.00    -0.39   0.11   0.12     0.09   0.01  -0.06
  10   6    -0.06   0.00  -0.02     0.43  -0.12  -0.11    -0.15   0.02   0.03
  11   6     0.06  -0.01   0.01    -0.27   0.09  -0.11     0.08  -0.01   0.06
  12   6     0.20  -0.07   0.12     0.06  -0.02  -0.02    -0.01  -0.01  -0.02
  13   6    -0.14   0.05  -0.15    -0.02   0.01  -0.05    -0.01   0.00   0.02
  14   1    -0.05   0.02   0.05    -0.00  -0.00  -0.00    -0.06   0.02   0.03
  15   1     0.01   0.01  -0.02     0.01  -0.00  -0.02     0.07   0.00  -0.11
  16   1    -0.03   0.02   0.02     0.00   0.00  -0.00    -0.01   0.02  -0.01
  17   1     0.05   0.03  -0.07    -0.01  -0.02   0.03     0.00  -0.08   0.07
  18   1     0.09   0.14  -0.11    -0.02  -0.00   0.03    -0.02   0.09   0.06
  19   1     0.01  -0.02   0.05     0.00   0.02   0.03     0.02   0.07   0.15
  20   1    -0.14  -0.29  -0.01     0.03   0.11  -0.01     0.02   0.27  -0.08
  21   1    -0.14  -0.08  -0.07    -0.01   0.03  -0.00    -0.09   0.11  -0.04
  22   1    -0.07   0.09   0.06    -0.06  -0.04  -0.06    -0.28  -0.11  -0.24
  23   1    -0.02   0.09  -0.00     0.08   0.01   0.05     0.16  -0.07   0.08
  24   1     0.09  -0.02   0.00    -0.02   0.00  -0.00    -0.05  -0.01  -0.00
  25   1    -0.09  -0.14  -0.06    -0.00  -0.01  -0.00    -0.01   0.01  -0.02
  26   1    -0.16  -0.01  -0.04    -0.05  -0.02  -0.03    -0.05  -0.10  -0.09
  27   1    -0.16   0.03   0.06    -0.07   0.02   0.03    -0.19   0.04  -0.04
  28   1    -0.02  -0.02   0.10    -0.03  -0.00   0.04     0.04  -0.05   0.04
  29   1    -0.00   0.01  -0.02     0.12  -0.03   0.02    -0.03   0.02   0.03
  30   1     0.09  -0.01  -0.09     0.15  -0.04  -0.00     0.09  -0.00  -0.09
  31   1    -0.09   0.02  -0.00    -0.25   0.07   0.07     0.01  -0.01  -0.04
  32   1    -0.01  -0.00   0.02    -0.22   0.05   0.07     0.09  -0.03  -0.02
  33   1    -0.08   0.03   0.02     0.22  -0.06  -0.05    -0.08   0.03   0.03
  34   1    -0.04   0.02  -0.01     0.23  -0.06  -0.06    -0.04   0.02  -0.00
  35   1    -0.05   0.01   0.01    -0.17   0.05  -0.01     0.04  -0.01   0.00
  36   1    -0.02  -0.00   0.02    -0.16   0.05  -0.01     0.07  -0.02   0.01
  37   1     0.04  -0.01   0.04     0.05  -0.01  -0.02    -0.00   0.00   0.00
  38   1     0.05  -0.01   0.03     0.05  -0.01  -0.02     0.01  -0.00  -0.01
  39   1    -0.11   0.03  -0.01    -0.03   0.01  -0.00     0.02  -0.01  -0.00
  40   1     0.03  -0.01   0.03     0.02  -0.01   0.01    -0.02   0.01  -0.01
  41   1    -0.12   0.04  -0.01    -0.03   0.01  -0.00     0.01  -0.01  -0.00
                     46                     47                     48
                        a                      a                      a 
 Frequencies --  1106.3662              1116.4554              1122.5064
 Red. masses --     8.3549                 7.4911                 7.6891
 Frc consts  --     0.0000                 0.0000                 0.0000
 IR Inten    --     0.7133                 2.9912                 2.1299
 Raman Activ --     0.0000                 0.0000                 0.0000
 Depolar     --     0.0000                 0.0000                 0.0000
 Atom AN      X      Y      Z        X      Y      Z        X      Y      Z
   1   7    -0.01  -0.01   0.04    -0.00  -0.01   0.05     0.01  -0.03   0.02
   2   6    -0.00   0.08  -0.10    -0.01   0.10  -0.12    -0.04   0.09  -0.05
   3   6     0.02  -0.13   0.04     0.05  -0.17   0.05     0.06  -0.12  -0.01
   4   6    -0.03   0.11   0.03    -0.01   0.10   0.05    -0.10   0.13   0.05
   5   6     0.08  -0.02   0.03    -0.06  -0.24  -0.17     0.22   0.04   0.06
   6   6    -0.06  -0.00  -0.02     0.24   0.12   0.30    -0.30  -0.00  -0.11
   7   6     0.04  -0.01   0.03    -0.27   0.10  -0.10     0.33  -0.13  -0.15
   8   6     0.09  -0.04   0.03     0.07  -0.01   0.02    -0.26   0.06   0.18
   9   6    -0.21   0.07   0.13    -0.06   0.02  -0.02     0.04  -0.03   0.10
  10   6    -0.02   0.01  -0.26    -0.04   0.01  -0.02     0.06  -0.01  -0.02
  11   6     0.22  -0.06  -0.03    -0.13   0.03   0.23    -0.17   0.04   0.17
  12   6    -0.47   0.13  -0.09     0.12  -0.02  -0.24     0.11  -0.02  -0.20
  13   6     0.30  -0.09   0.25    -0.09   0.02   0.09    -0.07   0.02   0.06
  14   1    -0.03   0.01   0.03    -0.03   0.01   0.03    -0.04   0.01   0.03
  15   1     0.01   0.01  -0.03     0.02   0.01  -0.04     0.02   0.01  -0.04
  16   1    -0.01   0.01   0.00    -0.02   0.02   0.01    -0.00   0.02  -0.01
  17   1     0.02   0.00  -0.02     0.04  -0.01  -0.02     0.00   0.00  -0.00
  18   1     0.04   0.08  -0.04     0.04   0.10  -0.04     0.02   0.08  -0.03
  19   1     0.00  -0.01   0.05     0.01   0.01   0.07    -0.01  -0.03   0.07
  20   1    -0.08  -0.13  -0.03    -0.11  -0.17  -0.04    -0.07  -0.05  -0.05
  21   1    -0.09  -0.01  -0.04    -0.08  -0.01  -0.03    -0.09   0.04  -0.03
  22   1    -0.01   0.04   0.02     0.06   0.04   0.05    -0.06   0.02  -0.03
  23   1    -0.03  -0.01  -0.02    -0.15  -0.13  -0.12     0.05  -0.02   0.02
  24   1     0.05   0.00   0.03    -0.03  -0.05  -0.03     0.11   0.05   0.09
  25   1    -0.10  -0.01  -0.06     0.00   0.08   0.02    -0.16   0.02  -0.10
  26   1    -0.00  -0.00  -0.00     0.27   0.04   0.13    -0.10  -0.04  -0.09
  27   1     0.03  -0.01  -0.00    -0.07   0.04  -0.01     0.27  -0.08  -0.08
  28   1     0.05  -0.02   0.00    -0.02   0.02  -0.04     0.18  -0.05  -0.08
  29   1     0.08  -0.02   0.01     0.12  -0.04  -0.04    -0.11   0.03   0.06
  30   1     0.09  -0.03  -0.01     0.09  -0.02  -0.01    -0.09   0.02   0.06
  31   1    -0.07   0.02   0.03     0.02  -0.01  -0.02     0.10  -0.02   0.02
  32   1    -0.05   0.01   0.04     0.04  -0.01  -0.02     0.07  -0.02   0.01
  33   1     0.01  -0.00  -0.07     0.08  -0.02  -0.02     0.08  -0.02  -0.02
  34   1     0.03   0.00  -0.09     0.08  -0.02  -0.02     0.08  -0.03  -0.01
  35   1     0.15  -0.05  -0.05    -0.02   0.00   0.06    -0.05   0.01   0.05
  36   1     0.16  -0.04  -0.04    -0.01  -0.00   0.06    -0.05   0.01   0.04
  37   1    -0.21   0.06  -0.00     0.15  -0.04  -0.09     0.13  -0.03  -0.08
  38   1    -0.21   0.06  -0.00     0.14  -0.04  -0.09     0.12  -0.03  -0.07
  39   1     0.18  -0.05   0.03     0.09  -0.01  -0.03     0.06  -0.01  -0.03
  40   1    -0.00   0.00  -0.01    -0.15   0.05  -0.10    -0.11   0.03  -0.07
  41   1     0.18  -0.05   0.03     0.08  -0.03  -0.03     0.06  -0.02  -0.03
                     49                     50                     51
                        a                      a                      a 
 Frequencies --  1135.9071              1147.3843              1173.7460
 Red. masses --     8.5315                 7.4829                 6.0976
 Frc consts  --     0.0000                 0.0000                 0.0000
 IR Inten    --     3.0335                 3.5530                 4.3481
 Raman Activ --     0.0000                 0.0000                 0.0000
 Depolar     --     0.0000                 0.0000                 0.0000
 Atom AN      X      Y      Z        X      Y      Z        X      Y      Z
   1   7    -0.03   0.04  -0.04    -0.05  -0.12  -0.03     0.04  -0.09   0.02
   2   6     0.07  -0.11   0.09     0.08   0.26   0.07    -0.10   0.19  -0.03
   3   6    -0.11   0.15  -0.02    -0.07  -0.29  -0.30     0.09  -0.19  -0.07
   4   6     0.12  -0.14  -0.05     0.18  -0.02   0.39    -0.01   0.08   0.05
   5   6    -0.10   0.20   0.11    -0.07   0.21  -0.12    -0.07  -0.17   0.02
   6   6     0.05  -0.15  -0.15    -0.03  -0.14   0.08     0.02   0.23  -0.14
   7   6    -0.03   0.09   0.21     0.03   0.13  -0.03    -0.02  -0.25   0.15
   8   6    -0.04  -0.04  -0.26    -0.01  -0.09   0.03     0.08   0.19  -0.14
   9   6     0.06   0.01   0.22     0.00   0.07  -0.03     0.01  -0.18   0.07
  10   6    -0.07   0.00  -0.22    -0.01  -0.04   0.02     0.03   0.13  -0.07
  11   6    -0.03   0.01   0.33     0.01   0.03  -0.03    -0.01  -0.10   0.07
  12   6     0.03  -0.00  -0.32    -0.01  -0.02   0.03     0.02   0.08  -0.06
  13   6    -0.03   0.01   0.18     0.01   0.01  -0.02    -0.02  -0.05   0.04
  14   1     0.05  -0.02  -0.03    -0.05   0.03   0.09    -0.06   0.02   0.05
  15   1    -0.04  -0.01   0.06     0.03   0.05   0.01     0.06   0.02  -0.07
  16   1     0.02  -0.02  -0.00     0.08   0.03  -0.11    -0.01   0.04  -0.03
  17   1    -0.03   0.02   0.00    -0.07   0.12   0.02     0.01  -0.01   0.02
  18   1    -0.02  -0.11   0.01    -0.01  -0.03  -0.05    -0.02   0.08   0.03
  19   1     0.01   0.03  -0.10    -0.08  -0.15  -0.00    -0.07  -0.16   0.07
  20   1     0.09   0.06   0.07    -0.08  -0.02  -0.13    -0.00   0.15  -0.07
  21   1     0.08  -0.04   0.02     0.24   0.22   0.17     0.21   0.07   0.15
  22   1     0.02  -0.03   0.01     0.06  -0.11  -0.10    -0.11  -0.02  -0.08
  23   1     0.01   0.10   0.04    -0.03  -0.07   0.00     0.13   0.08   0.07
  24   1    -0.04   0.02  -0.03    -0.21   0.08  -0.01    -0.05  -0.10  -0.09
  25   1     0.02  -0.10  -0.01    -0.00   0.06  -0.01     0.22  -0.03   0.15
  26   1    -0.12  -0.02  -0.04    -0.03  -0.10  -0.09    -0.16   0.11   0.01
  27   1    -0.15   0.02   0.02    -0.12   0.01  -0.07     0.04   0.03   0.18
  28   1     0.01  -0.03   0.10     0.10  -0.06   0.04    -0.17   0.11  -0.04
  29   1    -0.02   0.02  -0.02    -0.03   0.03   0.07    -0.04  -0.02  -0.15
  30   1     0.05   0.00  -0.11     0.06   0.01  -0.06    -0.09  -0.03   0.10
  31   1    -0.01  -0.01   0.03    -0.06   0.00  -0.04     0.05   0.02   0.11
  32   1     0.06  -0.03   0.06     0.05  -0.03   0.02    -0.11   0.07  -0.05
  33   1     0.01   0.01  -0.04    -0.01   0.01   0.04    -0.02  -0.02  -0.10
  34   1     0.04  -0.00  -0.08     0.03   0.00  -0.02    -0.07  -0.02   0.07
  35   1    -0.00  -0.01   0.07    -0.02   0.00  -0.02     0.04   0.01   0.07
  36   1     0.02  -0.01   0.08     0.02  -0.01   0.00    -0.05   0.04  -0.03
  37   1     0.09  -0.02  -0.09    -0.01   0.01   0.02     0.01  -0.02  -0.07
  38   1     0.10  -0.02  -0.11    -0.00   0.00  -0.00    -0.01  -0.02   0.03
  39   1     0.16  -0.03  -0.03    -0.01  -0.00   0.01    -0.01   0.02  -0.03
  40   1    -0.17   0.05  -0.12     0.01  -0.01   0.01    -0.03   0.03  -0.02
  41   1     0.14  -0.05  -0.03    -0.02   0.00  -0.00     0.07  -0.01   0.02
                     52                     53                     54
                        a                      a                      a 
 Frequencies --  1198.6968              1219.0222              1234.2811
 Red. masses --     5.8942                 3.9065                 3.9210
 Frc consts  --     0.0000                 0.0000                 0.0000
 IR Inten    --     0.4125                 9.0656                 7.2521
 Raman Activ --     0.0000                 0.0000                 0.0000
 Depolar     --     0.0000                 0.0000                 0.0000
 Atom AN      X      Y      Z        X      Y      Z        X      Y      Z
   1   7     0.04  -0.03   0.03     0.19  -0.04   0.12     0.10   0.02   0.07
   2   6    -0.07   0.06  -0.03    -0.23   0.10  -0.16    -0.05  -0.03  -0.07
   3   6     0.04  -0.06   0.01     0.00  -0.05   0.06    -0.06   0.06  -0.02
   4   6    -0.00   0.03  -0.04     0.07  -0.04  -0.11     0.01  -0.06   0.08
   5   6    -0.04  -0.07   0.03    -0.10   0.06   0.06     0.06   0.11  -0.06
   6   6    -0.01   0.07  -0.05    -0.01  -0.08  -0.03     0.01  -0.07   0.06
   7   6     0.01  -0.03   0.03     0.01   0.11  -0.01    -0.02  -0.05  -0.02
   8   6    -0.02  -0.08  -0.03    -0.04  -0.11   0.01     0.06   0.19   0.02
   9   6     0.07   0.17   0.02     0.01   0.08  -0.00    -0.07  -0.23  -0.01
  10   6    -0.07  -0.27  -0.03    -0.01  -0.01   0.01     0.04   0.15   0.01
  11   6     0.09   0.31   0.03    -0.03  -0.06  -0.01     0.00   0.02  -0.00
  12   6    -0.09  -0.34  -0.03     0.03   0.12   0.02    -0.05  -0.18  -0.00
  13   6     0.06   0.23   0.02    -0.03  -0.09  -0.01     0.05   0.17   0.01
  14   1    -0.03   0.01   0.01    -0.08   0.01   0.00    -0.02   0.00  -0.02
  15   1     0.03   0.00  -0.05     0.10  -0.02  -0.18     0.04  -0.03  -0.08
  16   1    -0.02   0.02   0.01    -0.14   0.06   0.09    -0.08   0.02   0.08
  17   1     0.03  -0.00  -0.02     0.23   0.05  -0.24     0.18   0.07  -0.21
  18   1    -0.03   0.04   0.05    -0.21   0.00   0.37    -0.16  -0.11   0.26
  19   1    -0.04  -0.11   0.02    -0.14  -0.33  -0.03    -0.00   0.01  -0.04
  20   1     0.03   0.11  -0.01     0.08   0.21   0.02    -0.05  -0.12  -0.00
  21   1     0.09  -0.01   0.05     0.07  -0.07   0.02    -0.10   0.02  -0.06
  22   1    -0.02   0.02   0.00     0.14   0.05   0.11     0.09  -0.02   0.02
  23   1     0.03   0.04   0.02    -0.04   0.05  -0.00    -0.01  -0.07  -0.01
  24   1     0.04  -0.03  -0.01     0.10   0.02   0.04    -0.10   0.04  -0.01
  25   1     0.06  -0.01   0.04    -0.06  -0.03  -0.05    -0.03   0.02  -0.02
  26   1     0.02   0.05   0.04     0.11   0.01   0.07    -0.09  -0.07  -0.09
  27   1     0.12  -0.03  -0.01     0.03  -0.03  -0.08    -0.20   0.07   0.08
  28   1    -0.14   0.05   0.03     0.01  -0.02   0.05     0.19  -0.05  -0.08
  29   1     0.11  -0.02   0.02     0.02   0.01   0.07    -0.11   0.00  -0.08
  30   1    -0.14   0.06  -0.02     0.03   0.02  -0.07     0.10  -0.07   0.09
  31   1     0.07  -0.05  -0.12    -0.06   0.00  -0.04     0.05   0.02   0.12
  32   1    -0.11  -0.01   0.13     0.09  -0.04   0.02    -0.01   0.05  -0.13
  33   1     0.12   0.02   0.14    -0.06   0.02   0.02     0.14  -0.06  -0.12
  34   1    -0.11   0.10  -0.13     0.10  -0.02  -0.03    -0.14   0.01   0.12
  35   1    -0.04  -0.05  -0.18    -0.04   0.02   0.05     0.17  -0.05  -0.05
  36   1    -0.01  -0.07   0.19     0.07  -0.00  -0.05    -0.16   0.04   0.05
  37   1     0.07   0.04   0.19    -0.06  -0.00  -0.05     0.19  -0.02   0.06
  38   1    -0.04   0.09  -0.19     0.06  -0.04   0.06    -0.16   0.08  -0.06
  39   1     0.18  -0.12   0.10    -0.07   0.05  -0.04     0.12  -0.08   0.07
  40   1    -0.03  -0.10  -0.01     0.02   0.04   0.01    -0.02  -0.07  -0.00
  41   1    -0.21  -0.00  -0.10     0.08   0.00   0.04    -0.15   0.00  -0.08
                     55                     56                     57
                        a                      a                      a 
 Frequencies --  1242.0522              1250.4143              1265.1630
 Red. masses --     3.4213                 3.2505                 2.8146
 Frc consts  --     0.0000                 0.0000                 0.0000
 IR Inten    --     5.0009                 6.1711                 3.6364
 Raman Activ --     0.0000                 0.0000                 0.0000
 Depolar     --     0.0000                 0.0000                 0.0000
 Atom AN      X      Y      Z        X      Y      Z        X      Y      Z
   1   7     0.05   0.03   0.04     0.06   0.04   0.05     0.02  -0.01   0.01
   2   6     0.01  -0.06  -0.03     0.04  -0.07  -0.02     0.04   0.01   0.01
   3   6    -0.02   0.07  -0.04    -0.05   0.08  -0.10    -0.07   0.03  -0.07
   4   6    -0.07  -0.00   0.11    -0.03   0.00   0.15     0.15   0.03  -0.06
   5   6     0.12   0.01  -0.14     0.07  -0.03  -0.02     0.04  -0.03   0.26
   6   6    -0.06   0.03   0.10     0.03   0.10  -0.06     0.06   0.03   0.04
   7   6     0.07  -0.03  -0.06    -0.04  -0.10   0.10    -0.06  -0.10  -0.08
   8   6     0.11  -0.09   0.00    -0.09   0.04  -0.06     0.06   0.05   0.07
   9   6     0.17   0.05  -0.03    -0.06   0.12   0.06     0.01   0.02  -0.04
  10   6     0.10  -0.11  -0.08    -0.14  -0.09   0.03     0.05  -0.04  -0.00
  11   6     0.11  -0.02   0.07    -0.08   0.08  -0.04     0.06   0.03   0.01
  12   6     0.05   0.05  -0.11    -0.02   0.08   0.09     0.03   0.03  -0.04
  13   6    -0.03  -0.06   0.07    -0.02  -0.09  -0.07    -0.01  -0.02   0.03
  14   1    -0.00  -0.00  -0.02    -0.00  -0.00  -0.02    -0.01   0.00   0.00
  15   1     0.01  -0.02  -0.03     0.01  -0.03  -0.03     0.01   0.00  -0.00
  16   1    -0.04  -0.00   0.05    -0.05  -0.00   0.06    -0.01   0.01   0.00
  17   1     0.11   0.05  -0.14     0.15   0.07  -0.17     0.02   0.02  -0.02
  18   1    -0.09  -0.09   0.15    -0.13  -0.15   0.20    -0.07  -0.09   0.09
  19   1     0.04   0.12  -0.01     0.08   0.21  -0.03     0.03   0.07  -0.06
  20   1    -0.10  -0.21  -0.03    -0.12  -0.28  -0.04     0.02   0.03  -0.00
  21   1    -0.10   0.06  -0.05    -0.01   0.09   0.01     0.18  -0.03   0.09
  22   1     0.05  -0.02  -0.00    -0.10  -0.06  -0.10    -0.41  -0.05  -0.21
  23   1     0.02  -0.11  -0.01     0.07  -0.01   0.03    -0.37   0.02  -0.20
  24   1    -0.06   0.05   0.03    -0.17  -0.04  -0.09     0.02  -0.10  -0.08
  25   1     0.14   0.12   0.09     0.08  -0.02   0.06    -0.27  -0.08  -0.16
  26   1    -0.07  -0.06  -0.09    -0.14   0.02  -0.05     0.01   0.01   0.02
  27   1    -0.02   0.01   0.00     0.11  -0.03   0.05    -0.07   0.04   0.06
  28   1    -0.23   0.06   0.05    -0.04   0.03  -0.02     0.20  -0.04  -0.13
  29   1    -0.16   0.05   0.08     0.23  -0.06  -0.07     0.14  -0.05  -0.06
  30   1    -0.24   0.08   0.03     0.02  -0.01  -0.02    -0.21   0.04   0.10
  31   1    -0.21   0.04   0.00     0.25  -0.08  -0.11    -0.12   0.03   0.01
  32   1    -0.27   0.06   0.12     0.10  -0.04   0.03     0.01  -0.01  -0.00
  33   1    -0.27   0.09   0.10     0.17  -0.03   0.03     0.02  -0.00   0.01
  34   1    -0.18   0.06  -0.01     0.22  -0.03  -0.11    -0.18   0.06   0.03
  35   1    -0.23   0.06   0.07     0.04  -0.02  -0.05    -0.18   0.04   0.02
  36   1    -0.10   0.02   0.05     0.24  -0.08  -0.05     0.02  -0.01   0.02
  37   1    -0.15   0.04  -0.02    -0.07   0.01  -0.01    -0.06   0.01  -0.01
  38   1     0.01  -0.02   0.00     0.19  -0.06   0.01    -0.02  -0.00   0.02
  39   1     0.00   0.03  -0.04    -0.10   0.04  -0.03    -0.00   0.01  -0.02
  40   1    -0.05   0.05  -0.04     0.06   0.02   0.03    -0.02   0.02  -0.01
  41   1     0.10  -0.02   0.02     0.04   0.02   0.05     0.03  -0.01   0.01
                     58                     59                     60
                        a                      a                      a 
 Frequencies --  1269.6914              1275.0974              1281.1273
 Red. masses --     3.0714                 1.6206                 2.5592
 Frc consts  --     0.0000                 0.0000                 0.0000
 IR Inten    --     2.9655                 1.1352                 2.2638
 Raman Activ --     0.0000                 0.0000                 0.0000
 Depolar     --     0.0000                 0.0000                 0.0000
 Atom AN      X      Y      Z        X      Y      Z        X      Y      Z
   1   7    -0.02  -0.01  -0.02    -0.01   0.00  -0.00     0.00   0.01   0.00
   2   6    -0.04   0.04  -0.00    -0.01  -0.00  -0.00     0.01  -0.01   0.00
   3   6     0.01  -0.03   0.09     0.02   0.00   0.03     0.01  -0.02  -0.03
   4   6     0.03  -0.05  -0.04    -0.04  -0.01  -0.00    -0.09  -0.01   0.08
   5   6     0.04   0.11  -0.09     0.05   0.03  -0.10    -0.11  -0.05   0.03
   6   6     0.00  -0.07   0.08    -0.06  -0.01   0.03     0.04  -0.00  -0.18
   7   6    -0.02  -0.11  -0.01     0.02  -0.07   0.03    -0.04   0.07   0.01
   8   6     0.06   0.20   0.00    -0.03  -0.09  -0.05    -0.09   0.04   0.07
   9   6    -0.01  -0.03   0.01     0.01   0.03   0.03    -0.03  -0.07  -0.07
  10   6    -0.05  -0.14  -0.01    -0.03   0.00  -0.01     0.07  -0.08   0.03
  11   6     0.04   0.18   0.01    -0.04  -0.03   0.00     0.12   0.06  -0.01
  12   6     0.01   0.05   0.01     0.01   0.09   0.03     0.07   0.03  -0.07
  13   6    -0.04  -0.13  -0.01     0.02   0.06  -0.01    -0.02  -0.04   0.05
  14   1    -0.00   0.00   0.01     0.00  -0.00  -0.00     0.00   0.00  -0.00
  15   1    -0.00   0.01   0.00    -0.00   0.00   0.00    -0.00  -0.00   0.00
  16   1     0.02   0.00  -0.02     0.01  -0.00  -0.00    -0.00  -0.00   0.01
  17   1    -0.06  -0.03   0.07    -0.02  -0.01   0.02     0.03   0.01  -0.03
  18   1     0.06   0.09  -0.08     0.03   0.04  -0.03    -0.01  -0.02   0.00
  19   1    -0.07  -0.18   0.00    -0.02  -0.05   0.01     0.03   0.08   0.03
  20   1     0.08   0.16   0.04     0.00   0.01   0.01    -0.04  -0.08  -0.02
  21   1    -0.15  -0.06  -0.10    -0.06  -0.00  -0.04    -0.02   0.06   0.01
  22   1     0.20   0.04   0.13     0.11   0.02   0.06     0.11  -0.01   0.04
  23   1    -0.04  -0.07  -0.03     0.01  -0.06  -0.00     0.40   0.16   0.24
  24   1    -0.02   0.07   0.04     0.02   0.06   0.06    -0.17  -0.08  -0.12
  25   1     0.02   0.03   0.01     0.16   0.07   0.10    -0.14  -0.14  -0.10
  26   1    -0.12  -0.09  -0.12    -0.09  -0.05  -0.08     0.23   0.13   0.20
  27   1    -0.26   0.09   0.13    -0.05   0.02   0.05     0.05  -0.02  -0.05
  28   1     0.21  -0.05  -0.11    -0.04   0.02  -0.00     0.17  -0.05  -0.04
  29   1     0.05  -0.04  -0.13     0.23  -0.05  -0.01     0.07  -0.02  -0.01
[...]
  33   1     0.02   0.14  -0.08     0.04   0.28  -0.17     0.03   0.21  -0.13
  34   1    -0.04  -0.10  -0.08    -0.09  -0.20  -0.15    -0.08  -0.17  -0.13
  35   1     0.02   0.15  -0.09    -0.01  -0.11   0.06    -0.04  -0.30   0.18
  36   1    -0.06  -0.14  -0.11     0.05   0.12   0.09     0.13   0.28   0.22
  37   1    -0.07  -0.56   0.33     0.01   0.06  -0.03    -0.01  -0.08   0.05
  38   1     0.22   0.47   0.36    -0.02  -0.04  -0.03     0.03   0.07   0.05
  39   1    -0.02  -0.03  -0.02    -0.00  -0.00  -0.00    -0.01  -0.02  -0.01
  40   1     0.04  -0.01  -0.04     0.00   0.00  -0.00     0.02  -0.00  -0.02
  41   1     0.00   0.04  -0.02    -0.00  -0.00   0.00     0.00   0.02  -0.01
                    103                    104                    105
                        a                      a                      a 
 Frequencies --  2952.5299              2952.8915              2954.1535
 Red. masses --     1.8731                 1.4542                 1.5725
 Frc consts  --     0.0000                 0.0000                 0.0000
 IR Inten    --     0.7007                 1.7673                22.0699
 Raman Activ --     0.0000                 0.0000                 0.0000
 Depolar     --     0.0000                 0.0000                 0.0000
 Atom AN      X      Y      Z        X      Y      Z        X      Y      Z
   1   7    -0.00  -0.00   0.00     0.00   0.00  -0.00    -0.00  -0.00  -0.00
   2   6     0.18   0.08   0.17    -0.03  -0.01  -0.02     0.00   0.01   0.00
   3   6     0.05  -0.01  -0.08    -0.01  -0.00   0.01     0.02  -0.01  -0.01
   4   6     0.01  -0.02  -0.01     0.00  -0.02   0.01     0.03  -0.09  -0.01
   5   6    -0.02   0.01   0.02    -0.02   0.01   0.02     0.03  -0.01  -0.03
   6   6    -0.00  -0.01   0.01    -0.00  -0.01   0.01    -0.02   0.17  -0.03
   7   6     0.00  -0.01   0.01     0.01  -0.02   0.07     0.01   0.04  -0.00
   8   6    -0.00   0.00  -0.01    -0.02   0.01  -0.08     0.01   0.02   0.03
   9   6    -0.00  -0.00  -0.01     0.02  -0.00   0.09     0.01   0.01   0.05
  10   6    -0.00   0.00  -0.02    -0.02   0.02  -0.10    -0.00   0.01  -0.01
  11   6     0.00  -0.00   0.02     0.01  -0.00   0.06    -0.01   0.01  -0.04
  12   6     0.00   0.00   0.00    -0.00   0.00  -0.02    -0.00   0.00  -0.02
  13   6     0.00   0.00  -0.00    -0.00   0.00  -0.00    -0.00  -0.00   0.01
  14   1    -0.00   0.00  -0.00     0.00  -0.00   0.00    -0.00   0.00   0.00
  15   1     0.01  -0.01   0.00    -0.00   0.00  -0.00    -0.00  -0.00   0.00
  16   1     0.01   0.01   0.02    -0.00  -0.00  -0.00     0.00   0.00   0.01
  17   1    -0.33  -0.48  -0.52     0.05   0.07   0.07    -0.02  -0.02  -0.02
  18   1    -0.31   0.18  -0.09     0.05  -0.03   0.01     0.01  -0.01   0.00
  19   1     0.04  -0.02   0.00    -0.01   0.00  -0.00    -0.06   0.03  -0.02
  20   1    -0.19   0.06   0.28     0.02  -0.01  -0.03    -0.03   0.01   0.04
  21   1    -0.05   0.01   0.07    -0.02   0.00   0.03    -0.14   0.04   0.21
  22   1     0.01   0.07  -0.04     0.01   0.07  -0.04     0.04   0.30  -0.18
  23   1     0.06  -0.02  -0.10     0.06  -0.02  -0.10    -0.09   0.03   0.13
  24   1    -0.01  -0.03   0.03    -0.00  -0.02   0.02     0.00   0.00  -0.01
  25   1    -0.00  -0.00   0.00     0.01  -0.01  -0.01     0.19  -0.06  -0.28
  26   1     0.01   0.04  -0.03     0.01   0.05  -0.04    -0.10  -0.56   0.40
  27   1     0.01   0.05  -0.03     0.04   0.24  -0.14    -0.01  -0.08   0.05
  28   1    -0.01  -0.03  -0.02    -0.09  -0.17  -0.14    -0.03  -0.05  -0.05
  29   1    -0.00  -0.03   0.02    -0.03  -0.24   0.14     0.01   0.03  -0.02
  30   1     0.01   0.02   0.02     0.10   0.21   0.17    -0.04  -0.09  -0.07
  31   1    -0.00  -0.01   0.01     0.04   0.28  -0.16     0.01   0.11  -0.06
  32   1     0.01   0.02   0.01    -0.12  -0.26  -0.21    -0.06  -0.13  -0.11
  33   1    -0.01  -0.05   0.03    -0.04  -0.33   0.20    -0.00  -0.04   0.02
  34   1     0.02   0.04   0.03     0.12   0.27   0.21     0.00   0.01   0.00
  35   1     0.01   0.07  -0.04     0.02   0.17  -0.10    -0.01  -0.11   0.06
  36   1    -0.03  -0.06  -0.05    -0.07  -0.16  -0.12     0.04   0.09   0.07
  37   1     0.00   0.01  -0.00    -0.01  -0.07   0.04    -0.01  -0.06   0.03
  38   1    -0.00  -0.01  -0.01     0.02   0.05   0.04     0.02   0.04   0.03
  39   1     0.00   0.00   0.00     0.00   0.01   0.00    -0.00  -0.01  -0.01
  40   1    -0.00   0.00   0.00     0.00  -0.00  -0.00     0.01  -0.00  -0.01
  41   1    -0.00  -0.00   0.00    -0.00  -0.01   0.00     0.00   0.01  -0.01
                    106                    107                    108
                        a                      a                      a 
 Frequencies --  2956.4483              2959.5632              2964.7310
 Red. masses --     1.5393                 1.5557                 1.6003
 Frc consts  --     0.0000                 0.0000                 0.0000
 IR Inten    --     5.9827                 9.1519                12.7710
 Raman Activ --     0.0000                 0.0000                 0.0000
 Depolar     --     0.0000                 0.0000                 0.0000
 Atom AN      X      Y      Z        X      Y      Z        X      Y      Z
   1   7    -0.00   0.00  -0.00     0.00  -0.00   0.00    -0.00  -0.00   0.00
   2   6    -0.04  -0.01  -0.04     0.01   0.00   0.01    -0.06  -0.03  -0.07
   3   6     0.01  -0.01  -0.00    -0.00   0.00   0.01    -0.01   0.03  -0.21
   4   6     0.03  -0.15   0.00    -0.01   0.05  -0.01     0.01   0.02  -0.03
   5   6    -0.05   0.06   0.07     0.02  -0.00  -0.04     0.00   0.01  -0.01
   6   6     0.01  -0.04   0.00    -0.00   0.07  -0.03     0.00   0.01  -0.00
   7   6    -0.01   0.01  -0.04    -0.01   0.03  -0.07     0.00   0.00  -0.00
   8   6    -0.00   0.01  -0.02    -0.02   0.02  -0.10     0.00   0.00   0.00
   9   6    -0.01   0.01  -0.04     0.00   0.00   0.01     0.00   0.00   0.01
  10   6     0.01  -0.00   0.03     0.02  -0.01   0.07     0.00   0.00   0.00
  11   6     0.01  -0.00   0.04     0.03  -0.01   0.12     0.00   0.00   0.00
  12   6     0.00  -0.00   0.02     0.01  -0.00   0.05     0.00   0.00   0.00
  13   6     0.00  -0.00  -0.01     0.01  -0.00  -0.02    -0.00  -0.00  -0.00
  14   1    -0.00  -0.00   0.00    -0.00   0.00  -0.00     0.00   0.00  -0.00
  15   1    -0.00   0.00  -0.00     0.00  -0.00   0.00     0.00  -0.00   0.00
  16   1     0.00   0.00   0.01    -0.00   0.00  -0.00    -0.00  -0.00  -0.01
  17   1     0.06   0.09   0.10    -0.01  -0.02  -0.02     0.13   0.18   0.19
  18   1     0.09  -0.05   0.03    -0.02   0.01  -0.01     0.08  -0.05   0.02
  19   1    -0.04   0.02  -0.02    -0.01   0.00  -0.00     0.45  -0.22   0.13
  20   1    -0.01   0.00   0.02     0.03  -0.01  -0.04    -0.43   0.13   0.60
  21   1    -0.20   0.05   0.31     0.05  -0.01  -0.08    -0.03   0.01   0.05
  22   1     0.07   0.52  -0.31    -0.02  -0.16   0.09    -0.01  -0.10   0.05
  23   1     0.23  -0.09  -0.36    -0.08   0.04   0.13    -0.00   0.00  -0.00
  24   1    -0.02  -0.14   0.11     0.00  -0.02   0.01    -0.00  -0.04   0.03
  25   1    -0.05   0.02   0.08     0.04  -0.01  -0.06     0.01  -0.00  -0.01
  26   1     0.03   0.13  -0.09    -0.04  -0.23   0.16    -0.01  -0.03   0.02
  27   1    -0.02  -0.14   0.08    -0.03  -0.23   0.13    -0.00  -0.01   0.00
  28   1     0.05   0.10   0.08     0.07   0.14   0.11    -0.00  -0.00  -0.00
  29   1    -0.01  -0.08   0.05    -0.04  -0.31   0.18    -0.00  -0.00   0.00
  30   1     0.01   0.03   0.02     0.11   0.24   0.19    -0.00  -0.00  -0.00
  31   1    -0.01  -0.11   0.07     0.00   0.02  -0.01     0.00   0.01  -0.01
  32   1     0.04   0.09   0.07    -0.01  -0.03  -0.02    -0.01  -0.01  -0.01
  33   1     0.01   0.08  -0.04     0.03   0.20  -0.11     0.00   0.01  -0.01
  34   1    -0.03  -0.07  -0.05    -0.08  -0.17  -0.13    -0.00  -0.01  -0.01
  35   1     0.01   0.11  -0.06     0.04   0.32  -0.19     0.00   0.01  -0.01
  36   1    -0.05  -0.10  -0.08    -0.13  -0.29  -0.23    -0.01  -0.01  -0.01
  37   1     0.01   0.06  -0.04     0.02   0.13  -0.07     0.00   0.00  -0.00
  38   1    -0.02  -0.05  -0.04    -0.05  -0.11  -0.08    -0.00  -0.00  -0.00
  39   1     0.01   0.01   0.01     0.02   0.03   0.03     0.00   0.00   0.00
  40   1    -0.01   0.00   0.02    -0.04   0.01   0.04     0.00  -0.00  -0.00
  41   1    -0.00  -0.01   0.01    -0.00  -0.04   0.02    -0.00   0.00  -0.00
                    109                    110                    111
                        a                      a                      a 
 Frequencies --  2967.6715              2969.6651              2986.7877
 Red. masses --     1.5613                 1.5588                 1.5798
 Frc consts  --     0.0000                 0.0000                 0.0000
 IR Inten    --   143.3262               184.7270                 8.4423
 Raman Activ --     0.0000                 0.0000                 0.0000
 Depolar     --     0.0000                 0.0000                 0.0000
 Atom AN      X      Y      Z        X      Y      Z        X      Y      Z
   1   7    -0.00  -0.00  -0.00    -0.00  -0.00  -0.00    -0.00   0.00  -0.00
   2   6    -0.01   0.01  -0.00    -0.01   0.01  -0.00     0.15  -0.17  -0.01
   3   6     0.02  -0.01  -0.01     0.01  -0.01  -0.01     0.03  -0.02   0.00
   4   6     0.02  -0.07  -0.01     0.02  -0.05  -0.02     0.01  -0.01  -0.00
   5   6     0.06  -0.10  -0.06     0.06  -0.08  -0.07     0.01  -0.01  -0.00
   6   6     0.01  -0.07   0.01     0.02  -0.03  -0.02     0.00  -0.00  -0.00
   7   6     0.00  -0.03   0.04    -0.01  -0.01  -0.05    -0.00  -0.00  -0.00
   8   6     0.01  -0.03   0.05    -0.02  -0.00  -0.10    -0.00  -0.00  -0.00
   9   6     0.01  -0.01   0.07    -0.02   0.00  -0.08    -0.00  -0.00  -0.00
  10   6     0.01  -0.01   0.07    -0.01   0.01  -0.07    -0.00   0.00  -0.00
  11   6     0.01  -0.01   0.05    -0.01   0.00  -0.05    -0.00  -0.00  -0.00
  12   6     0.00  -0.00   0.02    -0.00   0.00  -0.02     0.00   0.00   0.00
  13   6     0.01   0.00  -0.02    -0.01   0.00   0.02    -0.00   0.00   0.00
  14   1     0.00   0.00  -0.00    -0.00   0.00  -0.00     0.00  -0.00  -0.00
  15   1    -0.00  -0.00  -0.00    -0.00  -0.00  -0.00     0.02  -0.01   0.01
  16   1     0.00   0.00   0.01     0.00   0.00   0.01    -0.01  -0.01  -0.01
  17   1    -0.01  -0.02  -0.02    -0.01  -0.01  -0.01     0.21   0.24   0.30
  18   1     0.05  -0.02   0.02     0.05  -0.02   0.01    -0.73   0.36  -0.26
  19   1    -0.03   0.01  -0.01    -0.01   0.00  -0.01    -0.10   0.05  -0.03
  20   1    -0.03   0.01   0.05    -0.04   0.01   0.06    -0.02   0.00   0.03
  21   1    -0.11   0.03   0.17    -0.09   0.02   0.14    -0.02   0.01   0.03
  22   1     0.03   0.22  -0.13     0.02   0.13  -0.08     0.01   0.04  -0.02
  23   1    -0.26   0.09   0.41    -0.25   0.10   0.39    -0.02   0.01   0.03
  24   1     0.04   0.26  -0.19     0.03   0.17  -0.13     0.00   0.03  -0.02
  25   1    -0.09   0.03   0.13    -0.08   0.03   0.12    -0.01   0.00   0.01
  26   1     0.04   0.22  -0.16     0.02   0.07  -0.05     0.00   0.01  -0.01
  27   1     0.02   0.16  -0.09    -0.02  -0.11   0.06     0.00   0.00  -0.00
  28   1    -0.03  -0.06  -0.04     0.07   0.13   0.11     0.00   0.00   0.00
  29   1     0.02   0.19  -0.11    -0.03  -0.26   0.15    -0.00  -0.00   0.00
  30   1    -0.04  -0.10  -0.07     0.12   0.26   0.21     0.00   0.00   0.00
  31   1     0.03   0.21  -0.12    -0.03  -0.21   0.12     0.00   0.00  -0.00
  32   1    -0.07  -0.16  -0.12     0.10   0.21   0.16     0.00   0.00   0.00
  33   1     0.03   0.20  -0.12    -0.03  -0.20   0.12    -0.00  -0.00   0.00
  34   1    -0.07  -0.15  -0.11     0.08   0.18   0.14     0.00   0.00   0.00
  35   1     0.02   0.15  -0.09    -0.02  -0.14   0.08     0.00   0.00  -0.00
  36   1    -0.06  -0.13  -0.10     0.06   0.13   0.10     0.00   0.00   0.00
  37   1     0.01   0.06  -0.04    -0.01  -0.06   0.03     0.00  -0.00   0.00
  38   1    -0.02  -0.05  -0.04     0.02   0.05   0.04    -0.00  -0.00  -0.00
  39   1     0.01   0.02   0.02    -0.01  -0.03  -0.02    -0.00  -0.01  -0.00
  40   1    -0.03   0.01   0.03     0.03  -0.01  -0.04     0.01  -0.00  -0.01
  41   1    -0.00  -0.03   0.02     0.00   0.03  -0.02     0.00   0.00  -0.00
                    112                    113                    114
                        a                      a                      a 
 Frequencies --  2992.1474              2995.1757              3010.3203
 Red. masses --     1.9033                 1.9395                 1.2907
 Frc consts  --     0.0000                 0.0000                 0.0000
 IR Inten    --    60.6411                55.3679                36.8997
 Raman Activ --     0.0000                 0.0000                 0.0000
 Depolar     --     0.0000                 0.0000                 0.0000
 Atom AN      X      Y      Z        X      Y      Z        X      Y      Z
   1   7    -0.00   0.00  -0.00     0.00  -0.00   0.00    -0.00  -0.00  -0.00
   2   6    -0.00   0.00  -0.00    -0.00   0.00  -0.00    -0.00   0.00  -0.00
   3   6    -0.00   0.00   0.00    -0.00   0.00  -0.00    -0.00   0.00   0.00
   4   6    -0.00  -0.00   0.00    -0.00   0.00  -0.00    -0.00   0.00   0.00
   5   6    -0.00   0.00   0.00    -0.00   0.00   0.00    -0.00  -0.00   0.00
   6   6    -0.00  -0.00   0.00     0.00   0.00  -0.00    -0.00   0.00   0.00
   7   6     0.00  -0.00   0.00     0.00   0.00   0.00     0.00  -0.00   0.00
   8   6     0.00  -0.00   0.00     0.00   0.00   0.00     0.00   0.00   0.00
   9   6     0.00  -0.00   0.01     0.00   0.00   0.00     0.00  -0.00   0.00
  10   6     0.00  -0.00   0.01     0.00   0.00   0.00     0.00  -0.00   0.00
  11   6     0.00  -0.00   0.02     0.00   0.01   0.00     0.00  -0.00   0.01
  12   6     0.00  -0.00   0.03     0.01   0.03   0.00     0.01  -0.00   0.02
  13   6    -0.13   0.01   0.25     0.07   0.28   0.02     0.12  -0.03   0.11
  14   1    -0.00  -0.00   0.00     0.00   0.00  -0.00    -0.00   0.00  -0.00
  15   1    -0.00   0.00  -0.00    -0.00   0.00  -0.00     0.00  -0.00   0.00
  16   1     0.00   0.00   0.00     0.00  -0.00   0.00    -0.00   0.00   0.00
  17   1    -0.00  -0.00  -0.00     0.00   0.00   0.00     0.00   0.00   0.00
  18   1     0.01  -0.01   0.00     0.00  -0.00   0.00     0.00  -0.00   0.00
  19   1     0.00  -0.00   0.00     0.00  -0.00   0.00     0.00  -0.00   0.00
  20   1     0.00  -0.00  -0.00    -0.00   0.00   0.00     0.00  -0.00  -0.00
  21   1     0.00  -0.00  -0.00     0.00  -0.00  -0.00     0.00  -0.00  -0.00
  22   1     0.00   0.00  -0.00    -0.00  -0.00   0.00    -0.00  -0.00   0.00
  23   1     0.00  -0.00  -0.00     0.00  -0.00  -0.00     0.00  -0.00  -0.00
  24   1     0.00   0.00  -0.00    -0.00  -0.00   0.00     0.00   0.00  -0.00
  25   1     0.00  -0.00  -0.00     0.00  -0.00  -0.00     0.00  -0.00  -0.00
  26   1     0.00   0.00  -0.00    -0.00  -0.00   0.00    -0.00  -0.00   0.00
  27   1     0.00   0.00  -0.00    -0.00  -0.00   0.00     0.00   0.00  -0.00
  28   1    -0.00  -0.00  -0.00    -0.00  -0.00  -0.00    -0.00  -0.00  -0.00
  29   1     0.00   0.01  -0.01    -0.00  -0.00   0.00    -0.00   0.00   0.00
  30   1    -0.00  -0.01  -0.01    -0.00  -0.00  -0.00    -0.00  -0.00  -0.00
  31   1     0.00   0.02  -0.01    -0.00  -0.00   0.00     0.00   0.01  -0.00
  32   1    -0.01  -0.01  -0.01    -0.00  -0.00  -0.00    -0.00  -0.01  -0.00
  33   1     0.00   0.02  -0.01    -0.00  -0.01   0.00     0.00   0.01  -0.00
  34   1    -0.01  -0.02  -0.02    -0.00  -0.01  -0.01    -0.00  -0.01  -0.00
  35   1     0.01   0.06  -0.03    -0.00  -0.02   0.01     0.00   0.03  -0.02
  36   1    -0.02  -0.05  -0.04    -0.01  -0.02  -0.02    -0.01  -0.02  -0.02
  37   1     0.01   0.07  -0.04    -0.01  -0.05   0.03     0.01   0.03  -0.02
  38   1    -0.03  -0.06  -0.04    -0.02  -0.05  -0.04    -0.01  -0.03  -0.02
  39   1    -0.11  -0.18  -0.11    -0.24  -0.46  -0.42    -0.23  -0.47  -0.38
  40   1     0.56  -0.13  -0.65     0.04   0.04  -0.03    -0.25   0.06   0.32
  41   1     0.01   0.27  -0.12    -0.04  -0.55   0.37     0.06   0.53  -0.32
                    115                    116                    117
                        a                      a                      a 
 Frequencies --  3196.8405              3202.3099              3223.1774
 Red. masses --     2.0315                 2.0314                 1.2864
 Frc consts  --     0.0000                 0.0000                 0.0000
 IR Inten    --   100.5003                81.6137                21.7200
 Raman Activ --     0.0000                 0.0000                 0.0000
 Depolar     --     0.0000                 0.0000                 0.0000
 Atom AN      X      Y      Z        X      Y      Z        X      Y      Z
   1   7     0.10   0.26   0.03    -0.19   0.09  -0.18    -0.10   0.04   0.09
   2   6     0.00   0.01   0.00    -0.01   0.00  -0.01    -0.01   0.01   0.01
   3   6    -0.00  -0.00  -0.00     0.00  -0.00   0.00     0.00  -0.00   0.00
   4   6     0.00  -0.00  -0.00    -0.00   0.00   0.00     0.00  -0.00  -0.00
   5   6     0.00  -0.00  -0.00    -0.00  -0.00   0.00     0.00   0.00   0.00
   6   6     0.00  -0.00  -0.00    -0.00   0.00   0.00     0.00  -0.00  -0.00
   7   6     0.00  -0.00   0.00     0.00   0.00   0.00    -0.00  -0.00  -0.00
   8   6    -0.00   0.00  -0.00    -0.00  -0.00   0.00    -0.00  -0.00  -0.00
   9   6    -0.00  -0.00   0.00     0.00   0.00  -0.00    -0.00  -0.00  -0.00
  10   6    -0.00   0.00  -0.00    -0.00  -0.00   0.00     0.00   0.00  -0.00
  11   6    -0.00  -0.00   0.00     0.00   0.00  -0.00    -0.00  -0.00  -0.00
  12   6     0.00   0.00  -0.00    -0.00  -0.00   0.00     0.00   0.00  -0.00
  13   6     0.00   0.00  -0.00     0.00   0.00  -0.00    -0.00  -0.00  -0.00
  14   1    -0.17  -0.69   0.30    -0.10  -0.32   0.12     0.10   0.43  -0.17
  15   1     0.06  -0.00   0.02     0.59  -0.32   0.18     0.56  -0.30   0.19
  16   1    -0.25  -0.29  -0.42     0.23   0.31   0.39    -0.26  -0.30  -0.39
  17   1    -0.01  -0.01  -0.01     0.01   0.01   0.01    -0.01  -0.01  -0.01
  18   1     0.00  -0.00   0.00     0.02  -0.01   0.01     0.02  -0.01   0.01
  19   1     0.00  -0.00   0.00    -0.00  -0.00  -0.00    -0.01   0.00  -0.00
  20   1    -0.00   0.00   0.00     0.00   0.00  -0.00     0.00  -0.00  -0.00
  21   1    -0.01   0.00   0.01     0.01  -0.00  -0.01    -0.01   0.00   0.01
  22   1    -0.00  -0.00  -0.00     0.00  -0.00   0.00     0.00   0.00  -0.00
  23   1    -0.00   0.00   0.00     0.00  -0.00  -0.00     0.00  -0.00   0.00
  24   1     0.00  -0.00  -0.00     0.00   0.00  -0.00    -0.00  -0.00  -0.00
  25   1    -0.00   0.00   0.00     0.00  -0.00  -0.00    -0.00   0.00   0.00
  26   1     0.00  -0.00   0.00    -0.00   0.00  -0.00     0.00   0.00  -0.00
  27   1     0.00   0.00  -0.00    -0.00   0.00  -0.00    -0.00  -0.00  -0.00
  28   1    -0.00   0.00  -0.00    -0.00  -0.00  -0.00     0.00   0.00   0.00
  29   1    -0.00  -0.00   0.00     0.00   0.00  -0.00    -0.00  -0.00   0.00
  30   1     0.00   0.00   0.00     0.00  -0.00  -0.00     0.00   0.00   0.00
  31   1     0.00   0.00  -0.00    -0.00  -0.00   0.00     0.00   0.00  -0.00
  32   1     0.00   0.00   0.00    -0.00  -0.00  -0.00     0.00   0.00   0.00
  33   1    -0.00  -0.00   0.00     0.00   0.00  -0.00    -0.00  -0.00   0.00
  34   1    -0.00  -0.00  -0.00     0.00   0.00   0.00    -0.00  -0.00  -0.00
  35   1     0.00   0.00  -0.00    -0.00  -0.00   0.00     0.00   0.00  -0.00
  36   1     0.00   0.00   0.00    -0.00  -0.00  -0.00     0.00   0.00   0.00
  37   1    -0.00  -0.00   0.00     0.00   0.00  -0.00    -0.00  -0.00   0.00
  38   1    -0.00  -0.00  -0.00     0.00   0.00   0.00    -0.00  -0.00  -0.00
  39   1    -0.00  -0.00  -0.00    -0.00  -0.00   0.00     0.00   0.00  -0.00
  40   1    -0.00  -0.00   0.00    -0.00  -0.00   0.00    -0.00  -0.00   0.00
  41   1    -0.00  -0.00   0.00    -0.00  -0.00   0.00    -0.00  -0.00   0.00
