39
 energy: -62.160963775265 gnorm: 0.000901067040 xtb: 6.5.1 (fef0646)
N            3.31624943695244       -1.67785697749916        1.48544029494736
C            2.64332883410824       -0.90330892423942        0.40593248008453
C            3.60242284474065        0.17974140834863       -0.09895876210663
C            4.82625716690953       -0.42843221720002       -0.69889232778223
C            5.13288254750071       -0.62827285214946       -2.00784558144253
C            6.34615998722172       -1.31188636780058       -2.20933270535560
C            6.99052420258669       -1.66378459240362       -1.05174877984149
C            8.21620481943451       -2.35147470597665       -0.87443173897570
C            8.86513164438005       -2.66408460191884        0.30238210052611
C           10.06556276846566       -3.34066462095079        0.10918092390988
C           10.36301435211874       -3.56325371733969       -1.22300303516084
C           11.50106977713247       -4.21634918044662       -1.76370302724378
C           12.55878628047869       -4.78346632039775       -1.07972002841910
C           13.51993680292443       -5.34493428064962       -1.91717131126471
C           13.22229031051008       -5.22048003942275       -3.25844414159337
C           13.98389254523896       -5.67643984539398       -4.37017577051921
C           13.70363241546055       -5.54054874407902       -5.70911571714611
C           14.68372904490677       -6.11341528803885       -6.53523279509876
C           15.70021666982012       -6.68063702005816       -5.82891306124432
S           15.48608380457419       -6.52901357373615       -4.13553051368570
S           11.71548888280846       -4.38993230457387       -3.48560111380768
S            9.12364698048654       -2.91722875761452       -2.25296070690121
S            6.08674475682957       -1.09762861881787        0.33692711135767
H            2.82560378713183       -2.54907454360020        1.70667792499069
H            3.39710673719502       -1.11087004442530        2.33676012436262
H            4.30036440313079       -1.87809601932721        1.15281389723849
H            1.72259650553863       -0.46375003815249        0.78951986207749
H            2.40093532142022       -1.58712993869902       -0.40860585081578
H            3.86819317830675        0.84808610160025        0.72286418354208
H            3.09066779478815        0.77019292395554       -0.85865357669490
H            4.51016387088313       -0.28826219687243       -2.81557372228397
H            6.75098944326720       -1.54331355937260       -3.17718896793169
H            8.47714253852436       -2.39891328376205        1.27160424495617
H           10.70428426184336       -3.65791691886889        0.91201830965894
H           12.63062759011192       -4.78874585435228       -0.00741352587125
H           14.41405557427978       -5.83060039695326       -1.56850064688838
H           12.82100883602779       -5.04384147868631       -6.07287518170481
H           14.63901184694029       -6.10631610767452       -7.60921261312238
H           16.57010143501849       -7.18246650245394       -6.20356625474867
