 Entering Gaussian System
 *********************************************
 Gaussian 98:
 frequency output generated by the xtb code
 *********************************************
                         Standard orientation:
 --------------------------------------------------------------------
  Center     Atomic     Atomic              Coordinates (Angstroms)
  Number     Number      Type              X           Y           Z
 --------------------------------------------------------------------
    1          7             0        6.937010   -0.479126    0.427597
    2          6             0        5.510507   -0.835839    0.167302
    3          6             0        4.629172    0.389566   -0.038507
    4          6             0        3.167689    0.036463   -0.319101
    5          6             0        2.287345    1.266967   -0.542790
    6          6             0        0.838202    0.927414   -0.902855
    7          6             0        0.057462    0.271080    0.236539
    8          6             0       -1.387111   -0.056323   -0.144115
    9          6             0       -2.181090   -0.685087    1.001799
   10          6             0       -3.592664   -1.124300    0.602945
   11          6             0       -4.506040    0.031944    0.193986
   12          6             0       -5.925643   -0.420909   -0.151859
   13          6             0       -6.825639    0.729095   -0.578628
   14          1             0        7.324270    0.057251   -0.356126
   15          1             0        7.518106   -1.314709    0.557976
   16          1             0        7.017916    0.098515    1.271315
   17          1             0        5.123556   -1.434075    0.999905
   18          1             0        5.450240   -1.485690   -0.713046
   19          1             0        5.027183    0.990872   -0.862559
   20          1             0        4.689599    1.036987    0.842582
   21          1             0        2.773599   -0.560994    0.509531
   22          1             0        3.111413   -0.617368   -1.196390
   23          1             0        2.732875    1.881104   -1.334433
   24          1             0        2.304761    1.897129    0.353199
   25          1             0        0.825285    0.269623   -1.778874
   26          1             0        0.309145    1.834756   -1.218004
   27          1             0        0.067299    0.927112    1.114038
   28          1             0        0.563149   -0.645442    0.557959
   29          1             0       -1.393457   -0.730645   -1.007684
   30          1             0       -1.886437    0.855579   -0.488135
   31          1             0       -2.238654    0.022685    1.836218
   32          1             0       -1.621683   -1.543719    1.392028
   33          1             0       -4.060164   -1.671276    1.430367
   34          1             0       -3.531291   -1.846092   -0.219084
   35          1             0       -4.077520    0.560660   -0.663987
   36          1             0       -4.542793    0.773996    0.999255
   37          1             0       -6.360943   -0.939486    0.710934
   38          1             0       -5.880520   -1.176811   -0.945258
   39          1             0       -6.911202    1.476337    0.210922
   40          1             0       -7.834002    0.390580   -0.821693
   41          1             0       -6.427859    1.234471   -1.459270
 --------------------------------------------------------------------
     1 basis functions        1 primitive gaussians
     1 alpha electrons        1 beta electrons

 Harmonic frequencies (cm**-1), IR intensities (km*mol⁻¹),
 Raman scattering activities (A**4/amu), Raman depolarization ratios,
 reduced masses (AMU), force constants (mDyne/A) and normal coordinates:
                      1                      2                      3
                        a                      a                      a 
 Frequencies --  -102.1615                32.3055                42.8488
 Red. masses --     2.5755                 9.9918                10.1602
 Frc consts  --     0.0000                 0.0000                 0.0000
 IR Inten    --     0.2425                 9.4117                12.3398
 Raman Activ --     0.0000                 0.0000                 0.0000
 Depolar     --     0.0000                 0.0000                 0.0000
 Atom AN      X      Y      Z        X      Y      Z        X      Y      Z
   1   7    -0.00  -0.03  -0.07     0.03  -0.18  -0.38     0.18   0.33  -0.29
   2   6    -0.06   0.00   0.24    -0.03  -0.09  -0.12     0.16   0.15  -0.02
   3   6     0.03   0.00  -0.18     0.01  -0.05  -0.05     0.02   0.05   0.02
   4   6    -0.01   0.03  -0.01    -0.03   0.03   0.10     0.03  -0.08   0.16
   5   6     0.00   0.04   0.04     0.01   0.07   0.17    -0.06  -0.15   0.12
   6   6    -0.01   0.07   0.04    -0.02   0.14   0.22    -0.03  -0.25   0.10
   7   6     0.01  -0.03  -0.01    -0.02   0.16   0.23    -0.03  -0.29   0.08
   8   6    -0.00   0.03  -0.00    -0.01   0.14   0.21    -0.03  -0.24   0.06
   9   6     0.01  -0.08  -0.05    -0.04   0.16   0.20    -0.12  -0.13   0.06
  10   6     0.01  -0.05  -0.09     0.01   0.05   0.13    -0.15  -0.00   0.04
  11   6     0.00  -0.01   0.03    -0.00  -0.04  -0.09    -0.03   0.07  -0.02
  12   6     0.01   0.00  -0.03     0.05  -0.13  -0.17    -0.05   0.20  -0.09
  13   6    -0.00   0.04   0.08     0.04  -0.22  -0.37     0.07   0.27  -0.16
  14   1     0.11  -0.43  -0.25    -0.01  -0.08  -0.13    -0.00   0.08  -0.11
  15   1    -0.09   0.00   0.43    -0.01  -0.06  -0.10     0.08   0.11  -0.09
  16   1    -0.01   0.40  -0.30     0.06  -0.03  -0.12     0.07   0.11  -0.10
  17   1    -0.01   0.12   0.16     0.01  -0.01  -0.01     0.10   0.05   0.02
  18   1    -0.06  -0.11   0.16    -0.06  -0.04  -0.02     0.03   0.02   0.01
  19   1     0.02  -0.08  -0.11    -0.01  -0.02  -0.03    -0.03   0.02  -0.01
  20   1     0.03   0.08  -0.11     0.04  -0.01  -0.02     0.02   0.03  -0.00
  21   1     0.02   0.02   0.02     0.01   0.01   0.04     0.04  -0.01   0.07
  22   1    -0.03  -0.00   0.01    -0.04   0.01   0.03     0.00  -0.04   0.06
  23   1    -0.00   0.02   0.02    -0.00   0.02   0.05    -0.03  -0.04   0.03
  24   1     0.00   0.00   0.02     0.02   0.01   0.06    -0.03  -0.04   0.03
  25   1    -0.01   0.04  -0.01    -0.02   0.04   0.06     0.01  -0.07   0.03
  26   1    -0.00   0.03   0.04     0.00   0.05   0.07    -0.02  -0.08   0.02
  27   1     0.01  -0.04   0.02    -0.01   0.05   0.06    -0.01  -0.09   0.03
  28   1     0.00  -0.02  -0.03    -0.00   0.05   0.07    -0.01  -0.09   0.01
  29   1    -0.01   0.03  -0.02     0.00   0.04   0.06    -0.01  -0.08   0.03
  30   1     0.00   0.02   0.03    -0.00   0.04   0.05     0.01  -0.07  -0.00
  31   1     0.01  -0.05   0.00    -0.04   0.06   0.05    -0.02  -0.03   0.01
  32   1     0.01  -0.04  -0.04    -0.00   0.06   0.08    -0.06  -0.05   0.03
  33   1     0.01  -0.04  -0.04    -0.01   0.04   0.04    -0.06   0.02   0.01
  34   1     0.00   0.01  -0.05     0.03  -0.01   0.06    -0.06  -0.01   0.02
  35   1     0.00   0.02   0.03     0.02  -0.03  -0.03     0.02   0.01  -0.00
  36   1    -0.00  -0.03   0.03    -0.03   0.02  -0.05    -0.00   0.03  -0.01
  37   1     0.00  -0.03  -0.03    -0.00  -0.02  -0.05    -0.04   0.07  -0.03
  38   1     0.01   0.03  -0.03     0.04  -0.06  -0.03    -0.02   0.05  -0.02
  39   1    -0.01  -0.02   0.05    -0.01  -0.04  -0.13     0.03   0.09  -0.05
  40   1     0.00   0.01   0.00     0.02  -0.08  -0.12     0.02   0.10  -0.06
  41   1     0.00   0.04   0.04     0.03  -0.09  -0.11     0.04   0.06  -0.04
                      4                      5                      6
                        a                      a                      a 
 Frequencies --    66.0380                78.6859                91.1249
 Red. masses --     9.3042                 7.9357                 6.0749
 Frc consts  --     0.0000                 0.0000                 0.0000
 IR Inten    --     5.6502                 3.7257                 1.2693
 Raman Activ --     0.0000                 0.0000                 0.0000
 Depolar     --     0.0000                 0.0000                 0.0000
 Atom AN      X      Y      Z        X      Y      Z        X      Y      Z
   1   7    -0.19   0.02   0.27    -0.13  -0.16  -0.16    -0.06  -0.05  -0.13
   2   6    -0.11   0.03  -0.15    -0.21   0.02   0.15    -0.12   0.01   0.12
   3   6    -0.08   0.04  -0.19    -0.09   0.09   0.09    -0.07   0.03   0.07
   4   6    -0.05   0.04  -0.34    -0.13   0.17   0.25    -0.10   0.04   0.19
   5   6    -0.10   0.05  -0.06    -0.07   0.16  -0.03    -0.04   0.01  -0.17
   6   6    -0.13   0.05   0.06    -0.04   0.09  -0.07    -0.03  -0.06  -0.14
   7   6     0.02  -0.10   0.08     0.00  -0.01  -0.10    -0.01   0.10  -0.04
   8   6     0.00  -0.12   0.16     0.04  -0.13  -0.10     0.02  -0.03  -0.01
   9   6     0.05  -0.15   0.17     0.11  -0.17  -0.08     0.07  -0.04   0.02
  10   6     0.02  -0.08   0.18     0.07  -0.12   0.01     0.06  -0.03   0.04
  11   6     0.12  -0.02   0.13     0.18  -0.09  -0.12    -0.01   0.02   0.35
  12   6     0.14   0.08  -0.08     0.04   0.07   0.26     0.17  -0.03  -0.31
  13   6     0.31   0.15  -0.25     0.24   0.11  -0.06     0.12   0.05   0.02
  14   1     0.03  -0.02   0.10    -0.09  -0.00  -0.04    -0.08   0.06  -0.02
  15   1    -0.07   0.00   0.15    -0.04  -0.07  -0.14    -0.00  -0.02  -0.15
  16   1    -0.13   0.03   0.07     0.05  -0.10  -0.02     0.05  -0.09   0.01
  17   1    -0.09  -0.02  -0.09    -0.04   0.05   0.08    -0.01   0.03   0.07
  18   1     0.03   0.04  -0.07    -0.13  -0.03   0.07    -0.08  -0.02   0.05
  19   1     0.00   0.03  -0.03    -0.03  -0.02  -0.01    -0.03  -0.02  -0.00
  20   1    -0.05  -0.00  -0.04     0.01   0.06  -0.00     0.00   0.03   0.00
  21   1    -0.01  -0.05  -0.14    -0.04   0.11   0.12    -0.04   0.08   0.10
  22   1     0.00   0.07  -0.14    -0.06  -0.01   0.12    -0.04  -0.06   0.11
  23   1    -0.06   0.05  -0.00    -0.00   0.00  -0.03     0.00  -0.06  -0.09
  24   1    -0.01  -0.02   0.01    -0.04   0.09  -0.04    -0.02   0.07  -0.10
  25   1    -0.06   0.04  -0.00     0.00   0.03  -0.03    -0.00  -0.06  -0.01
  26   1    -0.06   0.02   0.06    -0.03   0.02  -0.01    -0.01  -0.03  -0.08
  27   1     0.02  -0.05   0.04    -0.02  -0.01  -0.02    -0.01   0.07  -0.04
  28   1     0.02  -0.03  -0.02     0.02   0.01  -0.03     0.01   0.05   0.03
  29   1    -0.01  -0.02   0.04     0.02  -0.04  -0.03     0.02  -0.02   0.01
  30   1    -0.00  -0.03   0.06    -0.01  -0.05  -0.03    -0.01  -0.02  -0.02
  31   1     0.03  -0.06   0.06     0.05  -0.06  -0.01     0.03  -0.02   0.01
  32   1     0.01  -0.05   0.03     0.04  -0.06  -0.04     0.02  -0.01  -0.00
  33   1    -0.01  -0.01   0.05     0.01   0.01   0.02     0.04  -0.07  -0.01
  34   1    -0.00  -0.03   0.06    -0.00  -0.07   0.03     0.01   0.04  -0.03
  35   1     0.07  -0.00   0.06     0.03  -0.11  -0.10     0.04   0.15   0.21
  36   1     0.02  -0.02   0.04     0.13   0.04  -0.09    -0.10  -0.11   0.20
  37   1    -0.01   0.04  -0.04     0.01   0.14   0.15    -0.00  -0.16  -0.20
  38   1     0.06   0.02  -0.02    -0.06  -0.07   0.15     0.15   0.11  -0.20
  39   1     0.08   0.05  -0.08     0.16   0.13  -0.10    -0.08  -0.11   0.12
  40   1     0.09   0.07  -0.11     0.03   0.07   0.07     0.07   0.01  -0.15
  41   1     0.14   0.02  -0.06     0.06  -0.10  -0.10     0.10   0.17   0.12
                      7                      8                      9
                        a                      a                      a 
 Frequencies --   105.7752               107.0970               113.4056
 Red. masses --     5.9390                 7.6809                 8.0849
 Frc consts  --     0.0000                 0.0000                 0.0000
 IR Inten    --     0.7772                 1.0937                 3.3233
 Raman Activ --     0.0000                 0.0000                 0.0000
 Depolar     --     0.0000                 0.0000                 0.0000
 Atom AN      X      Y      Z        X      Y      Z        X      Y      Z
   1   7    -0.00   0.10   0.08    -0.02   0.07   0.14     0.02   0.19  -0.16
   2   6     0.03  -0.01   0.02     0.03  -0.01  -0.06     0.02  -0.04   0.11
   3   6     0.01  -0.06  -0.18     0.05  -0.05  -0.36    -0.15  -0.12   0.33
   4   6    -0.05  -0.07   0.17    -0.04  -0.06   0.11    -0.03  -0.19  -0.19
   5   6     0.01  -0.07  -0.07     0.00  -0.06  -0.07     0.00  -0.15  -0.14
   6   6    -0.01  -0.01  -0.02    -0.04  -0.04   0.10    -0.04  -0.05  -0.06
   7   6     0.07  -0.23  -0.09    -0.08   0.30   0.28    -0.09   0.29   0.10
   8   6    -0.15   0.46   0.16     0.03  -0.02   0.14    -0.09   0.26   0.12
   9   6     0.02  -0.04  -0.00    -0.05  -0.10   0.03     0.03  -0.10  -0.01
  10   6     0.02  -0.02  -0.05     0.01  -0.12  -0.17     0.06  -0.13  -0.10
  11   6     0.01  -0.01   0.04     0.08  -0.10  -0.26     0.07  -0.09  -0.02
  12   6     0.01  -0.02   0.04     0.00   0.02  -0.09     0.02   0.01   0.07
  13   6     0.03  -0.04  -0.08     0.02   0.14   0.19     0.15   0.08  -0.03
  14   1    -0.04   0.12   0.07    -0.01   0.09   0.08    -0.04  -0.00  -0.10
  15   1     0.04   0.04  -0.07     0.02   0.03  -0.02     0.04   0.08   0.01
  16   1    -0.01  -0.05   0.08    -0.04  -0.04   0.08     0.01   0.12  -0.09
  17   1     0.00   0.02   0.02    -0.02   0.03  -0.01     0.07  -0.04   0.04
  18   1     0.03  -0.03   0.02     0.05  -0.04   0.00    -0.01   0.00   0.02
  19   1    -0.03  -0.09  -0.12    -0.03  -0.11  -0.19    -0.01   0.06   0.18
  20   1     0.05   0.06  -0.11     0.08   0.08  -0.18    -0.13  -0.12   0.16
  21   1     0.01   0.06   0.12     0.03   0.07   0.11    -0.07  -0.12  -0.13
  22   1    -0.07  -0.10   0.11    -0.08  -0.10   0.10     0.08   0.01  -0.11
  23   1     0.02  -0.07  -0.05    -0.01  -0.07  -0.07     0.00  -0.05  -0.04
  24   1     0.02   0.03  -0.05     0.03   0.04  -0.06     0.02  -0.05  -0.04
  25   1    -0.02   0.05  -0.04    -0.03  -0.08   0.08    -0.04  -0.07   0.02
  26   1    -0.01   0.02   0.05     0.00  -0.03  -0.04     0.02  -0.02  -0.07
  27   1     0.16  -0.18   0.06    -0.08   0.18   0.01    -0.02   0.15  -0.02
  28   1    -0.05  -0.16  -0.19     0.00   0.14   0.20    -0.04   0.10   0.10
  29   1    -0.18   0.29  -0.08     0.08  -0.03   0.05    -0.02   0.13  -0.01
  30   1     0.00   0.24   0.25    -0.03  -0.04  -0.00    -0.05   0.09   0.10
  31   1     0.01  -0.11   0.08    -0.05  -0.04   0.02    -0.01  -0.09   0.05
  32   1     0.03  -0.04  -0.11    -0.02  -0.03   0.02     0.03  -0.04  -0.07
  33   1     0.01  -0.03  -0.03    -0.03  -0.03  -0.07     0.01  -0.06  -0.05
  34   1     0.01   0.02  -0.03     0.04  -0.03  -0.05     0.03  -0.01  -0.05
  35   1    -0.00   0.01   0.01     0.02  -0.07  -0.10     0.01  -0.03  -0.01
  36   1     0.00  -0.01   0.02     0.06   0.00  -0.10     0.05  -0.03  -0.00
  37   1    -0.01   0.02   0.02     0.03  -0.01  -0.02    -0.00   0.04   0.04
  38   1     0.00  -0.02   0.03    -0.05   0.03  -0.05    -0.02  -0.02   0.04
  39   1     0.02   0.01  -0.04     0.05   0.01   0.09     0.08   0.05  -0.03
  40   1     0.01  -0.01  -0.01    -0.01   0.07   0.08     0.03   0.05   0.02
  41   1     0.01  -0.04  -0.04    -0.02   0.07   0.06     0.05  -0.02  -0.03
                     10                     11                     12
                        a                      a                      a 
 Frequencies --   121.4450               143.6364               152.4763
 Red. masses --     7.7990                 5.9569                 9.0593
 Frc consts  --     0.0000                 0.0000                 0.0000
 IR Inten    --     0.6948                 0.6407                 6.9784
 Raman Activ --     0.0000                 0.0000                 0.0000
 Depolar     --     0.0000                 0.0000                 0.0000
 Atom AN      X      Y      Z        X      Y      Z        X      Y      Z
   1   7     0.07   0.01   0.08    -0.03  -0.05   0.08     0.11  -0.34  -0.00
   2   6     0.10  -0.03  -0.09     0.06   0.01  -0.46    -0.03   0.16   0.05
   3   6     0.09  -0.05  -0.15    -0.03   0.06   0.18     0.17   0.31   0.06
   4   6     0.04  -0.03   0.08    -0.06   0.05   0.36     0.21   0.25  -0.13
   5   6     0.06  -0.01   0.08    -0.03  -0.00  -0.05    -0.02   0.07  -0.21
   6   6     0.05   0.05   0.03     0.01  -0.13  -0.11     0.01  -0.28  -0.02
   7   6    -0.09   0.22   0.04    -0.03   0.02  -0.05     0.05  -0.05   0.16
   8   6     0.00  -0.04  -0.12    -0.04   0.06  -0.00    -0.01   0.07   0.22
   9   6    -0.00  -0.12  -0.17     0.01   0.02   0.01    -0.10  -0.11   0.07
  10   6    -0.04  -0.04  -0.12     0.02  -0.01   0.04    -0.07  -0.04  -0.14
  11   6    -0.18   0.05   0.41     0.04  -0.03  -0.03    -0.09   0.00  -0.00
  12   6    -0.14   0.04   0.26     0.03  -0.01  -0.01    -0.11   0.03   0.02
  13   6     0.02  -0.05  -0.31     0.05   0.02   0.01    -0.10   0.02  -0.05
  14   1     0.04   0.01   0.03     0.17  -0.20  -0.02     0.07  -0.11   0.01
  15   1     0.02   0.01   0.04    -0.07  -0.02   0.30    -0.06  -0.15  -0.04
  16   1    -0.02   0.00   0.02    -0.14   0.16  -0.08     0.11  -0.12   0.02
  17   1     0.01  -0.01  -0.04    -0.02  -0.14  -0.25    -0.04   0.07   0.01
  18   1     0.06  -0.01  -0.03     0.08   0.15  -0.24    -0.06   0.05   0.01
  19   1     0.00  -0.04  -0.08    -0.07   0.12   0.10     0.09   0.10   0.04
  20   1     0.06   0.02  -0.07     0.04  -0.08   0.12     0.03   0.07   0.03
  21   1     0.04   0.01   0.05    -0.02   0.09   0.16     0.05   0.05  -0.06
  22   1    -0.03  -0.03   0.04    -0.03  -0.06   0.16     0.11   0.08  -0.04
  23   1     0.03  -0.01   0.03     0.01  -0.06  -0.05    -0.06   0.01  -0.10
  24   1     0.02  -0.01   0.02    -0.04   0.07  -0.07    -0.01   0.06  -0.09
  25   1     0.02  -0.02   0.03     0.03  -0.08  -0.00     0.02  -0.15   0.05
  26   1     0.04   0.01  -0.03    -0.00  -0.06  -0.08    -0.04  -0.13  -0.08
  27   1    -0.09   0.12  -0.03     0.00   0.03  -0.03     0.05   0.02   0.02
  28   1    -0.01   0.10   0.09    -0.02   0.01   0.01    -0.01  -0.02   0.07
  29   1     0.06  -0.02  -0.03    -0.03   0.03  -0.01    -0.02   0.07   0.03
  30   1    -0.03  -0.04  -0.07    -0.01   0.02   0.02     0.01   0.05   0.11
  31   1     0.02  -0.06  -0.03     0.00   0.00   0.01    -0.04  -0.08   0.06
  32   1    -0.00  -0.05  -0.08     0.01   0.01  -0.00    -0.04  -0.06  -0.01
  33   1     0.03  -0.10  -0.07     0.00   0.01   0.02    -0.04  -0.06  -0.08
  34   1    -0.04   0.07  -0.11     0.01  -0.02   0.03     0.00   0.03  -0.07
  35   1    -0.07   0.12   0.17     0.01  -0.03  -0.02    -0.04   0.02   0.01
  36   1    -0.06  -0.08   0.20     0.01   0.01  -0.02    -0.02  -0.02   0.02
  37   1    -0.10   0.09   0.09     0.01  -0.00  -0.00    -0.04   0.02   0.01
  38   1    -0.00  -0.06   0.14     0.00  -0.00  -0.00    -0.04  -0.00   0.02
  39   1     0.00   0.08  -0.18     0.02  -0.00   0.01    -0.01   0.03  -0.03
  40   1     0.00  -0.01  -0.08     0.01   0.01   0.00    -0.03   0.01   0.01
  41   1     0.05  -0.13  -0.14     0.02   0.01   0.01    -0.04  -0.02  -0.03
                     13                     14                     15
                        a                      a                      a 
 Frequencies --   185.2763               215.8694               232.7467
 Red. masses --     8.7084                 6.9208                 7.0888
 Frc consts  --     0.0000                 0.0000                 0.0000
 IR Inten    --     2.8352                 0.2874                 1.1112
 Raman Activ --     0.0000                 0.0000                 0.0000
 Depolar     --     0.0000                 0.0000                 0.0000
 Atom AN      X      Y      Z        X      Y      Z        X      Y      Z
   1   7    -0.16   0.12  -0.04    -0.02   0.03  -0.01     0.17  -0.02   0.03
   2   6    -0.10  -0.05  -0.04    -0.00  -0.03  -0.00     0.15  -0.05   0.03
   3   6    -0.14  -0.07   0.08    -0.02  -0.03   0.05     0.07  -0.06   0.10
   4   6    -0.12  -0.04   0.02    -0.02  -0.00   0.01     0.04   0.01   0.01
   5   6     0.03   0.01  -0.20     0.06   0.03  -0.15     0.15   0.06  -0.34
   6   6    -0.03   0.03   0.11    -0.00   0.10   0.05    -0.06   0.35   0.08
   7   6     0.22  -0.11   0.19     0.13  -0.13   0.02     0.02   0.05   0.01
   8   6     0.25  -0.16   0.15     0.10  -0.03   0.04     0.01  -0.09   0.02
   9   6     0.07  -0.10   0.03    -0.14   0.36   0.10    -0.02  -0.20  -0.02
  10   6     0.07   0.18  -0.27     0.09  -0.15  -0.20    -0.17  -0.05   0.20
  11   6     0.08   0.29  -0.01    -0.17  -0.27   0.07    -0.12  -0.08  -0.05
  12   6     0.11   0.10   0.06    -0.20  -0.12   0.01    -0.18   0.01  -0.00
  13   6    -0.21  -0.19  -0.05     0.16   0.17   0.02    -0.10   0.07  -0.06
  14   1    -0.05   0.02  -0.02    -0.01   0.00  -0.01     0.05  -0.02   0.00
  15   1    -0.01   0.06   0.02     0.00   0.02   0.01     0.04  -0.01   0.02
  16   1    -0.07   0.06  -0.03    -0.01   0.02  -0.01     0.04   0.00   0.00
  17   1    -0.01  -0.04  -0.02     0.01  -0.02  -0.00     0.06  -0.03   0.00
  18   1    -0.02   0.01  -0.03     0.00   0.00  -0.01     0.05   0.00  -0.00
  19   1    -0.04   0.01   0.04    -0.00   0.00   0.02     0.03   0.01   0.05
  20   1    -0.05  -0.05   0.04    -0.01  -0.02   0.02     0.01  -0.04   0.05
  21   1    -0.06   0.03   0.02    -0.02   0.03   0.01    -0.02   0.07   0.03
  22   1    -0.03  -0.05   0.03    -0.00  -0.02   0.02     0.02  -0.05   0.04
  23   1    -0.00  -0.08  -0.13     0.01  -0.04  -0.09     0.02  -0.10  -0.20
  24   1     0.07   0.07  -0.11     0.06   0.06  -0.08     0.15   0.12  -0.17
  25   1    -0.06   0.03   0.01    -0.04   0.08  -0.02    -0.12   0.19  -0.04
  26   1    -0.03   0.01   0.09    -0.01   0.05   0.09     0.01   0.16   0.15
  27   1     0.07  -0.05   0.07     0.07  -0.09   0.04    -0.00  -0.03   0.04
  28   1     0.09  -0.03   0.02     0.04  -0.06  -0.06     0.04   0.01  -0.06
  29   1     0.10  -0.05   0.05     0.03  -0.07   0.06     0.02  -0.01  -0.00
  30   1     0.08  -0.05   0.02     0.07  -0.02  -0.07    -0.02  -0.03   0.01
  31   1     0.02  -0.05   0.02    -0.17   0.21  -0.08     0.05  -0.09   0.02
  32   1    -0.04  -0.07   0.01    -0.02   0.20   0.20    -0.02  -0.09  -0.05
  33   1    -0.02  -0.02  -0.14     0.05  -0.16  -0.12    -0.04   0.07   0.12
  34   1     0.03   0.13  -0.14     0.14   0.03  -0.11    -0.10  -0.09   0.12
  35   1    -0.01   0.13   0.01    -0.07  -0.00   0.06    -0.02  -0.09  -0.05
  36   1     0.02   0.05   0.03    -0.06  -0.13   0.07    -0.02   0.03  -0.06
  37   1     0.07   0.03   0.04    -0.10  -0.01  -0.01    -0.07   0.02   0.00
  38   1     0.06   0.00   0.04    -0.09  -0.03  -0.01    -0.07  -0.01   0.01
  39   1    -0.08  -0.01  -0.06     0.19   0.10  -0.02    -0.17  -0.06   0.04
  40   1    -0.05  -0.14   0.05    -0.01   0.16   0.08     0.02   0.01  -0.19
  41   1    -0.14  -0.08  -0.07     0.05  -0.04  -0.04     0.08   0.12   0.09
                     16                     17                     18
                        a                      a                      a 
 Frequencies --   246.0743               297.4636               331.8553
 Red. masses --     2.9987                 8.9300                 9.1146
 Frc consts  --     0.0000                 0.0000                 0.0000
 IR Inten    --     0.3394                 5.6083                 0.4009
 Raman Activ --     0.0000                 0.0000                 0.0000
 Depolar     --     0.0000                 0.0000                 0.0000
 Atom AN      X      Y      Z        X      Y      Z        X      Y      Z
   1   7     0.08  -0.02   0.02     0.28  -0.18   0.06     0.15   0.05   0.03
   2   6     0.07  -0.00   0.02     0.13   0.22   0.02     0.18  -0.25   0.04
   3   6     0.03  -0.01   0.02    -0.04   0.13   0.00     0.12  -0.23   0.03
   4   6     0.02  -0.00   0.01    -0.02  -0.16   0.01    -0.04   0.22   0.01
   5   6     0.03   0.01  -0.07    -0.14  -0.22  -0.06    -0.11   0.26   0.03
   6   6    -0.03   0.11  -0.00    -0.27   0.16   0.06    -0.06   0.08  -0.29
   7   6    -0.05   0.05  -0.04    -0.25  -0.01  -0.05    -0.05   0.05  -0.24
   8   6    -0.05  -0.03  -0.01    -0.20  -0.06  -0.06    -0.15  -0.13   0.23
   9   6     0.02  -0.11   0.01    -0.10   0.09   0.05    -0.11  -0.08   0.32
  10   6    -0.08   0.02   0.16     0.05   0.01  -0.16     0.00  -0.08  -0.12
  11   6    -0.04   0.03   0.08     0.18   0.13   0.00     0.08   0.04  -0.02
  12   6     0.06  -0.02  -0.27     0.23   0.03   0.08     0.05   0.09   0.01
  13   6    -0.06   0.01   0.05     0.10  -0.11   0.04    -0.08  -0.01  -0.02
  14   1     0.03  -0.01   0.00     0.14  -0.08   0.03    -0.00   0.03  -0.00
  15   1     0.02  -0.01   0.01    -0.03  -0.12  -0.00     0.10   0.06   0.02
  16   1     0.03  -0.00   0.00     0.14  -0.08   0.03    -0.00   0.03  -0.00
  17   1     0.02  -0.00   0.00     0.02   0.06  -0.00     0.08  -0.08   0.02
  18   1     0.02   0.00   0.00     0.02   0.07   0.00     0.08  -0.08   0.02
  19   1     0.01  -0.00   0.01    -0.04   0.05  -0.00     0.06  -0.08   0.01
  20   1     0.01  -0.01   0.01    -0.04   0.05  -0.00     0.07  -0.07   0.01
  21   1    -0.00   0.01   0.01     0.02  -0.04   0.02    -0.04   0.07  -0.01
  22   1     0.01  -0.01   0.01     0.02  -0.07   0.02    -0.05   0.08  -0.01
  23   1     0.01  -0.02  -0.04    -0.04  -0.09  -0.04    -0.01   0.12   0.06
  24   1     0.03   0.02  -0.04     0.00  -0.04  -0.03    -0.11   0.03   0.04
  25   1    -0.03   0.06  -0.02    -0.17   0.13  -0.04     0.05   0.01  -0.07
  26   1     0.01   0.05   0.03    -0.02   0.11   0.12    -0.03   0.00  -0.12
  27   1    -0.02   0.01  -0.00    -0.08  -0.04   0.01     0.02   0.03  -0.08
  28   1    -0.00   0.02  -0.02    -0.06  -0.01  -0.05     0.02   0.03  -0.08
  29   1    -0.01   0.00  -0.01    -0.06  -0.05   0.01    -0.09  -0.06   0.09
  30   1    -0.03  -0.01   0.01    -0.06  -0.03  -0.05    -0.08  -0.06   0.06
  31   1     0.05  -0.06   0.03    -0.07   0.07  -0.02    -0.09  -0.01   0.08
  32   1    -0.00  -0.06  -0.04    -0.01   0.07   0.07    -0.04  -0.01   0.13
  33   1    -0.02   0.04   0.08    -0.02  -0.05  -0.10    -0.06  -0.10  -0.12
  34   1    -0.06  -0.03   0.07     0.06   0.06  -0.09     0.08   0.05  -0.09
  35   1     0.04   0.05   0.07     0.04   0.06   0.01     0.02   0.02  -0.00
  36   1    -0.08  -0.02   0.05     0.07   0.01   0.02     0.04  -0.01   0.01
  37   1     0.02  -0.10  -0.13     0.09   0.01   0.04     0.03   0.03   0.01
  38   1     0.06   0.07  -0.14     0.08  -0.00   0.04     0.01   0.02   0.01
  39   1     0.39   0.19  -0.12    -0.01  -0.03   0.01    -0.06  -0.00  -0.01
  40   1    -0.15   0.06   0.50     0.05  -0.07   0.00    -0.01  -0.05  -0.01
  41   1    -0.32  -0.24  -0.26     0.02  -0.02   0.01    -0.04   0.01  -0.01
                     19                     20                     21
                        a                      a                      a 
 Frequencies --   353.6912               403.1865               411.9218
 Red. masses --     9.0610                 8.8297                 9.3140
 Frc consts  --     0.0000                 0.0000                 0.0000
 IR Inten    --     0.8507                 1.2328                 2.7886
 Raman Activ --     0.0000                 0.0000                 0.0000
 Depolar     --     0.0000                 0.0000                 0.0000
 Atom AN      X      Y      Z        X      Y      Z        X      Y      Z
   1   7    -0.00   0.08  -0.00     0.24  -0.06   0.05    -0.29   0.07  -0.06
   2   6     0.07  -0.26   0.03     0.14   0.04   0.03    -0.16  -0.04  -0.03
   3   6     0.15  -0.16   0.04    -0.15  -0.09  -0.02     0.18   0.12   0.03
   4   6     0.04   0.27  -0.06    -0.22   0.01  -0.02     0.28  -0.04   0.05
   5   6    -0.06   0.21  -0.14    -0.18   0.09   0.03     0.22  -0.13   0.00
   6   6    -0.10  -0.16   0.27    -0.10  -0.01  -0.10     0.14   0.10  -0.04
   7   6    -0.21  -0.15   0.19     0.12   0.01   0.04    -0.08   0.05  -0.14
   8   6    -0.14   0.06  -0.22     0.15  -0.02   0.07    -0.16  -0.10   0.10
   9   6    -0.11   0.11  -0.22     0.07  -0.05  -0.04    -0.19  -0.10   0.13
  10   6    -0.07   0.04  -0.01    -0.05   0.35  -0.06    -0.19   0.17  -0.09
  11   6     0.07   0.09   0.02    -0.24   0.13  -0.09    -0.09   0.17  -0.07
  12   6     0.17  -0.07   0.05    -0.11  -0.32   0.02     0.06  -0.20   0.05
  13   6     0.19  -0.09   0.07     0.29  -0.04   0.09     0.28  -0.09   0.09
  14   1    -0.06   0.04  -0.01     0.10  -0.03   0.02    -0.12   0.04  -0.02
  15   1     0.08   0.08   0.01     0.01  -0.05   0.00    -0.02   0.06  -0.01
  16   1    -0.05   0.05  -0.01     0.10  -0.03   0.02    -0.12   0.04  -0.02
  17   1     0.04  -0.08   0.01     0.06   0.00   0.01    -0.07  -0.00  -0.01
  18   1     0.04  -0.08   0.01     0.06   0.01   0.01    -0.07  -0.00  -0.01
  19   1     0.09  -0.05   0.03    -0.06  -0.02  -0.01     0.07   0.03   0.01
  20   1     0.08  -0.07   0.02    -0.05  -0.02  -0.01     0.07   0.03   0.01
  21   1    -0.03   0.09  -0.02    -0.07   0.00  -0.01     0.10  -0.01   0.02
  22   1    -0.00   0.07  -0.01    -0.09   0.02  -0.01     0.11  -0.03   0.02
  23   1    -0.11   0.01  -0.13    -0.03   0.06   0.05     0.07  -0.05  -0.00
  24   1     0.03   0.14  -0.10    -0.09  -0.01   0.03     0.08  -0.03  -0.01
  25   1    -0.02  -0.08   0.10    -0.01  -0.03  -0.01     0.02   0.07  -0.04
  26   1    -0.08  -0.09   0.04    -0.07  -0.03  -0.04     0.10   0.07   0.02
  27   1    -0.10  -0.06   0.07     0.05   0.02   0.00    -0.02   0.01  -0.04
  28   1    -0.11  -0.06   0.07     0.05   0.01   0.01    -0.01   0.02  -0.04
  29   1    -0.02   0.03  -0.07     0.05   0.01   0.01    -0.06  -0.04   0.04
  30   1    -0.00   0.04  -0.07     0.04  -0.01   0.03    -0.07  -0.04   0.03
  31   1    -0.02   0.05  -0.08     0.10  -0.08   0.05    -0.04  -0.05   0.06
  32   1    -0.00   0.05  -0.05    -0.05  -0.10  -0.09    -0.10  -0.07   0.01
  33   1    -0.01   0.05   0.03    -0.02   0.10  -0.02    -0.11   0.03  -0.07
  34   1    -0.06  -0.01   0.01    -0.04   0.09  -0.02    -0.05   0.08  -0.05
  35   1     0.02   0.02   0.01    -0.13   0.05  -0.05    -0.06   0.05  -0.03
  36   1     0.01   0.02   0.01    -0.13   0.06  -0.05    -0.06   0.06  -0.03
  37   1     0.06  -0.03   0.02    -0.03  -0.08   0.01     0.04  -0.06   0.02
  38   1     0.07  -0.02   0.02    -0.03  -0.09   0.00     0.03  -0.06   0.02
  39   1     0.07  -0.03   0.02     0.17  -0.03   0.06     0.13  -0.04   0.04
  40   1     0.05  -0.01   0.02     0.04   0.14  -0.01     0.06   0.06   0.01
  41   1     0.06  -0.03   0.02     0.18  -0.03   0.06     0.13  -0.04   0.05
                     22                     23                     24
                        a                      a                      a 
 Frequencies --   485.3609               528.7608               758.5976
 Red. masses --     9.0767                 8.4539                 1.9834
 Frc consts  --     0.0000                 0.0000                 0.0000
 IR Inten    --     1.0365                 0.9386                18.6617
 Raman Activ --     0.0000                 0.0000                 0.0000
 Depolar     --     0.0000                 0.0000                 0.0000
 Atom AN      X      Y      Z        X      Y      Z        X      Y      Z
   1   7    -0.11   0.03  -0.02     0.05  -0.01   0.01     0.01   0.00   0.00
   2   6    -0.01  -0.15   0.00    -0.01   0.10  -0.00    -0.00   0.00  -0.00
   3   6     0.25   0.06   0.05    -0.17  -0.04  -0.04    -0.02  -0.01  -0.02
   4   6     0.21   0.08   0.05    -0.12  -0.03  -0.07    -0.01   0.03  -0.04
   5   6    -0.24  -0.19  -0.01     0.28   0.18  -0.00     0.03   0.01  -0.03
   6   6    -0.31  -0.01   0.01     0.27  -0.06   0.23     0.05  -0.06  -0.00
   7   6    -0.13  -0.01   0.01    -0.26  -0.09  -0.09     0.00  -0.13  -0.04
   8   6     0.00  -0.02  -0.05    -0.27  -0.09  -0.09     0.02  -0.14  -0.01
   9   6     0.37   0.02   0.09     0.21  -0.04   0.24     0.07  -0.08   0.01
  10   6     0.34   0.19  -0.00     0.24   0.14  -0.01     0.07   0.02  -0.07
  11   6    -0.08  -0.06  -0.05    -0.04  -0.01  -0.05     0.02   0.04  -0.10
  12   6    -0.18  -0.04  -0.05    -0.10  -0.04  -0.03    -0.01  -0.03  -0.05
  13   6    -0.10   0.09  -0.04    -0.05   0.05  -0.02    -0.01   0.00  -0.01
  14   1    -0.08   0.03  -0.01     0.05  -0.02   0.01     0.01   0.00   0.00
  15   1     0.05   0.06   0.01    -0.04  -0.04  -0.01    -0.01  -0.00  -0.00
  16   1    -0.08   0.03  -0.02     0.05  -0.02   0.01     0.00  -0.00   0.00
  17   1    -0.01  -0.04  -0.00     0.00   0.03   0.00    -0.00   0.02   0.01
  18   1    -0.01  -0.04  -0.00     0.00   0.02   0.00     0.00  -0.02   0.01
  19   1     0.10  -0.00   0.02    -0.07   0.00  -0.01     0.02   0.04   0.04
  20   1     0.11   0.00   0.02    -0.08  -0.01  -0.01    -0.04  -0.05   0.03
  21   1     0.10   0.00   0.02    -0.08   0.01  -0.03    -0.00   0.09   0.05
  22   1     0.10   0.00   0.03    -0.07   0.01  -0.03    -0.05  -0.06   0.05
  23   1    -0.09  -0.02   0.01     0.03  -0.04  -0.10    -0.01   0.07   0.03
  24   1    -0.10  -0.06   0.00     0.19   0.13  -0.06    -0.02  -0.05   0.03
  25   1    -0.17   0.05  -0.03     0.17  -0.06   0.09    -0.04   0.14  -0.12
  26   1    -0.05   0.05   0.08     0.05  -0.06  -0.03    -0.00   0.04   0.19
  27   1    -0.05  -0.01   0.01    -0.13  -0.04  -0.01    -0.20   0.20  -0.18
  28   1    -0.02   0.00  -0.00    -0.13  -0.04   0.01     0.06   0.11   0.31
  29   1    -0.01  -0.02  -0.00    -0.13  -0.05  -0.00    -0.20   0.22  -0.20
  30   1    -0.03  -0.02  -0.01    -0.13  -0.05  -0.00     0.04   0.11   0.34
  31   1     0.19  -0.04   0.07     0.14  -0.04   0.10    -0.07   0.14  -0.14
  32   1     0.09  -0.04  -0.06     0.05  -0.05  -0.01    -0.01   0.06   0.23
  33   1     0.10  -0.01  -0.04     0.03  -0.05  -0.09    -0.02   0.17   0.07
  34   1     0.16   0.09  -0.03     0.16   0.11  -0.06    -0.04  -0.13   0.09
  35   1    -0.06   0.00  -0.02    -0.05   0.01  -0.03    -0.00   0.22   0.10
  36   1    -0.05  -0.01  -0.02    -0.03   0.01  -0.02    -0.10  -0.15   0.12
  37   1    -0.07   0.00  -0.01    -0.04  -0.00  -0.01     0.04   0.12   0.08
  38   1    -0.08  -0.01  -0.02    -0.05  -0.01  -0.01    -0.09  -0.11   0.08
  39   1    -0.01   0.02  -0.01    -0.00   0.01  -0.00     0.02  -0.04   0.04
  40   1    -0.04   0.06  -0.02    -0.02   0.04  -0.01    -0.01   0.02   0.01
  41   1    -0.01   0.02  -0.00    -0.00   0.01  -0.00    -0.02   0.04   0.02
                     25                     26                     27
                        a                      a                      a 
 Frequencies --   764.6322               770.7261               787.0948
 Red. masses --     2.0408                 1.8507                 2.4969
 Frc consts  --     0.0000                 0.0000                 0.0000
 IR Inten    --     0.6578                23.0954                 3.7312
 Raman Activ --     0.0000                 0.0000                 0.0000
 Depolar     --     0.0000                 0.0000                 0.0000
 Atom AN      X      Y      Z        X      Y      Z        X      Y      Z
   1   7    -0.00  -0.00  -0.01    -0.01  -0.00  -0.01    -0.00   0.01   0.04
   2   6     0.00  -0.01   0.02     0.01   0.00  -0.06    -0.03   0.01   0.13
   3   6     0.01   0.02   0.07     0.03  -0.00  -0.12    -0.05  -0.02   0.09
   4   6    -0.01  -0.04   0.11     0.04  -0.02  -0.12    -0.01   0.05  -0.06
   5   6    -0.05  -0.01   0.09     0.03   0.01  -0.05     0.07   0.01  -0.12
   6   6    -0.06   0.07   0.01    -0.01   0.03   0.01     0.09  -0.10  -0.03
   7   6    -0.04   0.09  -0.03    -0.05   0.06   0.05     0.02  -0.07   0.04
   8   6     0.01  -0.00   0.06    -0.05   0.06   0.04    -0.06   0.09  -0.00
   9   6     0.04  -0.04  -0.01    -0.01   0.03   0.01    -0.09   0.11   0.03
  10   6     0.05   0.00  -0.09     0.02   0.00  -0.04    -0.04   0.00   0.04
  11   6     0.03   0.00  -0.13     0.03  -0.03  -0.09     0.03  -0.07  -0.04
  12   6     0.01  -0.02  -0.09     0.03  -0.00  -0.07     0.05   0.01  -0.08
  13   6    -0.00   0.00  -0.01     0.00   0.00  -0.01     0.01  -0.00  -0.01
  14   1    -0.01  -0.01  -0.01     0.04   0.03   0.04    -0.14  -0.06  -0.10
  15   1     0.01   0.00   0.00    -0.00  -0.00   0.01    -0.00  -0.01  -0.06
  16   1     0.00   0.01  -0.01    -0.06  -0.02   0.02     0.19   0.05  -0.04
  17   1     0.02  -0.08  -0.04    -0.02   0.18   0.10    -0.02  -0.26  -0.16
  18   1    -0.00   0.07  -0.05    -0.02  -0.17   0.11     0.09   0.26  -0.16
  19   1    -0.07  -0.14  -0.12     0.09   0.25   0.19     0.01  -0.19  -0.10
  20   1     0.12   0.14  -0.09    -0.16  -0.24   0.15     0.01   0.17  -0.11
  21   1    -0.02  -0.24  -0.15     0.07   0.24   0.18    -0.08   0.12   0.02
  22   1     0.11   0.20  -0.14    -0.13  -0.24   0.15     0.02  -0.07   0.05
  23   1     0.00  -0.18  -0.11    -0.01   0.14   0.08     0.02   0.17   0.10
  24   1     0.06   0.16  -0.10    -0.00  -0.14   0.09    -0.08  -0.15   0.08
  25   1     0.06  -0.11   0.10     0.01  -0.08   0.07    -0.08   0.12  -0.12
  26   1    -0.00  -0.03  -0.17     0.00  -0.02  -0.09     0.02   0.04   0.20
  27   1     0.07  -0.12   0.09     0.09  -0.12   0.11     0.01   0.07  -0.06
  28   1     0.00  -0.04  -0.19    -0.05  -0.07  -0.17    -0.07  -0.02   0.13
  29   1     0.05  -0.02   0.03     0.09  -0.12   0.11     0.03  -0.13   0.12
  30   1    -0.05  -0.04  -0.01    -0.05  -0.07  -0.17     0.03  -0.02  -0.20
  31   1    -0.04   0.02  -0.03     0.01  -0.07   0.07     0.08  -0.14   0.15
  32   1     0.01   0.01   0.05     0.01  -0.03  -0.09    -0.01  -0.07  -0.22
  33   1    -0.02   0.21   0.09    -0.02   0.11   0.05    -0.02  -0.04  -0.02
  34   1    -0.05  -0.17   0.13    -0.00  -0.09   0.07     0.06   0.02  -0.00
  35   1     0.02   0.28   0.14     0.03   0.18   0.10     0.07   0.05   0.07
  36   1    -0.13  -0.22   0.17    -0.09  -0.16   0.11    -0.06  -0.08   0.05
  37   1     0.06   0.19   0.12     0.04   0.16   0.10     0.03   0.16   0.08
  38   1    -0.13  -0.16   0.12    -0.10  -0.13   0.10    -0.07  -0.12   0.09
  39   1     0.03  -0.06   0.06     0.02  -0.05   0.05     0.02  -0.06   0.06
  40   1    -0.01   0.01   0.02    -0.00  -0.00   0.03     0.00  -0.02   0.04
  41   1    -0.04   0.07   0.02    -0.05   0.07   0.02    -0.07   0.08   0.01
                     28                     29                     30
                        a                      a                      a 
 Frequencies --   799.9202               823.1846               847.1345
 Red. masses --     2.5843                 2.8700                 2.9918
 Frc consts  --     0.0000                 0.0000                 0.0000
 IR Inten    --     8.2218                 0.7781                19.5109
 Raman Activ --     0.0000                 0.0000                 0.0000
 Depolar     --     0.0000                 0.0000                 0.0000
 Atom AN      X      Y      Z        X      Y      Z        X      Y      Z
   1   7    -0.02  -0.00   0.06     0.01   0.01  -0.03     0.02   0.01  -0.16
   2   6    -0.02   0.01   0.13    -0.00   0.00  -0.03     0.01   0.02  -0.06
   3   6     0.01   0.00   0.02    -0.03  -0.02   0.03    -0.05  -0.02   0.21
   4   6     0.05  -0.06  -0.12    -0.02   0.06   0.03     0.02   0.00  -0.00
   5   6     0.04   0.02  -0.08     0.04  -0.00  -0.02     0.12   0.03  -0.21
   6   6    -0.06   0.10   0.03     0.07  -0.11  -0.02     0.01   0.01  -0.03
   7   6    -0.08   0.09   0.06    -0.03  -0.04  -0.02    -0.05   0.03   0.13
   8   6    -0.01  -0.07   0.01    -0.07   0.07   0.12    -0.04  -0.02  -0.04
   9   6     0.10  -0.12  -0.02    -0.01   0.05  -0.00     0.05  -0.07  -0.01
  10   6     0.08   0.00  -0.07     0.12   0.01  -0.20     0.02  -0.01   0.03
  11   6    -0.01   0.07  -0.00     0.04  -0.03  -0.09    -0.01   0.05   0.02
  12   6    -0.06  -0.02   0.09    -0.06   0.02   0.19    -0.01  -0.02  -0.03
  13   6    -0.02   0.01   0.02    -0.03   0.02   0.06    -0.01  -0.00  -0.02
  14   1    -0.19  -0.07  -0.12     0.08   0.02   0.04     0.33   0.10   0.18
  15   1     0.01  -0.00  -0.07    -0.02  -0.01   0.02    -0.06  -0.01   0.12
  16   1     0.22   0.07  -0.05    -0.07  -0.02   0.02    -0.34  -0.10   0.06
  17   1    -0.06  -0.23  -0.16     0.03   0.04   0.03     0.19   0.03   0.10
  18   1     0.11   0.22  -0.14    -0.04  -0.04   0.02    -0.21  -0.02   0.02
  19   1     0.08  -0.07  -0.01    -0.04  -0.03  -0.03    -0.09  -0.22  -0.13
  20   1    -0.07   0.07  -0.05     0.04   0.02  -0.01     0.13   0.20  -0.10
  21   1     0.01   0.17   0.10    -0.05  -0.01  -0.03    -0.17   0.08  -0.03
  22   1    -0.03  -0.20   0.10     0.02   0.05  -0.02     0.15  -0.06   0.04
  23   1     0.00   0.14   0.08     0.01   0.02   0.01     0.07   0.24   0.15
  24   1     0.02  -0.15   0.09    -0.04  -0.01   0.00    -0.08  -0.22   0.11
  25   1     0.03  -0.15   0.14    -0.05   0.11  -0.11    -0.08  -0.04   0.03
  26   1    -0.01  -0.05  -0.20     0.03   0.04   0.16     0.01   0.00  -0.02
  27   1     0.01  -0.15   0.14     0.05   0.06  -0.05     0.01  -0.08   0.10
  28   1     0.00  -0.04  -0.19    -0.09  -0.03   0.07    -0.06  -0.05  -0.06
  29   1     0.02   0.08  -0.08     0.02  -0.13   0.15     0.04   0.03  -0.04
  30   1    -0.09  -0.02   0.13    -0.04  -0.06  -0.13    -0.06  -0.02   0.03
  31   1    -0.08   0.12  -0.14    -0.05  -0.09   0.08    -0.02   0.07  -0.08
  32   1     0.02   0.06   0.21     0.01  -0.02  -0.09     0.02   0.03   0.10
  33   1     0.01   0.11   0.05     0.01   0.29   0.13     0.00  -0.03  -0.01
  34   1    -0.06  -0.08   0.05    -0.05  -0.25   0.17    -0.01   0.03  -0.02
  35   1    -0.09   0.03  -0.04    -0.13   0.16   0.01    -0.00  -0.02  -0.01
  36   1     0.05   0.02   0.00     0.10  -0.15   0.11    -0.01   0.05  -0.03
  37   1    -0.01  -0.16  -0.07     0.03  -0.29  -0.11    -0.01   0.03   0.01
  38   1     0.05   0.12  -0.09     0.04   0.25  -0.18     0.01  -0.04   0.03
  39   1    -0.03   0.07  -0.06    -0.11   0.18  -0.16     0.03  -0.03   0.03
  40   1    -0.00   0.03  -0.05     0.03  -0.01  -0.10    -0.01   0.02   0.01
  41   1     0.08  -0.09  -0.01     0.16  -0.20  -0.03    -0.02   0.03   0.01
                     31                     32                     33
                        a                      a                      a 
 Frequencies --   886.9337               888.5825               926.8647
 Red. masses --     4.4371                 5.3706                 4.0038
 Frc consts  --     0.0000                 0.0000                 0.0000
 IR Inten    --     7.2315                50.3604                 3.5205
 Raman Activ --     0.0000                 0.0000                 0.0000
 Depolar     --     0.0000                 0.0000                 0.0000
 Atom AN      X      Y      Z        X      Y      Z        X      Y      Z
   1   7     0.12  -0.14  -0.03     0.28  -0.21   0.07     0.01   0.00   0.09
   2   6    -0.02  -0.07   0.02    -0.08  -0.17  -0.01    -0.00  -0.01  -0.09
   3   6    -0.01   0.18   0.05    -0.11   0.29  -0.04    -0.02  -0.00  -0.03
   4   6    -0.02  -0.16  -0.06    -0.14   0.04  -0.02    -0.03   0.05   0.11
   5   6     0.00   0.07  -0.01    -0.02  -0.07  -0.00     0.05  -0.03  -0.12
   6   6    -0.11   0.19   0.01     0.14  -0.10   0.03     0.05  -0.02  -0.03
   7   6     0.04  -0.10   0.00    -0.01   0.06  -0.02     0.04   0.06   0.13
   8   6     0.03  -0.12  -0.03    -0.02   0.07   0.01     0.01   0.02  -0.22
   9   6    -0.15   0.18   0.01     0.09  -0.10   0.02     0.04  -0.06   0.14
  10   6    -0.03   0.09   0.01     0.01  -0.06  -0.01    -0.16  -0.07   0.19
  11   6     0.01  -0.19  -0.07    -0.00   0.11   0.03     0.02   0.03  -0.20
  12   6     0.05   0.07   0.05    -0.03  -0.04  -0.02    -0.00   0.01   0.00
  13   6     0.04   0.01   0.06    -0.03  -0.01  -0.03    -0.03  -0.00   0.13
  14   1    -0.05   0.08   0.03    -0.23   0.08  -0.04    -0.12  -0.03  -0.06
  15   1     0.27   0.14   0.08     0.50   0.25   0.08     0.02   0.00  -0.05
  16   1    -0.24   0.02  -0.02    -0.20   0.09  -0.06     0.14   0.04  -0.01
  17   1     0.01  -0.04  -0.00    -0.10  -0.01  -0.02    -0.11   0.11   0.01
  18   1    -0.12   0.04  -0.03    -0.08  -0.03  -0.01     0.09  -0.12   0.05
  19   1    -0.00  -0.01  -0.03    -0.07   0.10  -0.01    -0.14   0.07  -0.02
  20   1    -0.05   0.12  -0.04    -0.06   0.08  -0.01     0.12  -0.07   0.04
  21   1     0.02   0.01   0.03    -0.04   0.01  -0.01    -0.09  -0.06  -0.07
  22   1     0.02  -0.11   0.04    -0.03   0.02  -0.01     0.09   0.09  -0.04
  23   1     0.02   0.03   0.01    -0.02  -0.02  -0.01     0.08   0.07   0.07
  24   1     0.10  -0.03   0.03    -0.03  -0.01  -0.01    -0.12  -0.07   0.02
  25   1     0.11  -0.11   0.12    -0.03   0.07  -0.06    -0.11  -0.03   0.01
  26   1    -0.11  -0.07  -0.21     0.08   0.04   0.12     0.05   0.03   0.02
  27   1    -0.18   0.00  -0.02     0.10   0.00   0.00     0.02  -0.06   0.09
  28   1     0.17   0.09   0.06    -0.11  -0.05  -0.03    -0.03  -0.03  -0.04
  29   1    -0.18   0.03  -0.05     0.10  -0.02   0.03     0.06   0.07  -0.11
  30   1     0.17   0.09   0.08    -0.10  -0.05  -0.05    -0.01   0.02  -0.00
  31   1     0.14  -0.08   0.12    -0.08   0.04  -0.06     0.12   0.06  -0.02
  32   1    -0.12  -0.09  -0.19     0.07   0.05   0.11     0.03   0.01   0.06
  33   1    -0.02  -0.00  -0.02    -0.00   0.00   0.01    -0.18  -0.17  -0.12
  34   1     0.12   0.01   0.03    -0.07  -0.01  -0.01     0.12   0.11  -0.05
  35   1     0.04   0.03   0.05    -0.02  -0.01  -0.03     0.14   0.14   0.10
  36   1    -0.03  -0.13   0.05     0.02   0.07  -0.03    -0.19  -0.10   0.04
  37   1     0.06  -0.04  -0.00    -0.03   0.02   0.00     0.21  -0.07   0.07
  38   1    -0.07   0.08  -0.05     0.04  -0.04   0.03    -0.19   0.07  -0.07
  39   1    -0.10   0.09  -0.08     0.06  -0.05   0.04    -0.10   0.17  -0.14
  40   1     0.06  -0.11  -0.02    -0.03   0.07   0.01     0.03  -0.00  -0.10
  41   1     0.03  -0.08  -0.03    -0.01   0.04   0.02     0.17  -0.21  -0.01
                     34                     35                     36
                        a                      a                      a 
 Frequencies --   928.3888               939.6140               974.0985
 Red. masses --     5.2241                 5.9234                 8.4330
 Frc consts  --     0.0000                 0.0000                 0.0000
 IR Inten    --     3.2570                 2.9860                 3.0274
 Raman Activ --     0.0000                 0.0000                 0.0000
 Depolar     --     0.0000                 0.0000                 0.0000
 Atom AN      X      Y      Z        X      Y      Z        X      Y      Z
   1   7     0.01   0.03  -0.12     0.06   0.03  -0.02     0.30   0.19   0.06
   2   6    -0.02  -0.02   0.12    -0.06  -0.04   0.02    -0.40  -0.18  -0.09
   3   6    -0.00  -0.01   0.03    -0.05  -0.01  -0.01    -0.13  -0.01  -0.01
   4   6     0.01   0.07  -0.17    -0.02   0.15  -0.05    -0.00   0.26  -0.00
   5   6    -0.19  -0.11   0.15    -0.07  -0.14   0.04    -0.04  -0.26  -0.03
   6   6     0.05  -0.05   0.16     0.12  -0.10   0.07     0.14   0.01   0.09
   7   6     0.09   0.08  -0.18    -0.02   0.13  -0.07     0.00   0.09  -0.04
   8   6     0.09   0.11  -0.11     0.04  -0.03   0.02     0.03  -0.13   0.01
   9   6     0.07  -0.04   0.14     0.03  -0.05  -0.01    -0.17   0.08  -0.04
  10   6    -0.15  -0.16   0.09    -0.04   0.16  -0.02     0.05   0.10  -0.02
  11   6     0.05   0.15  -0.10    -0.26  -0.26  -0.05     0.16  -0.06   0.07
  12   6    -0.05  -0.04  -0.01     0.14   0.21   0.01    -0.01  -0.08   0.02
  13   6    -0.08  -0.02   0.05     0.30   0.01   0.10    -0.13   0.03  -0.06
  14   1     0.20   0.04   0.09     0.07   0.01   0.02     0.15  -0.01   0.02
  15   1    -0.07  -0.03   0.06    -0.02  -0.01   0.01    -0.04  -0.03  -0.01
  16   1    -0.15  -0.06   0.03    -0.01  -0.01   0.01     0.18   0.00   0.03
  17   1     0.16  -0.17  -0.01     0.04  -0.06  -0.00    -0.06  -0.04   0.00
  18   1    -0.11   0.15  -0.07    -0.03   0.02  -0.02    -0.03  -0.08  -0.00
  19   1     0.21  -0.11   0.03     0.06  -0.03   0.01     0.00  -0.03  -0.01
  20   1    -0.16   0.08  -0.05    -0.04   0.01  -0.01     0.07  -0.04   0.01
  21   1     0.12   0.12   0.09     0.02   0.07   0.02    -0.02   0.07  -0.01
  22   1    -0.14  -0.09   0.05    -0.06   0.02   0.00     0.04   0.06   0.00
  23   1    -0.19  -0.12  -0.11    -0.08  -0.05  -0.04    -0.05  -0.03   0.00
  24   1     0.09   0.08  -0.04    -0.03   0.01  -0.02    -0.05  -0.08   0.00
  25   1     0.08   0.02   0.01    -0.04   0.03  -0.02    -0.06  -0.06   0.08
  26   1     0.05   0.00   0.04     0.13   0.05   0.08     0.21   0.08  -0.05
  27   1     0.05   0.04  -0.07     0.09  -0.02   0.02    -0.08  -0.07   0.06
  28   1     0.02   0.02  -0.04    -0.06  -0.03  -0.10     0.10   0.04  -0.11
  29   1     0.04  -0.00  -0.01     0.08   0.06  -0.05    -0.09   0.03  -0.05
  30   1     0.03   0.01  -0.07    -0.12  -0.05   0.08     0.06   0.03   0.09
  31   1     0.01   0.00   0.03     0.05   0.07  -0.07     0.05  -0.03   0.04
  32   1     0.09   0.03   0.04    -0.10  -0.04   0.09    -0.15  -0.08  -0.08
  33   1    -0.14  -0.10  -0.07     0.01   0.01  -0.01     0.03   0.04   0.02
  34   1     0.01   0.03  -0.04     0.02   0.05  -0.01     0.06  -0.01   0.03
  35   1     0.10   0.10   0.05    -0.10  -0.05  -0.02     0.04  -0.03   0.01
  36   1    -0.07  -0.02   0.02    -0.13  -0.06  -0.03     0.12  -0.03   0.03
  37   1     0.13  -0.06   0.04    -0.06   0.08  -0.03    -0.01  -0.03  -0.00
  38   1    -0.07   0.01  -0.03    -0.09   0.09  -0.04     0.06  -0.03   0.02
  39   1     0.01   0.07  -0.05    -0.20   0.05  -0.05     0.07  -0.03   0.03
  40   1    -0.04   0.12  -0.09     0.20  -0.44   0.11    -0.08   0.16  -0.03
  41   1     0.15  -0.12   0.02    -0.17   0.02  -0.07     0.03   0.03   0.02
                     37                     38                     39
                        a                      a                      a 
 Frequencies --   984.5234               993.8173              1006.8563
 Red. masses --     6.1951                 9.1298                 4.1331
 Frc consts  --     0.0000                 0.0000                 0.0000
 IR Inten    --     0.7381                14.7897                 1.5281
 Raman Activ --     0.0000                 0.0000                 0.0000
 Depolar     --     0.0000                 0.0000                 0.0000
 Atom AN      X      Y      Z        X      Y      Z        X      Y      Z
   1   7     0.01   0.03   0.05    -0.34  -0.19  -0.04    -0.01  -0.03  -0.06
   2   6    -0.01  -0.03  -0.09     0.52   0.12   0.06     0.02   0.03   0.11
   3   6    -0.01   0.01   0.07    -0.03   0.03   0.02    -0.00  -0.01  -0.11
   4   6    -0.01   0.01  -0.01    -0.12   0.14  -0.04    -0.01   0.04   0.07
   5   6    -0.12  -0.06  -0.08    -0.13  -0.16  -0.05     0.09   0.01  -0.01
   6   6     0.01   0.05   0.21     0.18  -0.05   0.15     0.03  -0.00  -0.18
   7   6     0.12   0.00  -0.16     0.03   0.14  -0.10     0.06   0.01   0.27
   8   6     0.10   0.11  -0.18     0.05  -0.08  -0.02    -0.07  -0.02  -0.25
   9   6     0.17   0.03   0.28    -0.14   0.04  -0.00    -0.00   0.02   0.19
  10   6    -0.16  -0.22  -0.11     0.01   0.11  -0.01    -0.07  -0.05  -0.03
  11   6    -0.18   0.12  -0.04     0.13  -0.10   0.05    -0.01   0.01  -0.04
  12   6    -0.03   0.11   0.04     0.01  -0.06   0.03    -0.03   0.03   0.08
  13   6     0.14  -0.08  -0.03    -0.09   0.03  -0.05     0.03  -0.04  -0.08
  14   1    -0.04  -0.02  -0.03    -0.18  -0.02  -0.04     0.04   0.02   0.03
  15   1    -0.02  -0.01  -0.03     0.00   0.01  -0.01     0.01   0.01   0.03
  16   1     0.10   0.01  -0.00    -0.13  -0.00  -0.03    -0.09  -0.02   0.00
  17   1    -0.05   0.08   0.02     0.09   0.06   0.02     0.06  -0.10  -0.02
  18   1     0.05  -0.10   0.04     0.13  -0.01   0.05    -0.04   0.11  -0.04
  19   1    -0.13  -0.00  -0.05    -0.10   0.03  -0.02     0.16   0.02   0.06
  20   1     0.17  -0.01   0.01     0.02   0.03  -0.01    -0.20  -0.01  -0.01
  21   1    -0.12   0.05  -0.03    -0.11   0.07  -0.02     0.17  -0.10   0.02
  22   1     0.16  -0.06   0.03     0.01   0.01   0.00    -0.19   0.14  -0.06
  23   1    -0.14   0.07  -0.01    -0.14   0.01  -0.03     0.24  -0.07   0.06
  24   1     0.05  -0.11   0.05    -0.05  -0.06   0.00    -0.21   0.09  -0.06
  25   1     0.06  -0.06   0.11    -0.03  -0.02   0.05    -0.19  -0.03  -0.02
  26   1    -0.02  -0.04  -0.04     0.19   0.06   0.03     0.07   0.05  -0.00
  27   1    -0.12   0.01  -0.05    -0.00  -0.04   0.03    -0.03  -0.08   0.13
  28   1     0.09   0.05   0.01     0.03   0.02  -0.11     0.03  -0.02  -0.00
  29   1    -0.11  -0.04   0.01    -0.02   0.05  -0.06    -0.02   0.06  -0.11
  30   1     0.10   0.05  -0.08    -0.00   0.01   0.08    -0.00   0.03  -0.00
  31   1     0.01  -0.06   0.13     0.06  -0.00   0.02     0.15   0.02   0.04
  32   1     0.15   0.04  -0.01    -0.16  -0.08  -0.02    -0.01  -0.03  -0.01
  33   1    -0.18   0.06  -0.03    -0.01   0.04  -0.00    -0.22   0.06  -0.07
  34   1    -0.02  -0.15   0.05     0.07   0.00   0.03     0.17  -0.09   0.07
  35   1    -0.19   0.06  -0.07     0.02  -0.02   0.01    -0.17   0.08  -0.05
  36   1     0.11  -0.00   0.02     0.10  -0.05   0.04     0.19  -0.08   0.08
  37   1    -0.16   0.02  -0.07    -0.02  -0.03  -0.01    -0.15  -0.02  -0.07
  38   1     0.14   0.04   0.01     0.05  -0.02   0.01     0.17   0.02   0.02
  39   1     0.04  -0.11   0.08     0.04  -0.02   0.02     0.07  -0.10   0.07
  40   1     0.04  -0.10   0.08    -0.05   0.10  -0.02    -0.01   0.01   0.05
  41   1    -0.09   0.09  -0.00     0.01   0.03   0.01    -0.07   0.09   0.01
                     40                     41                     42
                        a                      a                      a 
 Frequencies --  1030.3604              1070.6140              1080.0855
 Red. masses --     4.5572                 9.4062                 8.5727
 Frc consts  --     0.0000                 0.0000                 0.0000
 IR Inten    --     1.2701                 3.2803                 1.0614
 Raman Activ --     0.0000                 0.0000                 0.0000
 Depolar     --     0.0000                 0.0000                 0.0000
 Atom AN      X      Y      Z        X      Y      Z        X      Y      Z
   1   7    -0.06  -0.04  -0.03     0.02  -0.07   0.01     0.01  -0.05   0.00
   2   6     0.13  -0.01   0.06     0.01   0.08  -0.00     0.04  -0.02   0.01
   3   6    -0.11   0.01  -0.07    -0.26  -0.15  -0.04    -0.40  -0.11  -0.08
   4   6    -0.04   0.22   0.03     0.30   0.12   0.04     0.43   0.07   0.10
   5   6     0.07  -0.18  -0.05     0.24   0.05   0.10     0.02   0.08  -0.00
   6   6     0.09   0.07  -0.03    -0.23  -0.15  -0.03    -0.11  -0.04   0.07
   7   6    -0.06  -0.08   0.06    -0.32   0.02  -0.16     0.18   0.04  -0.05
   8   6    -0.04  -0.06   0.13     0.30  -0.03   0.19    -0.07   0.08  -0.16
   9   6     0.12   0.07  -0.07     0.13   0.16  -0.04    -0.06  -0.13   0.09
  10   6     0.08  -0.17  -0.03    -0.17  -0.09  -0.03     0.04   0.11  -0.01
  11   6    -0.15   0.17  -0.01    -0.07  -0.02  -0.04     0.11  -0.05   0.05
  12   6    -0.03   0.06  -0.08    -0.04   0.19  -0.02     0.09  -0.27   0.05
  13   6     0.08  -0.05   0.08     0.01  -0.17   0.01    -0.04   0.24  -0.04
  14   1    -0.01   0.00   0.00    -0.05   0.01  -0.01    -0.02   0.00  -0.00
  15   1    -0.00  -0.00   0.01     0.07   0.03   0.01     0.04   0.02   0.01
  16   1    -0.05  -0.01  -0.00    -0.04   0.01  -0.01    -0.02   0.00  -0.01
  17   1     0.07  -0.05  -0.00    -0.00   0.02  -0.00     0.04  -0.03   0.00
  18   1     0.03   0.02  -0.00    -0.00   0.02   0.00     0.04  -0.02   0.01
  19   1     0.03   0.02   0.02    -0.14  -0.02  -0.03    -0.18  -0.00  -0.04
  20   1    -0.09  -0.00  -0.01    -0.13  -0.02  -0.02    -0.19  -0.01  -0.03
  21   1     0.05   0.00  -0.00     0.02   0.07   0.01     0.17  -0.01   0.03
  22   1    -0.08   0.12  -0.04     0.05   0.03   0.01     0.14   0.02   0.03
  23   1     0.12  -0.04   0.05    -0.02   0.03  -0.01    -0.05   0.06  -0.00
  24   1    -0.14  -0.03  -0.02     0.08   0.04   0.01    -0.05   0.04  -0.01
  25   1    -0.14  -0.09   0.08    -0.11   0.00  -0.04    -0.08  -0.04   0.05
  26   1     0.21   0.09  -0.10     0.01   0.02   0.02    -0.07  -0.03   0.03
  27   1    -0.24  -0.10   0.08    -0.04  -0.02  -0.02     0.01   0.02  -0.02
  28   1     0.17   0.07  -0.02    -0.07  -0.01  -0.10     0.11   0.05  -0.01
  29   1    -0.24  -0.11   0.11     0.11   0.05   0.00    -0.06  -0.03  -0.00
  30   1     0.17   0.06  -0.02     0.07   0.01   0.10     0.01   0.02  -0.09
  31   1    -0.17  -0.10   0.06     0.17   0.04   0.00    -0.15  -0.04   0.02
  32   1     0.22   0.10  -0.09    -0.06  -0.03  -0.04     0.05   0.02   0.05
  33   1     0.18  -0.05   0.08    -0.02  -0.04  -0.01    -0.05   0.06  -0.01
  34   1    -0.19  -0.02  -0.04     0.04  -0.04   0.01    -0.09   0.04  -0.03
  35   1     0.06  -0.02   0.00     0.05  -0.01   0.02    -0.03  -0.01  -0.01
  36   1    -0.16   0.13  -0.08     0.08  -0.05   0.03    -0.06   0.02  -0.02
  37   1     0.07   0.05   0.03     0.01   0.03  -0.01    -0.01  -0.06   0.01
  38   1    -0.11   0.01  -0.01     0.06   0.04   0.00    -0.03  -0.07   0.00
  39   1    -0.03   0.03  -0.03     0.11  -0.07   0.04    -0.14   0.09  -0.05
  40   1     0.05  -0.07  -0.00    -0.03   0.09  -0.02     0.03  -0.09   0.02
  41   1     0.04  -0.07  -0.00     0.09  -0.04   0.04    -0.12   0.07  -0.06
                     43                     44                     45
                        a                      a                      a 
 Frequencies --  1085.4843              1092.0488              1105.8405
 Red. masses --     8.1166                 8.1224                 8.0302
 Frc consts  --     0.0000                 0.0000                 0.0000
 IR Inten    --     7.2590                16.0773                 0.7712
 Raman Activ --     0.0000                 0.0000                 0.0000
 Depolar     --     0.0000                 0.0000                 0.0000
 Atom AN      X      Y      Z        X      Y      Z        X      Y      Z
   1   7     0.03  -0.02  -0.01    -0.07   0.07  -0.01     0.01  -0.04   0.01
   2   6    -0.09   0.16   0.00     0.17  -0.32   0.03    -0.03   0.13  -0.03
   3   6     0.27  -0.10   0.02    -0.19   0.33  -0.03     0.07  -0.11   0.05
   4   6    -0.17  -0.07   0.01    -0.11   0.19  -0.07    -0.06   0.09  -0.06
   5   6     0.08   0.03  -0.05     0.12  -0.19   0.09     0.09  -0.08   0.09
   6   6    -0.03  -0.06   0.04    -0.06   0.14  -0.20    -0.08  -0.04  -0.04
   7   6    -0.25  -0.02  -0.15    -0.22  -0.19   0.12     0.06   0.02   0.03
   8   6     0.36   0.14  -0.03     0.14   0.10   0.03    -0.12  -0.12   0.12
   9   6     0.07  -0.04   0.18     0.04  -0.04   0.03     0.10   0.13  -0.13
  10   6    -0.16   0.12  -0.11    -0.07   0.03   0.02    -0.07  -0.18   0.04
  11   6     0.12  -0.13   0.09     0.06  -0.03  -0.01    -0.27   0.04  -0.12
  12   6     0.09  -0.23   0.04     0.04  -0.14   0.06     0.38  -0.20   0.17
  13   6    -0.06   0.20  -0.03    -0.02   0.12  -0.04    -0.15   0.30  -0.11
  14   1    -0.01   0.02   0.00     0.06  -0.04   0.00    -0.04   0.01  -0.01
  15   1     0.05   0.02   0.01    -0.13  -0.06  -0.02     0.05   0.02   0.00
  16   1    -0.04   0.01  -0.01     0.07  -0.03   0.02    -0.02   0.02  -0.01
  17   1    -0.07   0.05  -0.02     0.13  -0.12   0.03    -0.04   0.07  -0.00
  18   1    -0.08   0.09  -0.03     0.13  -0.14   0.04    -0.04   0.03  -0.00
  19   1     0.11  -0.02   0.03    -0.01   0.06  -0.01     0.00  -0.04  -0.01
  20   1     0.04  -0.04   0.02     0.02   0.08  -0.01     0.06  -0.02   0.00
  21   1    -0.09  -0.03  -0.03    -0.00   0.07   0.01    -0.08   0.08  -0.01
  22   1    -0.14   0.05  -0.04     0.06  -0.00   0.02    -0.05   0.01  -0.00
  23   1     0.09   0.02   0.03     0.10  -0.11   0.01    -0.02  -0.04  -0.02
  24   1    -0.09  -0.00  -0.00     0.22  -0.07   0.03     0.11  -0.01   0.02
  25   1    -0.12  -0.04   0.03     0.17   0.05  -0.07    -0.03  -0.01  -0.01
  26   1     0.06   0.02   0.00    -0.04  -0.00  -0.11     0.02   0.01  -0.01
  27   1    -0.22  -0.07   0.01    -0.05   0.01  -0.01     0.09   0.03  -0.01
  28   1    -0.09  -0.02  -0.04    -0.12  -0.06   0.10     0.07   0.03  -0.02
  29   1     0.04   0.00   0.02     0.16   0.03   0.01    -0.05  -0.01   0.02
  30   1     0.17   0.06  -0.04     0.07   0.02  -0.05    -0.06  -0.03   0.07
  31   1    -0.12  -0.06   0.08     0.02   0.02  -0.02     0.15   0.05  -0.04
  32   1    -0.01  -0.01   0.08     0.03   0.01   0.04     0.09   0.05  -0.09
  33   1    -0.08   0.08  -0.01    -0.12   0.01  -0.05    -0.01  -0.09  -0.01
  34   1    -0.20   0.04  -0.05     0.01   0.02  -0.01     0.09  -0.05   0.02
  35   1     0.06  -0.08   0.01    -0.03   0.02  -0.01    -0.18   0.06  -0.05
  36   1    -0.01  -0.00  -0.01     0.01  -0.03   0.02    -0.12  -0.01  -0.02
  37   1     0.01  -0.05   0.01    -0.03  -0.04  -0.01     0.19  -0.10   0.06
  38   1    -0.03  -0.06   0.01     0.03  -0.02   0.00     0.25  -0.08   0.07
  39   1    -0.11   0.08  -0.04    -0.06   0.03  -0.01    -0.07   0.08  -0.03
  40   1     0.01  -0.05   0.00     0.01  -0.04   0.02    -0.04   0.05  -0.01
  41   1    -0.09   0.05  -0.04    -0.08   0.06  -0.03    -0.10   0.12  -0.03
                     46                     47                     48
                        a                      a                      a 
 Frequencies --  1111.3346              1118.4708              1124.9536
 Red. masses --     7.9742                 7.8152                 7.9648
 Frc consts  --     0.0000                 0.0000                 0.0000
 IR Inten    --     4.3838                 2.0133                 2.5075
 Raman Activ --     0.0000                 0.0000                 0.0000
 Depolar     --     0.0000                 0.0000                 0.0000
 Atom AN      X      Y      Z        X      Y      Z        X      Y      Z
   1   7    -0.02   0.08  -0.03    -0.02   0.02  -0.01     0.02  -0.03   0.02
   2   6     0.04  -0.25   0.06     0.05  -0.08   0.02    -0.03   0.11  -0.03
   3   6    -0.06   0.25  -0.09     0.04   0.13  -0.00    -0.02  -0.14   0.04
   4   6     0.04  -0.23   0.10    -0.20   0.11  -0.01     0.10   0.01  -0.03
   5   6    -0.16   0.19  -0.18     0.32  -0.08   0.08    -0.20  -0.02  -0.00
   6   6     0.17   0.00   0.13    -0.31  -0.15   0.12     0.19   0.13  -0.11
   7   6    -0.02   0.04  -0.07     0.28   0.12  -0.12    -0.02  -0.08   0.19
   8   6     0.02  -0.03   0.06    -0.19  -0.04  -0.03    -0.18  -0.09   0.17
   9   6     0.20   0.12   0.03     0.16   0.06   0.00     0.32   0.16  -0.11
  10   6    -0.19   0.02  -0.15    -0.17   0.11  -0.12    -0.33   0.08  -0.10
  11   6    -0.18  -0.18   0.02     0.13  -0.13   0.08     0.25  -0.09   0.06
  12   6     0.25   0.07   0.02    -0.06   0.03  -0.06    -0.12  -0.10  -0.02
  13   6    -0.14   0.02  -0.02    -0.00  -0.06   0.03     0.04   0.02   0.00
  14   1     0.09  -0.02   0.01     0.02  -0.01   0.00    -0.04   0.01  -0.01
  15   1    -0.10  -0.05  -0.01    -0.04  -0.02  -0.01     0.05   0.02   0.00
  16   1     0.04  -0.03   0.02     0.02  -0.01   0.01    -0.02   0.01  -0.01
  17   1     0.08  -0.12   0.01     0.03  -0.03   0.01    -0.03   0.06  -0.00
  18   1     0.07  -0.06   0.01     0.02  -0.02   0.00    -0.03   0.02  -0.00
  19   1     0.02   0.09   0.02     0.05   0.03   0.01    -0.04  -0.05  -0.01
  20   1    -0.08   0.04   0.00     0.05   0.02   0.01     0.01  -0.02  -0.01
  21   1     0.13  -0.16   0.01    -0.06   0.03  -0.01     0.02   0.03   0.01
  22   1     0.07  -0.02  -0.01    -0.11   0.08  -0.03     0.05  -0.05   0.03
  23   1     0.04   0.09   0.04     0.15  -0.03   0.05    -0.10  -0.02  -0.04
  24   1    -0.22   0.02  -0.02     0.17  -0.07   0.06    -0.04   0.03  -0.03
  25   1    -0.00  -0.00   0.04    -0.22  -0.11   0.08     0.16   0.07  -0.05
  26   1    -0.03  -0.03   0.07    -0.16  -0.08   0.07     0.10   0.05  -0.07
  27   1    -0.05  -0.03   0.01     0.15   0.08  -0.07     0.02  -0.01   0.05
  28   1    -0.07  -0.02  -0.01     0.11   0.05  -0.04     0.01  -0.01   0.06
  29   1    -0.06  -0.02   0.03    -0.16  -0.06   0.03    -0.07  -0.06   0.07
  30   1    -0.10  -0.05   0.07    -0.12  -0.04   0.01    -0.05  -0.02   0.04
  31   1     0.09   0.03   0.01     0.06   0.04  -0.02     0.20   0.11  -0.08
  32   1    -0.03  -0.02   0.01     0.05   0.02   0.01     0.16   0.09  -0.04
  33   1     0.06   0.01   0.03    -0.04   0.06  -0.01    -0.18   0.04  -0.07
  34   1    -0.14  -0.02  -0.02    -0.18   0.04  -0.05    -0.19   0.08  -0.08
  35   1     0.02  -0.10   0.00     0.09  -0.07   0.03     0.09  -0.03   0.03
  36   1    -0.03  -0.03  -0.01     0.08  -0.03   0.02     0.14  -0.07   0.05
  37   1     0.19   0.00   0.06    -0.02   0.03  -0.01    -0.11  -0.01  -0.03
  38   1     0.13  -0.03   0.05    -0.08   0.00  -0.02    -0.10  -0.00  -0.03
  39   1     0.06   0.02  -0.01     0.02  -0.01  -0.00    -0.04   0.00  -0.00
  40   1    -0.07   0.15  -0.05    -0.01   0.01  -0.01     0.03  -0.06   0.02
  41   1     0.07  -0.01   0.03     0.04  -0.04   0.01    -0.04   0.01  -0.02
                     49                     50                     51
                        a                      a                      a 
 Frequencies --  1134.6214              1163.6254              1175.6681
 Red. masses --     8.4196                 7.2516                 6.2877
 Frc consts  --     0.0000                 0.0000                 0.0000
 IR Inten    --     1.7333                 2.4070                 1.4432
 Raman Activ --     0.0000                 0.0000                 0.0000
 Depolar     --     0.0000                 0.0000                 0.0000
 Atom AN      X      Y      Z        X      Y      Z        X      Y      Z
   1   7     0.02  -0.06   0.01     0.03  -0.04  -0.10     0.02  -0.02  -0.06
   2   6    -0.02   0.16  -0.03    -0.05   0.11   0.19    -0.02   0.05   0.11
   3   6    -0.04  -0.19   0.03    -0.00  -0.13  -0.21    -0.02  -0.06  -0.10
   4   6     0.05   0.19  -0.04    -0.04   0.17   0.22     0.00   0.09   0.07
   5   6    -0.03  -0.18   0.06    -0.02  -0.19  -0.26    -0.03  -0.09  -0.04
   6   6    -0.00   0.16  -0.13     0.01   0.20   0.23     0.01   0.06  -0.02
   7   6     0.09  -0.12   0.17     0.03  -0.13  -0.20     0.02   0.05   0.07
   8   6    -0.06   0.13  -0.21     0.00   0.10   0.17     0.05  -0.10  -0.15
   9   6     0.05  -0.13   0.20    -0.00  -0.06  -0.16    -0.01   0.23   0.19
  10   6    -0.01   0.19  -0.14    -0.01   0.03   0.13    -0.01  -0.24  -0.23
  11   6    -0.19  -0.28   0.06     0.03  -0.02  -0.09    -0.01   0.24   0.19
  12   6     0.20   0.24  -0.03    -0.02   0.02   0.06    -0.04  -0.17  -0.19
  13   6    -0.13  -0.12   0.01     0.01  -0.02  -0.04     0.03   0.09   0.11
  14   1    -0.05   0.01  -0.01     0.06   0.04   0.04     0.04   0.02   0.02
  15   1     0.07   0.03   0.01     0.04   0.02   0.04     0.02   0.01   0.02
  16   1    -0.03   0.02  -0.02    -0.12  -0.02  -0.00    -0.07  -0.02  -0.00
  17   1    -0.03   0.07  -0.00    -0.07  -0.08  -0.05    -0.06  -0.04  -0.03
  18   1    -0.03   0.04  -0.00     0.07   0.14  -0.03     0.06   0.06  -0.01
  19   1    -0.01  -0.07  -0.01     0.07   0.07   0.06     0.01   0.04   0.02
  20   1     0.02  -0.04  -0.00    -0.04  -0.16   0.04     0.00  -0.08   0.02
  21   1    -0.01   0.08   0.00     0.01  -0.11  -0.05    -0.03  -0.01  -0.02
  22   1     0.02   0.01   0.01     0.08   0.16  -0.04     0.08   0.03   0.00
  23   1     0.01  -0.09  -0.01     0.13   0.05   0.09     0.03  -0.02   0.02
  24   1     0.09  -0.03   0.00    -0.06  -0.19   0.04     0.07  -0.07   0.02
  25   1     0.13   0.02  -0.02     0.15  -0.06   0.13     0.13   0.04  -0.03
  26   1    -0.04  -0.00  -0.10    -0.17  -0.10  -0.06    -0.14  -0.06   0.01
  27   1    -0.02   0.01   0.01    -0.01   0.09  -0.14     0.11   0.02   0.01
  28   1    -0.03  -0.03   0.12    -0.07  -0.01   0.11    -0.17  -0.08   0.03
  29   1     0.02  -0.01  -0.02     0.09  -0.03   0.09     0.04   0.08  -0.12
  30   1    -0.04   0.00  -0.10    -0.08  -0.05  -0.03    -0.14  -0.05   0.12
  31   1    -0.11  -0.02   0.04     0.02   0.06  -0.10     0.18  -0.02   0.13
  32   1    -0.04  -0.03   0.12    -0.00   0.02   0.03    -0.21  -0.13  -0.05
  33   1     0.07   0.09   0.04    -0.05  -0.06  -0.04     0.16   0.04   0.10
  34   1    -0.13   0.00  -0.01     0.10   0.06  -0.01    -0.06  -0.19   0.05
  35   1     0.02  -0.14   0.01    -0.04   0.07   0.00     0.06  -0.09  -0.02
  36   1    -0.05  -0.02  -0.03     0.01  -0.06   0.03     0.04   0.16  -0.05
  37   1     0.17   0.06   0.05    -0.03  -0.03  -0.02     0.03   0.07   0.04
  38   1     0.09   0.01   0.04     0.03   0.04  -0.01    -0.11  -0.12   0.02
  39   1     0.12  -0.02   0.01     0.03  -0.04   0.02    -0.12   0.11  -0.08
  40   1    -0.08   0.18  -0.07    -0.01   0.01   0.02     0.06  -0.10  -0.02
  41   1     0.15  -0.07   0.06    -0.02   0.03   0.00     0.00  -0.07  -0.03
                     52                     53                     54
                        a                      a                      a 
 Frequencies --  1190.6040              1218.1419              1236.1930
 Red. masses --     4.7981                 4.6885                 3.4077
 Frc consts  --     0.0000                 0.0000                 0.0000
 IR Inten    --     8.1517                 0.2390                 8.8646
 Raman Activ --     0.0000                 0.0000                 0.0000
 Depolar     --     0.0000                 0.0000                 0.0000
 Atom AN      X      Y      Z        X      Y      Z        X      Y      Z
   1   7     0.04   0.01  -0.24    -0.00  -0.01   0.02     0.03  -0.00  -0.14
   2   6    -0.06  -0.03   0.36     0.00   0.02  -0.02    -0.00  -0.01   0.02
   3   6     0.07   0.04  -0.19    -0.02  -0.02  -0.01    -0.04   0.01   0.23
   4   6    -0.02  -0.08   0.05     0.00   0.04   0.01     0.07  -0.01  -0.22
   5   6     0.02   0.09   0.10    -0.02  -0.03   0.00    -0.01  -0.01   0.13
   6   6    -0.03  -0.11  -0.13     0.01   0.00  -0.03     0.02   0.09   0.02
   7   6    -0.02   0.07   0.11     0.02   0.09   0.06     0.10  -0.10  -0.08
   8   6    -0.03  -0.06  -0.05     0.05  -0.08  -0.11     0.01   0.14   0.03
   9   6     0.00  -0.03   0.02     0.03   0.10   0.10     0.03  -0.01  -0.03
  10   6     0.01   0.06   0.01    -0.03  -0.04   0.01    -0.04  -0.04   0.01
  11   6    -0.01  -0.07  -0.02     0.08   0.02  -0.20     0.01   0.05  -0.03
  12   6     0.02   0.04   0.04    -0.13   0.02   0.35    -0.04  -0.02   0.01
  13   6    -0.01  -0.02  -0.03     0.09  -0.03  -0.28     0.02   0.01  -0.02
  14   1     0.19   0.07   0.08    -0.02  -0.00  -0.01     0.09   0.04   0.03
  15   1    -0.03  -0.01   0.07     0.01   0.00  -0.01    -0.01  -0.00   0.04
  16   1    -0.19  -0.08   0.02     0.01   0.01  -0.00    -0.10  -0.04   0.00
  17   1    -0.28  -0.14  -0.12     0.04   0.01   0.01    -0.40   0.12  -0.09
  18   1     0.30   0.12  -0.02    -0.03  -0.00   0.00     0.40  -0.12   0.07
  19   1    -0.16   0.19   0.01     0.04  -0.02   0.01    -0.05  -0.12  -0.05
  20   1     0.10  -0.15   0.07    -0.01  -0.00  -0.00     0.03   0.12  -0.04
  21   1    -0.21   0.03  -0.05     0.01   0.00  -0.00     0.03   0.13   0.05
  22   1     0.16  -0.04   0.02     0.03  -0.00   0.01    -0.08  -0.10   0.03
  23   1    -0.20   0.05  -0.07     0.04  -0.03   0.01     0.18  -0.14   0.02
  24   1     0.15   0.02   0.02     0.04  -0.02   0.01    -0.22   0.16  -0.08
  25   1    -0.03   0.05  -0.09     0.07   0.04  -0.04    -0.16  -0.11   0.10
  26   1     0.13   0.07   0.01    -0.11  -0.05   0.04    -0.01  -0.00  -0.03
  27   1     0.02  -0.03   0.07     0.05  -0.02   0.04    -0.14  -0.01  -0.03
  28   1     0.08   0.02  -0.07    -0.12  -0.06  -0.01    -0.06  -0.03   0.10
  29   1    -0.07  -0.00  -0.02    -0.08   0.01  -0.05    -0.00  -0.05   0.07
  30   1     0.12   0.06  -0.02    -0.04  -0.01   0.07    -0.16  -0.07  -0.02
  31   1    -0.08  -0.03   0.02    -0.06  -0.07   0.10     0.07   0.05  -0.05
  32   1     0.10   0.05  -0.02    -0.09  -0.05  -0.01    -0.17  -0.08   0.08
  33   1    -0.03   0.02  -0.01     0.26  -0.11   0.09     0.09  -0.06   0.03
  34   1    -0.04   0.03  -0.02    -0.24   0.07  -0.09     0.02  -0.01   0.00
  35   1     0.01  -0.00   0.01     0.19   0.08   0.09     0.01   0.02   0.00
  36   1    -0.03  -0.02  -0.00    -0.19  -0.06  -0.00     0.04  -0.01   0.02
  37   1     0.00  -0.01  -0.01     0.11  -0.26  -0.00     0.04  -0.03   0.01
  38   1     0.02   0.03  -0.01    -0.08   0.22  -0.13    -0.02   0.01  -0.01
  39   1     0.03  -0.03   0.02     0.10  -0.21   0.14    -0.01  -0.01   0.01
  40   1    -0.02   0.03   0.01    -0.03   0.00   0.12     0.01  -0.02   0.01
  41   1     0.00   0.02   0.01    -0.16   0.23  -0.01    -0.03   0.02  -0.01
                     55                     56                     57
                        a                      a                      a 
 Frequencies --  1248.1671              1260.1144              1262.3622
 Red. masses --     3.3782                 3.1500                 3.2072
 Frc consts  --     0.0000                 0.0000                 0.0000
 IR Inten    --     3.8443                 2.1508                 4.8787
 Raman Activ --     0.0000                 0.0000                 0.0000
 Depolar     --     0.0000                 0.0000                 0.0000
 Atom AN      X      Y      Z        X      Y      Z        X      Y      Z
   1   7    -0.00   0.05   0.05    -0.01  -0.03   0.04    -0.02  -0.08  -0.01
   2   6     0.02  -0.10   0.05    -0.04   0.06   0.08    -0.09   0.15   0.05
   3   6     0.13   0.03  -0.10    -0.05  -0.01  -0.12    -0.16  -0.00   0.01
   4   6     0.08  -0.08   0.05    -0.01   0.02  -0.11    -0.14   0.01  -0.11
   5   6     0.06   0.00   0.05    -0.05   0.02   0.12    -0.03   0.12  -0.05
   6   6    -0.06   0.11  -0.03     0.07  -0.02  -0.13     0.01  -0.11   0.03
   7   6     0.10  -0.21  -0.01     0.12   0.08   0.01    -0.08  -0.06  -0.01
   8   6    -0.09   0.19   0.01     0.14   0.09  -0.01    -0.10   0.10   0.04
   9   6     0.04  -0.07   0.03     0.06   0.02  -0.10    -0.01  -0.08   0.05
  10   6    -0.04  -0.05  -0.07    -0.05   0.00   0.15    -0.01  -0.01  -0.11
  11   6    -0.03   0.07   0.00     0.04   0.01  -0.10    -0.05   0.04   0.06
  12   6    -0.06  -0.03   0.03    -0.00  -0.02  -0.07    -0.04  -0.01   0.03
  13   6     0.04   0.02  -0.06    -0.01   0.02   0.08     0.03   0.01  -0.07
  14   1    -0.01  -0.02  -0.02    -0.03  -0.00  -0.00    -0.01   0.02   0.02
  15   1    -0.05  -0.02  -0.02     0.03   0.02   0.00     0.08   0.04   0.02
  16   1     0.05   0.01   0.01     0.02   0.01  -0.00    -0.02   0.01  -0.02
  17   1     0.12  -0.08   0.03     0.26  -0.13   0.04     0.18  -0.08   0.03
  18   1    -0.27   0.10  -0.06    -0.14   0.10  -0.04     0.13   0.01   0.02
  19   1    -0.24   0.17  -0.03    -0.12   0.10  -0.01     0.04  -0.04   0.01
  20   1    -0.06  -0.04   0.01     0.29  -0.17   0.08     0.45  -0.15   0.09
  21   1    -0.19   0.05  -0.04     0.02   0.05   0.02     0.40  -0.13   0.09
  22   1    -0.12   0.06  -0.04     0.13  -0.10   0.04     0.07  -0.09   0.03
  23   1    -0.24   0.09  -0.06     0.06  -0.10  -0.01     0.10   0.01   0.03
  24   1    -0.02   0.03  -0.01     0.05   0.06  -0.01     0.10  -0.04   0.03
  25   1    -0.18  -0.12   0.10    -0.11  -0.02  -0.02    -0.04   0.01  -0.02
  26   1     0.25   0.12  -0.17    -0.14  -0.05   0.09     0.11   0.04   0.02
  27   1    -0.03   0.06  -0.09    -0.29  -0.14   0.13    -0.01   0.01  -0.02
  28   1     0.02  -0.00   0.14    -0.13  -0.06   0.02     0.24   0.11  -0.07
  29   1     0.05  -0.05   0.07    -0.22  -0.11   0.10     0.14   0.02   0.01
  30   1    -0.04  -0.01  -0.12    -0.21  -0.09   0.06     0.08   0.04  -0.11
  31   1     0.20   0.12  -0.10    -0.13  -0.05   0.01     0.17   0.10  -0.08
  32   1    -0.23  -0.11   0.14    -0.14  -0.06   0.06    -0.06  -0.03   0.06
  33   1     0.15  -0.04   0.05     0.08  -0.12   0.01     0.03   0.04   0.02
  34   1     0.03  -0.06   0.02    -0.01   0.09  -0.04     0.07  -0.08   0.05
  35   1     0.09  -0.03   0.03    -0.12   0.10  -0.03     0.12  -0.08   0.03
  36   1     0.04   0.01   0.01     0.14  -0.09   0.07    -0.01   0.05  -0.02
  37   1     0.11  -0.07   0.04    -0.09   0.06  -0.03     0.13  -0.07   0.04
  38   1    -0.05   0.03  -0.03     0.10  -0.07   0.05    -0.08   0.04  -0.03
  39   1     0.00  -0.04   0.03    -0.03   0.06  -0.03     0.01  -0.04   0.03
  40   1     0.01  -0.03   0.03     0.01  -0.01  -0.03     0.00  -0.02   0.03
  41   1    -0.05   0.05  -0.01     0.03  -0.06  -0.00    -0.04   0.05  -0.01
                     58                     59                     60
                        a                      a                      a 
 Frequencies --  1269.4535              1277.3381              1279.5713
 Red. masses --     2.6039                 2.7429                 2.0591
 Frc consts  --     0.0000                 0.0000                 0.0000
 IR Inten    --     1.3190                 0.5644                 0.3005
 Raman Activ --     0.0000                 0.0000                 0.0000
 Depolar     --     0.0000                 0.0000                 0.0000
 Atom AN      X      Y      Z        X      Y      Z        X      Y      Z
   1   7     0.01   0.04  -0.01    -0.01  -0.02   0.03     0.01   0.01  -0.02
   2   6     0.02  -0.07   0.12    -0.03   0.04  -0.03     0.01  -0.01  -0.03
   3   6     0.06  -0.00   0.07    -0.02   0.01  -0.12     0.02   0.00   0.06
   4   6     0.10   0.01  -0.17    -0.03  -0.02  -0.00    -0.05  -0.00   0.12
   5   6     0.02  -0.08  -0.03    -0.02   0.03   0.14     0.04   0.01  -0.08
   6   6     0.02   0.07   0.06     0.01   0.02  -0.02    -0.01  -0.08  -0.08
   7   6    -0.04  -0.04  -0.04     0.08  -0.04  -0.06     0.04  -0.08   0.03
   8   6     0.03  -0.10   0.01     0.04   0.00   0.05     0.02   0.10  -0.01
   9   6    -0.06   0.11   0.03    -0.05   0.05  -0.06    -0.01   0.09   0.02
  10   6     0.06  -0.02  -0.01     0.08  -0.05  -0.04    -0.02  -0.02   0.09
  11   6     0.07  -0.05   0.07     0.04  -0.02   0.23     0.05  -0.00   0.03
  12   6     0.06   0.04   0.03     0.08   0.04   0.03     0.04  -0.00  -0.07
  13   6    -0.02  -0.04  -0.03    -0.00  -0.06  -0.12     0.00  -0.02  -0.04
  14   1     0.02   0.00   0.00    -0.02  -0.01  -0.00     0.01   0.00   0.00
  15   1    -0.04  -0.02   0.01     0.03   0.01  -0.01    -0.01  -0.00  -0.00
  16   1    -0.01  -0.01   0.02     0.02   0.01  -0.01    -0.01  -0.01   0.00
  17   1    -0.01  -0.07  -0.01     0.13  -0.03   0.03    -0.10   0.05  -0.02
  18   1    -0.14   0.10  -0.04    -0.02   0.00  -0.00     0.07  -0.04   0.02
  19   1    -0.49   0.15  -0.10     0.19  -0.01   0.05     0.06  -0.05   0.01
  20   1     0.26  -0.07   0.05    -0.06  -0.04   0.00    -0.10   0.07  -0.03
  21   1     0.15   0.06   0.06    -0.25   0.09  -0.05     0.13  -0.12   0.01
  22   1    -0.36   0.04  -0.04     0.33  -0.12   0.06    -0.13   0.11  -0.04
  23   1     0.07  -0.03   0.02     0.08  -0.10   0.00    -0.24   0.14  -0.05
  24   1    -0.17   0.03  -0.04    -0.08   0.11  -0.04     0.21  -0.13   0.07
  25   1     0.05  -0.00   0.03    -0.13  -0.07   0.05     0.05   0.06  -0.08
  26   1    -0.09  -0.05  -0.00     0.03   0.02  -0.00     0.03   0.01   0.01
  27   1     0.04   0.03  -0.04    -0.13  -0.03   0.00    -0.30  -0.11   0.07
  28   1     0.01   0.01   0.01    -0.04  -0.02   0.05     0.25   0.10  -0.04
  29   1     0.19   0.11  -0.11     0.06   0.02  -0.00     0.20   0.06  -0.03
[...]
  33   1    -0.00   0.00   0.00    -0.08  -0.09   0.15    -0.18  -0.18   0.34
  34   1     0.00  -0.01  -0.02     0.00  -0.02  -0.04     0.05  -0.38  -0.48
  35   1    -0.01  -0.01   0.02    -0.01  -0.01   0.02     0.17   0.19  -0.35
  36   1     0.00  -0.02  -0.02    -0.00   0.03   0.03    -0.02   0.19   0.24
  37   1     0.04   0.04  -0.08    -0.05  -0.05   0.10    -0.03  -0.03   0.06
  38   1    -0.01   0.06   0.07     0.01  -0.06  -0.07     0.00  -0.07  -0.08
  39   1     0.00  -0.00  -0.00    -0.00   0.00   0.00     0.00  -0.00  -0.00
  40   1    -0.01  -0.00  -0.00     0.01   0.00   0.00    -0.00  -0.00  -0.00
  41   1    -0.00  -0.00   0.01     0.00   0.01  -0.01    -0.01  -0.01   0.01
                    103                    104                    105
                        a                      a                      a 
 Frequencies --  2957.7158              2958.3455              2961.5537
 Red. masses --     1.4731                 1.5080                 1.5622
 Frc consts  --     0.0000                 0.0000                 0.0000
 IR Inten    --     8.1332                19.9884                 2.2473
 Raman Activ --     0.0000                 0.0000                 0.0000
 Depolar     --     0.0000                 0.0000                 0.0000
 Atom AN      X      Y      Z        X      Y      Z        X      Y      Z
   1   7    -0.00  -0.00  -0.00     0.00   0.00   0.00     0.00  -0.00  -0.00
   2   6    -0.00  -0.00   0.01     0.00   0.00  -0.01    -0.01  -0.00   0.03
   3   6     0.00  -0.00  -0.00    -0.01  -0.01   0.01     0.01   0.01  -0.01
   4   6     0.02   0.03  -0.01    -0.03  -0.05   0.03     0.01   0.01  -0.04
   5   6    -0.01  -0.04  -0.03     0.04   0.15   0.04    -0.02  -0.08  -0.06
   6   6    -0.04  -0.01  -0.11    -0.04   0.04  -0.08    -0.03  -0.01  -0.09
   7   6     0.05  -0.03   0.10    -0.01   0.01  -0.02    -0.02   0.01  -0.07
   8   6    -0.02   0.02  -0.04     0.01  -0.00   0.03     0.05  -0.04   0.10
   9   6     0.02   0.00   0.07     0.01   0.01   0.04     0.01   0.01   0.04
  10   6    -0.01  -0.04   0.00    -0.00   0.01   0.02     0.01   0.05   0.02
  11   6     0.00   0.01  -0.00    -0.00  -0.00   0.01     0.00   0.02   0.02
  12   6    -0.01  -0.02   0.00    -0.00   0.00   0.00     0.01   0.02   0.00
  13   6     0.00   0.00   0.00     0.00  -0.00  -0.00    -0.00  -0.00  -0.00
  14   1    -0.00  -0.00   0.00     0.00   0.00  -0.00    -0.00  -0.00   0.00
  15   1    -0.00  -0.00  -0.00    -0.00   0.00  -0.00    -0.00  -0.00  -0.00
  16   1     0.00   0.00   0.00     0.00  -0.00  -0.00     0.00   0.00   0.00
  17   1     0.01   0.01  -0.01    -0.01  -0.02   0.03     0.03   0.05  -0.07
  18   1    -0.00  -0.00  -0.00     0.00   0.01   0.01    -0.00  -0.04  -0.06
  19   1     0.00   0.00  -0.01     0.02   0.03  -0.05    -0.02  -0.03   0.05
  20   1     0.00   0.01   0.01    -0.00   0.01   0.01     0.00  -0.01  -0.02
  21   1    -0.05  -0.07   0.12     0.09   0.13  -0.20    -0.05  -0.08   0.11
  22   1    -0.00  -0.05  -0.08     0.00   0.07   0.12     0.00   0.03   0.04
  23   1     0.03   0.03  -0.06    -0.18  -0.23   0.35     0.05   0.07  -0.11
  24   1    -0.00   0.11   0.17     0.01  -0.33  -0.52    -0.00   0.21   0.32
  25   1    -0.01   0.28   0.34    -0.00   0.18   0.21    -0.00   0.23   0.28
  26   1     0.14  -0.26   0.07     0.17  -0.31   0.09     0.10  -0.19   0.04
  27   1     0.01  -0.25  -0.30    -0.00   0.04   0.04    -0.01   0.18   0.22
  28   1    -0.19   0.36  -0.10     0.04  -0.08   0.02     0.11  -0.21   0.06
  29   1    -0.00   0.10   0.11     0.00  -0.06  -0.07     0.01  -0.23  -0.26
  30   1     0.10  -0.18   0.06    -0.04   0.08  -0.02    -0.20   0.38  -0.12
  31   1     0.02  -0.20  -0.21     0.01  -0.12  -0.13     0.01  -0.10  -0.11
  32   1    -0.11   0.19  -0.07    -0.05   0.09  -0.03    -0.05   0.08  -0.03
  33   1     0.06   0.06  -0.11     0.01   0.01  -0.01    -0.04  -0.04   0.07
  34   1    -0.01   0.08   0.10     0.00  -0.04  -0.04     0.01  -0.13  -0.15
  35   1    -0.02  -0.02   0.04     0.02   0.02  -0.03    -0.00   0.00   0.01
  36   1     0.00  -0.03  -0.03     0.00  -0.01  -0.01     0.01  -0.07  -0.08
  37   1     0.03   0.03  -0.05     0.00   0.00  -0.01    -0.02  -0.02   0.05
  38   1    -0.00   0.04   0.05     0.00  -0.01  -0.01     0.00  -0.05  -0.06
  39   1     0.00  -0.00  -0.00    -0.00   0.00   0.00    -0.00   0.01   0.01
  40   1    -0.01  -0.00  -0.00    -0.00  -0.00  -0.00     0.01   0.00   0.00
  41   1    -0.00  -0.00   0.00    -0.00  -0.00   0.00     0.00   0.00  -0.00
                    106                    107                    108
                        a                      a                      a 
 Frequencies --  2967.7154              2968.6269              2969.2039
 Red. masses --     1.5710                 1.7413                 1.7376
 Frc consts  --     0.0000                 0.0000                 0.0000
 IR Inten    --   120.9946                22.9008                 1.0323
 Raman Activ --     0.0000                 0.0000                 0.0000
 Depolar     --     0.0000                 0.0000                 0.0000
 Atom AN      X      Y      Z        X      Y      Z        X      Y      Z
   1   7     0.00   0.00   0.00    -0.00   0.00  -0.00    -0.00   0.00   0.00
   2   6     0.01  -0.00  -0.05    -0.03   0.01   0.19     0.04  -0.00  -0.18
   3   6     0.00  -0.00  -0.01    -0.04  -0.09   0.06    -0.01  -0.08  -0.08
   4   6    -0.00  -0.01   0.01     0.03   0.10   0.01     0.04   0.10  -0.04
   5   6     0.00   0.01   0.02     0.01   0.04   0.02     0.01   0.03  -0.00
   6   6     0.01   0.00   0.04     0.00   0.02   0.02     0.00   0.01   0.01
   7   6     0.01   0.00   0.05    -0.01   0.02   0.00    -0.00   0.01   0.00
   8   6    -0.01   0.03   0.01    -0.00   0.01   0.01     0.02  -0.01   0.04
   9   6    -0.00   0.03   0.03    -0.00   0.01   0.01     0.00  -0.00   0.01
  10   6     0.02   0.09   0.01     0.00   0.01   0.00    -0.00  -0.01   0.01
  11   6     0.05   0.16  -0.02     0.01   0.02  -0.00    -0.01  -0.02   0.01
  12   6     0.02   0.06  -0.00     0.00   0.01  -0.00    -0.00  -0.01   0.00
  13   6    -0.02  -0.02  -0.00    -0.00  -0.00  -0.00     0.00   0.00  -0.00
  14   1     0.00   0.00  -0.00    -0.00  -0.00   0.01     0.00   0.00  -0.01
  15   1     0.00  -0.00   0.00     0.00  -0.00  -0.00     0.00  -0.00   0.00
  16   1    -0.00  -0.00  -0.00     0.00   0.01   0.01     0.00  -0.00  -0.00
  17   1    -0.04  -0.07   0.09     0.14   0.23  -0.30    -0.16  -0.25   0.34
  18   1     0.01   0.07   0.10    -0.03  -0.29  -0.39     0.03   0.24   0.32
  19   1    -0.01  -0.01   0.02     0.16   0.24  -0.35     0.04   0.06  -0.11
  20   1     0.00   0.01   0.02    -0.00   0.09   0.15     0.01   0.26   0.37
  21   1     0.02   0.02  -0.03    -0.12  -0.16   0.26    -0.16  -0.23   0.35
  22   1     0.00   0.00   0.01    -0.01  -0.19  -0.29    -0.01  -0.14  -0.22
  23   1     0.00   0.00  -0.00    -0.04  -0.04   0.07    -0.04  -0.05   0.07
  24   1    -0.00  -0.04  -0.05     0.00  -0.09  -0.14     0.00  -0.04  -0.07
  25   1     0.00  -0.09  -0.11    -0.00  -0.06  -0.08     0.00  -0.04  -0.05
  26   1    -0.04   0.07  -0.02     0.00   0.00   0.00    -0.00   0.01  -0.00
  27   1     0.00  -0.11  -0.14    -0.00  -0.02  -0.02    -0.00  -0.01  -0.02
  28   1    -0.05   0.10  -0.02     0.02  -0.04   0.01     0.02  -0.03   0.01
  29   1    -0.00  -0.05  -0.06    -0.00  -0.03  -0.03     0.00  -0.08  -0.09
  30   1     0.03  -0.06   0.03     0.00  -0.00   0.00    -0.07   0.13  -0.04
  31   1     0.01  -0.11  -0.12     0.00  -0.02  -0.02     0.00  -0.03  -0.03
  32   1     0.00   0.00   0.00     0.00  -0.00   0.00    -0.02   0.04  -0.01
  33   1    -0.11  -0.11   0.20    -0.01  -0.01   0.03     0.02   0.02  -0.03
  34   1     0.03  -0.20  -0.26     0.00  -0.03  -0.04    -0.00   0.00   0.01
  35   1    -0.21  -0.24   0.45    -0.03  -0.03   0.06     0.04   0.05  -0.09
  36   1     0.03  -0.31  -0.39     0.00  -0.04  -0.05    -0.00   0.04   0.05
  37   1    -0.07  -0.07   0.15    -0.01  -0.01   0.02     0.01   0.01  -0.02
  38   1     0.01  -0.11  -0.14     0.00  -0.02  -0.02    -0.00   0.01   0.01
  39   1    -0.01   0.04   0.05    -0.00   0.01   0.01     0.00  -0.00  -0.01
  40   1     0.07   0.02   0.02     0.01   0.00   0.00    -0.01  -0.00  -0.00
  41   1     0.02   0.03  -0.05     0.00   0.00  -0.01    -0.00  -0.01   0.01
                    109                    110                    111
                        a                      a                      a 
 Frequencies --  2973.5686              2977.7511              2993.4198
 Red. masses --     1.5619                 1.5238                 1.5368
 Frc consts  --     0.0000                 0.0000                 0.0000
 IR Inten    --   180.9491                63.7472                27.7829
 Raman Activ --     0.0000                 0.0000                 0.0000
 Depolar     --     0.0000                 0.0000                 0.0000
 Atom AN      X      Y      Z        X      Y      Z        X      Y      Z
   1   7    -0.00   0.00  -0.00     0.00   0.00   0.00    -0.00   0.00  -0.00
   2   6     0.01   0.01  -0.03     0.03   0.08   0.00    -0.07  -0.19  -0.01
   3   6    -0.01  -0.03  -0.02    -0.05  -0.13  -0.00    -0.02  -0.08  -0.00
   4   6     0.01   0.01  -0.03    -0.05  -0.11   0.01    -0.02  -0.04   0.00
   5   6     0.00  -0.01  -0.03    -0.02  -0.05  -0.01    -0.00  -0.02  -0.00
   6   6    -0.03   0.01  -0.08     0.01  -0.02  -0.00     0.00  -0.01  -0.00
   7   6    -0.04   0.03  -0.10     0.01  -0.02   0.01     0.00  -0.00   0.00
   8   6    -0.06   0.05  -0.12     0.01  -0.01   0.01     0.00  -0.00   0.00
   9   6    -0.02   0.01  -0.06     0.00  -0.00   0.00     0.00  -0.00  -0.00
  10   6     0.01   0.01  -0.02    -0.00  -0.00   0.00     0.00  -0.00  -0.00
  11   6     0.02   0.04  -0.02    -0.00  -0.01   0.00    -0.00  -0.00   0.00
  12   6     0.01   0.01  -0.01    -0.00  -0.00   0.00     0.00   0.00  -0.00
  13   6    -0.01  -0.01   0.00     0.00   0.00  -0.00     0.00   0.00  -0.00
  14   1     0.00   0.00  -0.00     0.01   0.00  -0.01    -0.01  -0.01   0.01
  15   1     0.00  -0.00   0.00     0.00  -0.00   0.00    -0.00  -0.00   0.00
  16   1     0.00  -0.00   0.00     0.00   0.00   0.01    -0.00  -0.01  -0.01
  17   1    -0.03  -0.05   0.07    -0.10  -0.14   0.22     0.22   0.32  -0.50
  18   1     0.00   0.02   0.03    -0.01  -0.15  -0.23     0.03   0.34   0.52
  19   1     0.02   0.03  -0.06     0.16   0.24  -0.37     0.08   0.12  -0.19
  20   1     0.00   0.10   0.14     0.01   0.25   0.39     0.00   0.13   0.20
  21   1    -0.04  -0.06   0.09     0.15   0.21  -0.33     0.05   0.07  -0.11
  22   1     0.00   0.02   0.01     0.01   0.18   0.28     0.00   0.07   0.11
  23   1    -0.01  -0.02   0.02     0.06   0.08  -0.13     0.02   0.02  -0.04
  24   1     0.00   0.06   0.09    -0.00   0.10   0.15    -0.00   0.03   0.04
  25   1    -0.00   0.18   0.21     0.00   0.01   0.02     0.00   0.01   0.01
  26   1     0.11  -0.20   0.05    -0.02   0.04  -0.01    -0.01   0.01  -0.00
  27   1    -0.01   0.22   0.26     0.00  -0.02  -0.02     0.00  -0.00   0.00
  28   1     0.17  -0.31   0.08    -0.05   0.09  -0.03    -0.01   0.02  -0.01
  29   1    -0.01   0.25   0.28     0.00  -0.01  -0.02     0.00   0.00   0.00
  30   1     0.22  -0.42   0.13    -0.03   0.05  -0.02    -0.00   0.01  -0.00
  31   1    -0.02   0.13   0.13     0.00  -0.01  -0.01    -0.00   0.00   0.00
  32   1     0.09  -0.15   0.05    -0.01   0.02  -0.01    -0.00   0.00  -0.00
  33   1    -0.04  -0.04   0.06     0.00   0.00  -0.01    -0.00  -0.00   0.00
  34   1     0.00   0.01   0.00    -0.00   0.00   0.01    -0.00   0.00   0.00
  35   1    -0.07  -0.09   0.15     0.01   0.01  -0.02     0.00   0.00  -0.00
  36   1     0.01  -0.05  -0.07    -0.00   0.01   0.01    -0.00   0.00   0.00
  37   1    -0.02  -0.02   0.04     0.00   0.00  -0.00    -0.00  -0.00   0.00
  38   1     0.00  -0.01  -0.01    -0.00   0.00   0.00    -0.00   0.00   0.00
  39   1    -0.00   0.00   0.00     0.00  -0.00  -0.00     0.00  -0.00  -0.00
  40   1     0.02   0.01   0.01    -0.00  -0.00  -0.00    -0.00  -0.00  -0.00
  41   1     0.01   0.01  -0.03    -0.00  -0.00   0.00    -0.00  -0.00   0.00
                    112                    113                    114
                        a                      a                      a 
 Frequencies --  3001.2469              3003.3498              3018.4643
 Red. masses --     1.9089                 1.9382                 1.2884
 Frc consts  --     0.0000                 0.0000                 0.0000
 IR Inten    --    56.9973                57.0648                35.2719
 Raman Activ --     0.0000                 0.0000                 0.0000
 Depolar     --     0.0000                 0.0000                 0.0000
 Atom AN      X      Y      Z        X      Y      Z        X      Y      Z
   1   7     0.00  -0.00   0.00     0.00  -0.00  -0.00    -0.00  -0.00  -0.00
   2   6     0.00   0.00   0.00    -0.00  -0.00   0.00    -0.00  -0.00   0.00
   3   6     0.00   0.00  -0.00    -0.00   0.00   0.00     0.00   0.00  -0.00
   4   6     0.00   0.00   0.00    -0.00  -0.00   0.00     0.00   0.00   0.00
   5   6    -0.00   0.00  -0.00    -0.00  -0.00  -0.00     0.00   0.00  -0.00
   6   6    -0.00   0.00  -0.00     0.00  -0.00   0.00    -0.00   0.00  -0.00
   7   6    -0.00   0.00  -0.00     0.00   0.00   0.00    -0.00   0.00   0.00
   8   6    -0.00   0.00  -0.00     0.00  -0.00   0.00    -0.00   0.00  -0.00
   9   6    -0.00   0.00  -0.00    -0.00   0.00   0.00     0.00   0.00   0.00
  10   6     0.00   0.01  -0.00    -0.00   0.00   0.00     0.00   0.00   0.00
  11   6     0.01   0.02  -0.00    -0.00   0.00   0.01     0.00   0.01  -0.00
  12   6     0.01   0.03  -0.00    -0.01   0.01   0.03     0.00   0.02  -0.00
  13   6     0.24   0.15   0.01    -0.05   0.06   0.28    -0.05   0.15  -0.03
  14   1     0.00   0.00  -0.00    -0.00  -0.00   0.00    -0.00  -0.00   0.00
  15   1    -0.00   0.00  -0.00    -0.00   0.00  -0.00     0.00   0.00   0.00
  16   1    -0.00   0.00   0.00    -0.00   0.00   0.00    -0.00   0.00  -0.00
  17   1    -0.00  -0.00   0.00     0.00   0.00  -0.00     0.00   0.00  -0.00
  18   1    -0.00  -0.00  -0.00    -0.00  -0.00  -0.00    -0.00   0.00  -0.00
  19   1    -0.00  -0.00   0.00     0.00  -0.00   0.00    -0.00  -0.00   0.00
  20   1     0.00  -0.00  -0.00    -0.00  -0.00  -0.00     0.00  -0.00  -0.00
  21   1    -0.00  -0.00   0.00     0.00   0.00  -0.00    -0.00  -0.00   0.00
  22   1    -0.00  -0.00  -0.00    -0.00  -0.00  -0.00    -0.00  -0.00  -0.00
  23   1     0.00  -0.00   0.00     0.00   0.00  -0.00    -0.00  -0.00   0.00
  24   1     0.00   0.00   0.00    -0.00   0.00   0.00     0.00  -0.00  -0.00
  25   1    -0.00   0.00   0.00     0.00  -0.00  -0.00     0.00   0.00   0.00
  26   1     0.00  -0.00   0.00    -0.00   0.00  -0.00     0.00  -0.00   0.00
  27   1    -0.00   0.00   0.00     0.00  -0.00  -0.00    -0.00  -0.00  -0.00
  28   1     0.00  -0.01   0.00    -0.00   0.00  -0.00     0.00   0.00   0.00
  29   1    -0.00   0.00   0.00     0.00  -0.00  -0.01     0.00   0.00   0.00
  30   1     0.01  -0.01   0.00    -0.00   0.01  -0.00     0.00  -0.00   0.00
  31   1    -0.00  -0.00  -0.00     0.00  -0.01  -0.01     0.00  -0.00  -0.00
  32   1     0.01  -0.01   0.00    -0.00   0.00  -0.00    -0.00   0.00  -0.00
  33   1    -0.01  -0.01   0.02     0.00   0.00  -0.00    -0.00  -0.00   0.00
  34   1     0.00  -0.01  -0.01     0.00  -0.01  -0.01     0.00  -0.00  -0.00
  35   1    -0.03  -0.03   0.05     0.01   0.01  -0.01    -0.01  -0.01   0.03
  36   1     0.00  -0.03  -0.04    -0.00  -0.02  -0.02     0.00  -0.02  -0.02
  37   1    -0.03  -0.03   0.07     0.02   0.02  -0.04    -0.01  -0.01   0.03
  38   1     0.00  -0.04  -0.05     0.00  -0.05  -0.05     0.00  -0.02  -0.03
  39   1     0.05  -0.10  -0.14     0.04  -0.47  -0.49     0.04  -0.43  -0.49
  40   1    -0.79  -0.28  -0.19    -0.13  -0.04   0.01     0.37   0.15   0.09
  41   1    -0.11  -0.14   0.31     0.25   0.31  -0.51    -0.24  -0.26   0.50
                    115                    116                    117
                        a                      a                      a 
 Frequencies --  3267.0552              3269.3362              3284.5024
 Red. masses --     2.0289                 2.0472                 1.2838
 Frc consts  --     0.0000                 0.0000                 0.0000
 IR Inten    --    80.5770                80.0200                27.7093
 Raman Activ --     0.0000                 0.0000                 0.0000
 Depolar     --     0.0000                 0.0000                 0.0000
 Atom AN      X      Y      Z        X      Y      Z        X      Y      Z
   1   7     0.09  -0.26   0.01     0.04   0.01  -0.28     0.12   0.08   0.01
   2   6    -0.00  -0.01  -0.00     0.00  -0.00  -0.01     0.01   0.01   0.00
   3   6    -0.00   0.00   0.00    -0.00  -0.00   0.00    -0.00  -0.00  -0.00
   4   6     0.00  -0.00   0.00    -0.00  -0.00   0.00    -0.00   0.00  -0.00
   5   6     0.00   0.00  -0.00    -0.00   0.00   0.00    -0.00  -0.00   0.00
   6   6     0.00  -0.00   0.00     0.00  -0.00   0.00     0.00  -0.00   0.00
   7   6    -0.00   0.00   0.00    -0.00   0.00   0.00     0.00  -0.00  -0.00
   8   6     0.00  -0.00   0.00     0.00  -0.00  -0.00     0.00  -0.00   0.00
   9   6    -0.00   0.00   0.00    -0.00   0.00   0.00     0.00  -0.00  -0.00
  10   6     0.00   0.00   0.00     0.00   0.00   0.00     0.00   0.00  -0.00
  11   6    -0.00   0.00  -0.00     0.00  -0.00  -0.00     0.00  -0.00  -0.00
  12   6     0.00   0.00   0.00    -0.00   0.00   0.00    -0.00   0.00  -0.00
  13   6    -0.00  -0.00  -0.00     0.00  -0.00  -0.00     0.00   0.00   0.00
  14   1     0.10   0.11  -0.20    -0.25  -0.36   0.52    -0.22  -0.33   0.51
  15   1    -0.48   0.71  -0.11     0.04  -0.05  -0.02    -0.23   0.37  -0.05
  16   1     0.03   0.17   0.28     0.04   0.39   0.55    -0.03  -0.34  -0.51
  17   1     0.00   0.00  -0.01    -0.00  -0.01   0.01    -0.01  -0.01   0.01
  18   1    -0.00   0.01   0.01    -0.00   0.01   0.01    -0.00  -0.01  -0.01
  19   1     0.00   0.00  -0.00     0.00   0.00  -0.00     0.00   0.00  -0.00
  20   1    -0.00   0.00   0.00    -0.00  -0.00  -0.00     0.00   0.00   0.00
  21   1     0.00  -0.00   0.00     0.00   0.00  -0.00    -0.00  -0.00   0.00
  22   1     0.00  -0.00  -0.00     0.00  -0.00  -0.00    -0.00  -0.00  -0.00
  23   1     0.00   0.00  -0.00     0.00   0.00  -0.00     0.00   0.00  -0.00
  24   1    -0.00   0.00   0.00     0.00  -0.00  -0.00    -0.00   0.00   0.00
  25   1     0.00  -0.00  -0.00    -0.00  -0.00  -0.00     0.00  -0.00  -0.00
  26   1    -0.00   0.00  -0.00    -0.00   0.00   0.00    -0.00   0.00  -0.00
  27   1    -0.00  -0.00  -0.00     0.00  -0.00  -0.00     0.00   0.00   0.00
  28   1     0.00  -0.00   0.00     0.00  -0.00  -0.00    -0.00   0.00  -0.00
  29   1     0.00   0.00   0.00    -0.00   0.00   0.00    -0.00  -0.00  -0.00
  30   1    -0.00   0.00  -0.00    -0.00   0.00  -0.00    -0.00   0.00  -0.00
  31   1    -0.00  -0.00  -0.00     0.00  -0.00  -0.00     0.00   0.00   0.00
  32   1     0.00  -0.00   0.00     0.00  -0.00   0.00    -0.00   0.00  -0.00
  33   1    -0.00   0.00  -0.00     0.00   0.00  -0.00    -0.00  -0.00   0.00
  34   1    -0.00  -0.00  -0.00     0.00  -0.00  -0.00     0.00  -0.00   0.00
  35   1     0.00  -0.00   0.00    -0.00  -0.00   0.00    -0.00   0.00  -0.00
  36   1     0.00   0.00   0.00    -0.00   0.00   0.00    -0.00   0.00   0.00
  37   1    -0.00   0.00  -0.00     0.00   0.00  -0.00     0.00  -0.00   0.00
  38   1    -0.00  -0.00  -0.00     0.00  -0.00  -0.00     0.00   0.00   0.00
  39   1     0.00   0.00   0.00    -0.00   0.00   0.00    -0.00  -0.00  -0.00
  40   1     0.00   0.00   0.00    -0.00   0.00   0.00    -0.00  -0.00  -0.00
  41   1     0.00   0.00   0.00    -0.00  -0.00   0.00    -0.00  -0.00   0.00
