 Entering Gaussian System
 *********************************************
 Gaussian 98:
 frequency output generated by the xtb code
 *********************************************
                         Standard orientation:
 --------------------------------------------------------------------
  Center     Atomic     Atomic              Coordinates (Angstroms)
  Number     Number      Type              X           Y           Z
 --------------------------------------------------------------------
    1          7             0       -4.326114    1.934071   -1.171508
    2          6             0       -4.480610    1.754454    0.291043
    3          6             0       -3.465834    0.744610    0.801311
    4          8             0       -2.144833    1.136622    0.451136
    5          6             0       -1.157416    0.216627    0.761564
    6          6             0        0.169484    0.532710    0.366469
    7          6             0        0.462488    1.742207   -0.313425
    8          6             0        1.728688    2.050360   -0.696930
    9          6             0        1.222320   -0.367585    0.647966
   10          6             0        0.962216   -1.582503    1.324510
   11          6             0       -0.355524   -1.867375    1.706815
   12          6             0       -1.379400   -0.995980    1.434287
   13          6             0        2.042883   -2.467258    1.592837
   14          6             0        3.310863   -2.165845    1.212332
   15          6             0        3.607447   -0.950728    0.529209
   16          6             0        4.902508   -0.615146    0.126254
   17          6             0        5.151582    0.571872   -0.533939
   18          6             0        4.126505    1.454247   -0.811017
   19          6             0        2.812995    1.166245   -0.429542
   20          6             0        2.551281   -0.049523    0.247971
   21         17             0       -4.591836   -1.208591   -2.621022
   22          1             0       -3.367123    2.249295   -1.383172
   23          1             0       -4.989852    2.622144   -1.564847
   24          1             0       -4.459351    1.030481   -1.664256
   25          1             0       -5.503331    1.439960    0.532217
   26          1             0       -4.325963    2.715694    0.794760
   27          1             0       -3.654480   -0.235230    0.349493
   28          1             0       -3.517250    0.637792    1.890871
   29          1             0       -0.352039    2.416821   -0.518493
   30          1             0        1.929962    2.974958   -1.211942
   31          1             0       -0.556497   -2.790713    2.224837
   32          1             0       -2.375421   -1.249115    1.750691
   33          1             0        1.837150   -3.390626    2.108630
   34          1             0        4.117180   -2.848269    1.424181
   35          1             0        5.709495   -1.297059    0.337802
   36          1             0        6.158572    0.812446   -0.836543
   37          1             0        4.331058    2.377985   -1.326539
 --------------------------------------------------------------------
     1 basis functions        1 primitive gaussians
     1 alpha electrons        1 beta electrons

 Harmonic frequencies (cm**-1), IR intensities (km*mol⁻¹),
 Raman scattering activities (A**4/amu), Raman depolarization ratios,
 reduced masses (AMU), force constants (mDyne/A) and normal coordinates:
                      1                      2                      3
                        a                      a                      a 
 Frequencies --  -145.3479                29.1661                33.4978
 Red. masses --    20.2761                18.7213                19.1420
 Frc consts  --     0.0000                 0.0000                 0.0000
 IR Inten    --   139.8765                 5.6256                 1.5557
 Raman Activ --     0.0000                 0.0000                 0.0000
 Depolar     --     0.0000                 0.0000                 0.0000
 Atom AN      X      Y      Z        X      Y      Z        X      Y      Z
   1   7    -0.09  -0.57  -0.25     0.04   0.24   0.09     0.11  -0.09  -0.08
   2   6    -0.02  -0.12  -0.18    -0.06  -0.14   0.03    -0.04  -0.03  -0.08
   3   6     0.01   0.01   0.04    -0.07  -0.23  -0.15    -0.03   0.06   0.08
   4   8     0.00  -0.03  -0.03    -0.06  -0.12   0.04    -0.02   0.13   0.20
   5   6     0.00  -0.01  -0.00    -0.04  -0.08   0.02    -0.02   0.11   0.17
   6   6     0.00  -0.01  -0.00    -0.05  -0.07  -0.00    -0.03   0.09   0.14
   7   6    -0.00  -0.00   0.01    -0.10  -0.11  -0.10    -0.02   0.11   0.19
   8   6    -0.00   0.00   0.01    -0.12  -0.11  -0.17    -0.03   0.08   0.14
   9   6     0.00  -0.01  -0.00    -0.02  -0.02   0.04    -0.05   0.04   0.05
  10   6     0.00  -0.01  -0.01     0.02   0.01   0.11    -0.06   0.03   0.03
  11   6     0.01  -0.00   0.01     0.02  -0.03   0.09    -0.04   0.08   0.12
  12   6     0.01   0.00   0.02    -0.01  -0.08   0.03    -0.03   0.12   0.19
  13   6     0.00  -0.01  -0.01     0.05   0.08   0.18    -0.08  -0.04  -0.09
  14   6     0.00  -0.01  -0.01     0.04   0.09   0.16    -0.09  -0.08  -0.18
  15   6     0.00  -0.00  -0.01    -0.01   0.04   0.05    -0.09  -0.07  -0.15
  16   6     0.00  -0.00  -0.00    -0.02   0.04  -0.01    -0.10  -0.12  -0.24
  17   6     0.00   0.01   0.01    -0.08  -0.02  -0.14    -0.09  -0.10  -0.20
  18   6     0.00   0.01   0.01    -0.11  -0.07  -0.19    -0.07  -0.03  -0.06
  19   6     0.00   0.00   0.01    -0.09  -0.06  -0.12    -0.05   0.02   0.02
  20   6     0.00  -0.00  -0.00    -0.04  -0.01  -0.01    -0.06  -0.00  -0.02
  21  17     0.05   0.55   0.29     0.43   0.40   0.04     0.53  -0.18  -0.14
  22   1    -0.04  -0.13  -0.10     0.01   0.11   0.07     0.02   0.01   0.01
  23   1    -0.05  -0.20  -0.11    -0.00   0.06   0.05     0.02  -0.06  -0.05
  24   1     0.00  -0.22  -0.01     0.06   0.09  -0.03     0.09  -0.04  -0.01
  25   1    -0.00  -0.02  -0.02    -0.02  -0.07  -0.04    -0.01  -0.02  -0.05
  26   1    -0.00   0.00  -0.12    -0.04  -0.07   0.08    -0.05   0.00  -0.03
  27   1     0.01  -0.02   0.06     0.00  -0.04  -0.12     0.02   0.01   0.04
  28   1     0.00   0.06   0.02    -0.04  -0.14  -0.05    -0.04   0.04   0.02
  29   1    -0.00  -0.00   0.00    -0.03  -0.04  -0.04    -0.00   0.05   0.08
  30   1     0.00   0.00   0.01    -0.04  -0.05  -0.07    -0.01   0.03   0.05
  31   1     0.00  -0.00   0.00     0.01  -0.01   0.03    -0.01   0.02   0.04
  32   1     0.00   0.00   0.01    -0.00  -0.04  -0.00    -0.00   0.05   0.07
  33   1     0.00  -0.00  -0.01     0.03   0.03   0.07    -0.02  -0.01  -0.03
  34   1     0.00  -0.00  -0.01     0.02   0.04   0.06    -0.03  -0.04  -0.08
  35   1     0.00  -0.00  -0.00     0.00   0.03   0.01    -0.04  -0.05  -0.10
  36   1     0.00   0.00   0.00    -0.03  -0.01  -0.06    -0.03  -0.04  -0.08
  37   1     0.00   0.00   0.01    -0.04  -0.03  -0.08    -0.02  -0.00  -0.01
                      4                      5                      6
                        a                      a                      a 
 Frequencies --    48.8187                74.3658               101.6944
 Red. masses --    23.1279                15.0318                10.0329
 Frc consts  --     0.0000                 0.0000                 0.0000
 IR Inten    --     9.7691                15.9162                 7.9445
 Raman Activ --     0.0000                 0.0000                 0.0000
 Depolar     --     0.0000                 0.0000                 0.0000
 Atom AN      X      Y      Z        X      Y      Z        X      Y      Z
   1   7    -0.04  -0.07  -0.07    -0.13   0.16  -0.11    -0.41   0.03   0.09
   2   6    -0.01  -0.15  -0.07    -0.03  -0.05  -0.12    -0.22  -0.26   0.07
   3   6     0.02  -0.14  -0.09    -0.03  -0.16  -0.35     0.01  -0.15  -0.15
   4   8     0.03  -0.04   0.08    -0.01  -0.02  -0.14    -0.01   0.15   0.08
   5   6     0.06   0.01   0.13     0.00   0.01  -0.09     0.04   0.16   0.04
   6   6     0.06   0.03   0.14     0.04   0.08   0.08     0.04   0.08  -0.05
   7   6     0.04   0.04   0.14     0.09   0.16   0.23     0.10   0.01  -0.16
   8   6     0.03   0.03   0.09     0.10   0.15   0.26     0.12  -0.04  -0.14
   9   6     0.07   0.04   0.14     0.02   0.06   0.07     0.02   0.04  -0.05
  10   6     0.09   0.06   0.17    -0.00   0.03  -0.00    -0.01   0.06  -0.03
  11   6     0.10   0.06   0.20    -0.03  -0.03  -0.14     0.01   0.16   0.09
  12   6     0.08   0.02   0.16    -0.03  -0.06  -0.23     0.05   0.21   0.14
  13   6     0.10   0.06   0.15    -0.01   0.03   0.03    -0.07  -0.04  -0.12
  14   6     0.08   0.03   0.06    -0.01   0.00   0.03    -0.06  -0.11  -0.13
  15   6     0.05   0.00  -0.01     0.00  -0.01   0.00    -0.00  -0.07  -0.04
  16   6     0.02  -0.05  -0.14    -0.01  -0.11  -0.13     0.04  -0.07   0.09
  17   6    -0.00  -0.08  -0.20     0.00  -0.12  -0.16     0.12  -0.03   0.20
  18   6    -0.00  -0.04  -0.11     0.04  -0.03  -0.00     0.14  -0.02   0.11
  19   6     0.02   0.00   0.02     0.06   0.06   0.12     0.10  -0.03  -0.03
  20   6     0.05   0.02   0.06     0.03   0.05   0.09     0.04  -0.03  -0.05
  21  17    -0.49   0.15  -0.48    -0.02  -0.10   0.43     0.05   0.00  -0.00
  22   1    -0.01  -0.04  -0.02    -0.05   0.07  -0.04    -0.15   0.13   0.02
  23   1     0.00   0.01   0.01    -0.06   0.03  -0.00    -0.19  -0.05   0.06
  24   1    -0.05   0.00  -0.04    -0.02   0.04  -0.04    -0.01   0.01  -0.01
  25   1     0.00  -0.05  -0.02    -0.01  -0.02  -0.03    -0.04  -0.15   0.02
  26   1    -0.01  -0.05  -0.01     0.00  -0.04   0.00    -0.12  -0.09   0.06
  27   1     0.03  -0.03  -0.06     0.01  -0.01  -0.19     0.07  -0.03  -0.11
  28   1    -0.02  -0.07  -0.03    -0.04  -0.14  -0.11    -0.02  -0.12  -0.05
  29   1     0.01   0.01   0.05     0.03   0.06   0.09     0.03   0.00  -0.07
  30   1     0.00   0.01   0.03     0.04   0.06   0.10     0.04  -0.03  -0.06
  31   1     0.03   0.02   0.07    -0.02  -0.02  -0.06    -0.00   0.06   0.04
  32   1     0.02   0.00   0.05    -0.02  -0.04  -0.12     0.02   0.08   0.07
  33   1     0.03   0.02   0.05    -0.01   0.01   0.01    -0.04  -0.02  -0.05
  34   1     0.02   0.01   0.01    -0.01  -0.00   0.01    -0.03  -0.05  -0.06
  35   1     0.01  -0.02  -0.06    -0.01  -0.05  -0.07     0.00  -0.03   0.04
  36   1    -0.01  -0.04  -0.09    -0.01  -0.06  -0.09     0.04  -0.00   0.10
  37   1    -0.01  -0.02  -0.04     0.02  -0.01  -0.00     0.06  -0.00   0.05
                      7                      8                      9
                        a                      a                      a 
 Frequencies --   107.6597               132.1073               150.5852
 Red. masses --    12.8893                11.9656                 9.7725
 Frc consts  --     0.0000                 0.0000                 0.0000
 IR Inten    --    22.2352                 4.5958                23.0349
 Raman Activ --     0.0000                 0.0000                 0.0000
 Depolar     --     0.0000                 0.0000                 0.0000
 Atom AN      X      Y      Z        X      Y      Z        X      Y      Z
   1   7     0.34   0.17  -0.23    -0.08   0.06   0.07     0.48  -0.08   0.15
   2   6     0.10  -0.00  -0.25     0.02   0.08   0.08    -0.18  -0.36   0.03
   3   6    -0.04  -0.13  -0.24    -0.01   0.01   0.01    -0.02  -0.13   0.16
   4   8     0.03  -0.02   0.13    -0.06  -0.25  -0.47    -0.13  -0.02  -0.11
   5   6     0.01  -0.02   0.14    -0.03  -0.11  -0.16    -0.02   0.07  -0.12
   6   6    -0.02  -0.05   0.04    -0.03  -0.09  -0.12    -0.02   0.08  -0.11
   7   6    -0.07  -0.08  -0.05    -0.04  -0.08  -0.10     0.06   0.09  -0.07
   8   6    -0.09  -0.04  -0.05    -0.00   0.05   0.12     0.09   0.08   0.02
   9   6    -0.01  -0.04  -0.01    -0.00  -0.02  -0.00    -0.03   0.07  -0.07
  10   6     0.01  -0.04   0.00     0.03   0.07   0.17    -0.05   0.09  -0.05
  11   6     0.05   0.02   0.16     0.06   0.14   0.31    -0.04   0.09  -0.06
  12   6     0.04   0.03   0.23     0.01   0.02   0.08    -0.02   0.08  -0.09
  13   6     0.01  -0.10  -0.16     0.04   0.06   0.13    -0.08   0.08   0.04
  14   6    -0.00  -0.09  -0.22    -0.01  -0.07  -0.14    -0.07   0.03   0.05
  15   6    -0.01  -0.02  -0.09    -0.03  -0.09  -0.17    -0.04  -0.01   0.00
  16   6    -0.00   0.08   0.01    -0.04  -0.12  -0.26    -0.03  -0.09  -0.01
  17   6    -0.01   0.17   0.17    -0.01   0.03   0.02     0.04  -0.09   0.01
  18   6    -0.04   0.12   0.14     0.03   0.14   0.26     0.09  -0.02   0.04
  19   6    -0.05   0.02   0.01     0.01   0.07   0.14     0.07   0.04   0.01
  20   6    -0.03  -0.02  -0.04    -0.01  -0.02  -0.02    -0.00   0.03  -0.02
  21  17    -0.19  -0.00   0.26     0.10   0.05  -0.00    -0.12   0.03   0.06
  22   1     0.12  -0.02  -0.02    -0.02   0.01   0.00     0.19  -0.10   0.19
  23   1     0.15   0.11  -0.06    -0.03   0.01   0.03     0.23   0.06   0.01
  24   1     0.03   0.07  -0.08    -0.02   0.01   0.02     0.10   0.02  -0.03
  25   1     0.01   0.01  -0.13     0.00   0.05   0.05    -0.05  -0.21  -0.13
  26   1     0.03  -0.02  -0.03     0.04   0.02   0.01    -0.19  -0.11   0.08
  27   1     0.02  -0.01  -0.14    -0.07  -0.01   0.07     0.01  -0.07   0.10
  28   1    -0.08  -0.09  -0.08     0.08   0.07   0.01     0.04   0.02   0.05
  29   1    -0.03  -0.04  -0.02    -0.02  -0.04  -0.06     0.03   0.04  -0.02
  30   1    -0.03  -0.02  -0.03     0.00   0.03   0.06     0.04   0.03   0.02
  31   1     0.02   0.01   0.07     0.03   0.07   0.15    -0.01   0.03  -0.01
  32   1     0.02   0.03   0.10     0.01   0.01   0.04    -0.00   0.02  -0.02
  33   1     0.01  -0.04  -0.07     0.02   0.04   0.08    -0.04   0.03   0.02
  34   1    -0.00  -0.04  -0.10    -0.01  -0.04  -0.07    -0.03   0.01   0.03
  35   1     0.01   0.03  -0.00    -0.02  -0.06  -0.13    -0.02  -0.04  -0.00
  36   1     0.00   0.08   0.08    -0.00   0.01   0.01     0.01  -0.04   0.00
  37   1    -0.02   0.05   0.06     0.02   0.08   0.14     0.04  -0.00   0.02
                     10                     11                     12
                        a                      a                      a 
 Frequencies --   186.9125               198.5079               228.2556
 Red. masses --    11.1711                 9.8445                 7.2105
 Frc consts  --     0.0000                 0.0000                 0.0000
 IR Inten    --     3.0040                 2.2618                 7.2371
 Raman Activ --     0.0000                 0.0000                 0.0000
 Depolar     --     0.0000                 0.0000                 0.0000
 Atom AN      X      Y      Z        X      Y      Z        X      Y      Z
   1   7    -0.00  -0.03  -0.05    -0.04   0.04  -0.03     0.02  -0.24   0.14
   2   6     0.01   0.00  -0.04    -0.02  -0.01  -0.03     0.25   0.10   0.19
   3   6     0.01   0.03   0.01    -0.00   0.01  -0.02    -0.02  -0.26  -0.12
   4   8     0.06   0.22   0.44     0.01   0.03   0.05    -0.05  -0.04   0.07
   5   6     0.01   0.02   0.03    -0.01  -0.03  -0.04     0.01   0.05   0.01
   6   6    -0.02  -0.05  -0.10    -0.03  -0.10  -0.16     0.00   0.14   0.05
   7   6    -0.04  -0.11  -0.22     0.04   0.12   0.26     0.03   0.13   0.04
   8   6    -0.01  -0.03  -0.06     0.04   0.11   0.23     0.02   0.02  -0.11
   9   6    -0.01  -0.04  -0.08    -0.06  -0.20  -0.37    -0.03   0.09   0.00
  10   6     0.00  -0.00  -0.01    -0.02  -0.08  -0.14    -0.04   0.13   0.07
  11   6    -0.03  -0.09  -0.16     0.03   0.04   0.11    -0.03   0.07   0.02
  12   6    -0.02  -0.07  -0.13     0.02   0.04   0.10    -0.03  -0.00  -0.12
  13   6     0.05   0.14   0.28     0.04   0.08   0.16    -0.09   0.09   0.07
  14   6     0.03   0.08   0.15     0.04   0.08   0.16    -0.11  -0.02  -0.07
  15   6    -0.02  -0.07  -0.13    -0.02  -0.08  -0.15    -0.09  -0.05  -0.11
  16   6    -0.05  -0.16  -0.31     0.03   0.06   0.09    -0.05  -0.05   0.03
  17   6     0.00  -0.00  -0.00     0.02   0.06   0.09     0.02  -0.00   0.15
  18   6     0.06   0.17   0.32    -0.01  -0.02  -0.05     0.03  -0.03  -0.01
  19   6     0.02   0.05   0.10    -0.04  -0.10  -0.19    -0.01  -0.03  -0.14
  20   6    -0.01  -0.03  -0.05    -0.06  -0.21  -0.38    -0.05  -0.00  -0.11
  21  17    -0.03  -0.02  -0.01    -0.00   0.00   0.01     0.09  -0.00  -0.05
  22   1    -0.01   0.02  -0.02    -0.02   0.03  -0.01     0.08  -0.33  -0.03
  23   1    -0.02  -0.02  -0.02    -0.02   0.00  -0.00     0.17   0.10   0.06
  24   1     0.01  -0.01  -0.01     0.00   0.01  -0.01    -0.25  -0.04   0.07
  25   1     0.00  -0.00  -0.01    -0.00  -0.01  -0.01     0.04   0.19   0.15
  26   1    -0.00   0.00  -0.02    -0.02  -0.01  -0.00     0.27   0.02   0.01
  27   1     0.06   0.03  -0.06     0.01   0.00  -0.01    -0.01  -0.01  -0.17
  28   1    -0.07  -0.05  -0.01    -0.02   0.00  -0.01    -0.02  -0.21  -0.05
  29   1    -0.02  -0.06  -0.11     0.03   0.10   0.20     0.02   0.06   0.03
  30   1    -0.00  -0.02  -0.03     0.03   0.09   0.19     0.01  -0.00  -0.04
  31   1    -0.01  -0.04  -0.07     0.02   0.05   0.11    -0.00   0.01  -0.00
  32   1    -0.01  -0.03  -0.05     0.02   0.04   0.09    -0.02  -0.03  -0.09
  33   1     0.03   0.08   0.16     0.03   0.07   0.14    -0.03   0.04   0.04
  34   1     0.02   0.05   0.09     0.03   0.07   0.14    -0.04  -0.02  -0.03
  35   1    -0.03  -0.09  -0.17     0.02   0.06   0.10    -0.02  -0.01   0.03
  36   1     0.00   0.00   0.00     0.01   0.05   0.08     0.02   0.01   0.10
  37   1     0.03   0.10   0.18     0.00   0.01   0.02     0.03  -0.01   0.01
                     13                     14                     15
                        a                      a                      a 
 Frequencies --   246.8742               274.4652               299.7407
 Red. masses --     9.5129                11.2385                 8.9301
 Frc consts  --     0.0000                 0.0000                 0.0000
 IR Inten    --     0.7331                 1.0449                 3.2681
 Raman Activ --     0.0000                 0.0000                 0.0000
 Depolar     --     0.0000                 0.0000                 0.0000
 Atom AN      X      Y      Z        X      Y      Z        X      Y      Z
   1   7     0.03   0.06  -0.04    -0.09   0.07  -0.11     0.12  -0.04   0.01
   2   6    -0.12  -0.04  -0.07    -0.24   0.19  -0.09     0.12   0.05   0.02
   3   6     0.01   0.13   0.08    -0.45   0.02   0.13    -0.03  -0.07   0.03
   4   8     0.01   0.03  -0.05    -0.40  -0.17   0.20    -0.00   0.03   0.31
   5   6    -0.01   0.00   0.02    -0.14  -0.04   0.04    -0.03  -0.13  -0.18
   6   6     0.05   0.09   0.25    -0.09   0.01  -0.00    -0.06  -0.09  -0.26
   7   6     0.03   0.06   0.20     0.07  -0.02  -0.01    -0.02  -0.03  -0.16
   8   6    -0.04  -0.11  -0.16     0.11  -0.05   0.02     0.05   0.14   0.18
   9   6     0.04   0.05   0.17     0.02   0.07  -0.03    -0.02   0.03  -0.05
  10   6     0.07   0.10   0.26     0.09   0.05  -0.02     0.02   0.15   0.18
  11   6     0.01  -0.02  -0.00     0.10  -0.00   0.00     0.04   0.08   0.16
  12   6    -0.05  -0.16  -0.28     0.02  -0.08   0.03    -0.03  -0.12  -0.17
  13   6     0.07   0.08   0.18     0.10   0.05  -0.05    -0.03   0.07   0.05
  14   6     0.00  -0.11  -0.19     0.11   0.01  -0.05    -0.08  -0.10  -0.23
  15   6    -0.01  -0.12  -0.23     0.09   0.02  -0.03    -0.04   0.03   0.02
  16   6     0.02   0.01  -0.03     0.13  -0.04   0.01     0.01   0.06   0.20
  17   6     0.05   0.15   0.24     0.19  -0.07  -0.01     0.01  -0.07  -0.02
  18   6    -0.02  -0.01  -0.04     0.19  -0.06  -0.02     0.02  -0.09  -0.14
  19   6    -0.04  -0.13  -0.21     0.16  -0.01  -0.02     0.04   0.09   0.08
  20   6    -0.01  -0.08  -0.10     0.07   0.02  -0.01    -0.00   0.07   0.03
  21  17    -0.04  -0.01   0.01     0.04   0.01   0.02    -0.07  -0.02  -0.03
  22   1    -0.02   0.14   0.03     0.02  -0.11  -0.01    -0.05   0.24  -0.00
  23   1    -0.06  -0.06  -0.03     0.08   0.11  -0.04    -0.14  -0.21  -0.05
  24   1     0.13   0.00  -0.02    -0.13   0.03  -0.02     0.26  -0.07   0.04
  25   1    -0.02  -0.09  -0.07    -0.10   0.12  -0.04     0.02   0.06   0.01
  26   1    -0.13  -0.00  -0.00    -0.02   0.06  -0.04     0.08   0.01  -0.00
  27   1    -0.01   0.02   0.08    -0.16   0.00   0.06     0.00   0.01  -0.06
  28   1     0.02   0.09   0.03    -0.16   0.04   0.04    -0.06  -0.08  -0.00
  29   1     0.01   0.04   0.10     0.04   0.01  -0.02    -0.01  -0.01  -0.07
  30   1    -0.02  -0.05  -0.08     0.02  -0.01   0.01     0.02   0.07   0.12
  31   1    -0.01  -0.02  -0.04     0.05  -0.01   0.00     0.03   0.04   0.09
  32   1    -0.03  -0.11  -0.19     0.01  -0.04   0.01    -0.01  -0.04  -0.07
  33   1     0.03   0.04   0.09     0.03   0.01  -0.02    -0.02   0.01  -0.00
  34   1    -0.01  -0.05  -0.10     0.03  -0.00  -0.02    -0.04  -0.08  -0.16
  35   1     0.01   0.02   0.01     0.02  -0.02   0.01     0.00   0.03   0.11
  36   1     0.03   0.10   0.17     0.06  -0.03  -0.00     0.00  -0.04  -0.03
  37   1    -0.01   0.01   0.01     0.06  -0.02  -0.01     0.01  -0.06  -0.11
                     16                     17                     18
                        a                      a                      a 
 Frequencies --   306.3819               370.5883               394.7661
 Red. masses --     7.3701                10.1733                 9.8602
 Frc consts  --     0.0000                 0.0000                 0.0000
 IR Inten    --     1.6522                 8.2520                 1.5080
 Raman Activ --     0.0000                 0.0000                 0.0000
 Depolar     --     0.0000                 0.0000                 0.0000
 Atom AN      X      Y      Z        X      Y      Z        X      Y      Z
   1   7    -0.15   0.01  -0.02     0.16  -0.17   0.15    -0.01  -0.00  -0.01
   2   6    -0.17  -0.09  -0.04    -0.08   0.12   0.13    -0.03   0.01  -0.01
   3   6     0.09   0.16  -0.02    -0.15  -0.04  -0.14     0.01   0.04   0.02
   4   8     0.12   0.29   0.09    -0.18   0.20  -0.09     0.03   0.08   0.15
   5   6    -0.01  -0.00  -0.14    -0.10   0.17  -0.08    -0.02  -0.11  -0.22
   6   6     0.01  -0.14  -0.13    -0.00  -0.05   0.03     0.01   0.02  -0.02
   7   6    -0.02  -0.11  -0.06     0.06  -0.08   0.05     0.02   0.14   0.21
   8   6    -0.00   0.01   0.16     0.06  -0.19   0.06    -0.06  -0.08  -0.24
   9   6     0.02  -0.09   0.03    -0.00  -0.12   0.03    -0.02  -0.05  -0.12
  10   6     0.04  -0.01   0.18    -0.06  -0.09   0.04     0.06   0.00  -0.00
  11   6    -0.02   0.06   0.08    -0.15   0.14   0.01     0.13   0.18   0.35
  12   6    -0.03  -0.01  -0.16    -0.12   0.18  -0.08     0.02  -0.14  -0.26
  13   6     0.06  -0.03   0.07     0.05  -0.03  -0.04    -0.02  -0.16  -0.24
  14   6     0.03  -0.13  -0.15     0.12  -0.04   0.04     0.04   0.05   0.15
  15   6     0.06  -0.03   0.00     0.23  -0.05   0.02     0.01   0.12   0.27
  16   6     0.05   0.11   0.07     0.18   0.15  -0.12    -0.06  -0.08  -0.07
  17   6    -0.05   0.06  -0.07     0.05   0.20  -0.13    -0.06  -0.08  -0.05
  18   6    -0.10  -0.03  -0.10    -0.08   0.07   0.02     0.01   0.08   0.20
  19   6    -0.03  -0.02   0.11     0.01  -0.20   0.09    -0.05  -0.04  -0.11
  20   6     0.02  -0.05   0.07     0.07  -0.19   0.08    -0.01   0.02   0.01
  21  17     0.08   0.01   0.03    -0.03  -0.01  -0.03     0.00  -0.00  -0.00
  22   1     0.08  -0.34   0.01     0.02   0.04   0.09     0.00  -0.01   0.00
  23   1     0.20   0.27   0.06    -0.00  -0.15  -0.07     0.01   0.01  -0.00
  24   1    -0.36   0.09  -0.06     0.17  -0.10   0.10    -0.01   0.00  -0.00
  25   1    -0.03  -0.11  -0.03    -0.04   0.09   0.04    -0.00  -0.02  -0.01
  26   1    -0.14  -0.02   0.00     0.03   0.03   0.02    -0.03   0.01  -0.00
  27   1     0.08   0.04  -0.01    -0.04   0.04  -0.15     0.01   0.02  -0.01
  28   1     0.02   0.04  -0.01    -0.03  -0.13  -0.05    -0.02  -0.01   0.00
  29   1    -0.02  -0.05  -0.03     0.03  -0.01   0.01     0.01   0.07   0.13
  30   1     0.01   0.02   0.09     0.04  -0.06   0.01    -0.02  -0.04  -0.11
  31   1    -0.02   0.03   0.04    -0.09   0.06   0.02     0.06   0.12   0.23
  32   1    -0.01  -0.01  -0.06    -0.04   0.05  -0.03     0.00  -0.06  -0.10
  33   1     0.03  -0.02   0.01     0.03  -0.02  -0.02    -0.03  -0.10  -0.17
  34   1    -0.00  -0.07  -0.11     0.01  -0.03   0.03     0.02   0.01   0.02
  35   1     0.04   0.06   0.04     0.08   0.07  -0.06    -0.03  -0.06  -0.09
  36   1    -0.02   0.03  -0.04    -0.00   0.09  -0.06    -0.02  -0.05  -0.06
  37   1    -0.06  -0.02  -0.07    -0.09   0.04   0.02     0.03   0.05   0.12
                     19                     20                     21
                        a                      a                      a 
 Frequencies --   402.3891               442.7215               458.6620
 Red. masses --    11.4679                10.0787                11.2218
 Frc consts  --     0.0000                 0.0000                 0.0000
 IR Inten    --     1.3830                12.1758                 0.3947
 Raman Activ --     0.0000                 0.0000                 0.0000
 Depolar     --     0.0000                 0.0000                 0.0000
 Atom AN      X      Y      Z        X      Y      Z        X      Y      Z
   1   7    -0.02   0.01  -0.01    -0.09   0.15  -0.15     0.01  -0.01   0.01
   2   6     0.06  -0.07  -0.01     0.20  -0.13  -0.11    -0.08   0.05   0.01
   3   6     0.12   0.02   0.00    -0.00  -0.18   0.25    -0.10  -0.00  -0.00
   4   8     0.13  -0.03   0.03    -0.06  -0.22   0.17    -0.06  -0.02   0.03
   5   6    -0.07  -0.18   0.06     0.11  -0.01  -0.10     0.09   0.05  -0.06
   6   6    -0.05  -0.15   0.08     0.08   0.12  -0.13     0.14  -0.03  -0.03
   7   6     0.09  -0.17   0.11     0.13   0.18  -0.04     0.34  -0.03  -0.03
   8   6     0.07  -0.11   0.00     0.16  -0.06  -0.04     0.27   0.14  -0.12
   9   6    -0.01  -0.05   0.00    -0.01   0.03  -0.00    -0.06  -0.20   0.13
  10   6    -0.28   0.02   0.04    -0.13   0.06  -0.01    -0.01  -0.30   0.15
  11   6    -0.28  -0.05   0.14    -0.11  -0.01   0.01    -0.07  -0.16   0.08
  12   6    -0.33  -0.14   0.07     0.01   0.06  -0.04     0.12   0.06  -0.03
  13   6    -0.19   0.14  -0.08    -0.16   0.05   0.02     0.05  -0.28   0.14
  14   6    -0.19   0.24  -0.07    -0.08  -0.14   0.06    -0.07   0.03  -0.00
  15   6     0.07   0.18  -0.05     0.12  -0.13   0.08    -0.26   0.10  -0.00
  16   6     0.12   0.09  -0.08     0.03   0.13  -0.12    -0.30   0.15  -0.05
  17   6     0.27   0.06  -0.10    -0.08   0.23  -0.05    -0.02   0.11  -0.02
  18   6     0.25   0.07  -0.05    -0.15   0.09  -0.04     0.08   0.16  -0.11
  19   6     0.20   0.04  -0.08    -0.01  -0.18   0.06     0.12   0.07  -0.07
  20   6     0.03   0.08  -0.04     0.07  -0.14   0.15    -0.17   0.10   0.00
  21  17     0.00   0.00   0.00     0.01   0.00   0.02    -0.00   0.00  -0.00
  22   1    -0.00  -0.01  -0.02    -0.04   0.05  -0.11     0.01  -0.01   0.02
  23   1     0.00   0.03   0.03    -0.06   0.07   0.08     0.01  -0.01  -0.03
  24   1    -0.04   0.02  -0.02    -0.07   0.08  -0.09     0.02  -0.01   0.02
  25   1     0.03  -0.06  -0.00     0.04   0.02  -0.02    -0.03   0.03  -0.00
  26   1    -0.02  -0.02   0.01     0.11  -0.05  -0.03    -0.02   0.02  -0.00
  27   1     0.04  -0.00   0.01    -0.01  -0.09   0.18    -0.04   0.01  -0.02
  28   1     0.03   0.02   0.00    -0.03   0.09   0.09    -0.04  -0.02  -0.00
  29   1     0.04  -0.03   0.03     0.06   0.08  -0.00     0.09  -0.02   0.00
  30   1    -0.04  -0.02  -0.00     0.12  -0.04  -0.02     0.06   0.05  -0.03
  31   1    -0.04  -0.01   0.06    -0.03   0.01   0.02    -0.09  -0.03   0.03
  32   1    -0.10  -0.02   0.01    -0.00   0.07   0.01     0.02   0.06  -0.02
  33   1    -0.01   0.02  -0.04    -0.08   0.02   0.01     0.07  -0.09   0.04
  34   1    -0.08   0.04  -0.01    -0.07  -0.09   0.03     0.04   0.06  -0.04
  35   1     0.01  -0.00  -0.02     0.05   0.07  -0.09    -0.10   0.02  -0.01
  36   1     0.08  -0.00  -0.03    -0.03   0.09  -0.01     0.02  -0.03   0.03
  37   1     0.06   0.03  -0.00    -0.11   0.04  -0.02     0.01   0.05  -0.03
                     22                     23                     24
                        a                      a                      a 
 Frequencies --   461.3418               479.2641               493.1940
 Red. masses --     9.9638                 9.8893                10.9048
 Frc consts  --     0.0000                 0.0000                 0.0000
 IR Inten    --     0.5066                 0.0536                 0.9416
 Raman Activ --     0.0000                 0.0000                 0.0000
 Depolar     --     0.0000                 0.0000                 0.0000
 Atom AN      X      Y      Z        X      Y      Z        X      Y      Z
   1   7     0.01  -0.02   0.03     0.00   0.00  -0.00     0.01  -0.03   0.04
   2   6    -0.02   0.02   0.02    -0.00   0.00  -0.00    -0.11   0.07   0.02
   3   6     0.01   0.01  -0.05     0.00   0.01   0.00    -0.06   0.05  -0.06
   4   8     0.01   0.08   0.04     0.01   0.01   0.03     0.03  -0.04   0.01
   5   6    -0.07  -0.12  -0.23     0.00  -0.01  -0.01     0.01  -0.08   0.04
   6   6    -0.07  -0.18  -0.27    -0.02  -0.05  -0.10     0.06  -0.12   0.05
   7   6    -0.01   0.06   0.20    -0.04  -0.10  -0.21    -0.02  -0.14   0.08
   8   6    -0.07  -0.05  -0.08     0.05   0.13   0.26    -0.05  -0.05   0.03
   9   6     0.02   0.03   0.06     0.06   0.17   0.32     0.25   0.08  -0.09
  10   6     0.01  -0.04  -0.07     0.04   0.14   0.24     0.08   0.13  -0.10
  11   6    -0.01  -0.05  -0.14     0.00  -0.01  -0.01     0.12   0.13  -0.09
  12   6     0.02   0.09   0.17     0.00  -0.00   0.01    -0.04  -0.04   0.04
  13   6     0.05   0.06   0.09    -0.06  -0.14  -0.28    -0.25  -0.14   0.12
  14   6     0.01  -0.00  -0.07     0.04   0.13   0.28    -0.20  -0.28   0.18
  15   6     0.02   0.07   0.07     0.01   0.00   0.03    -0.01  -0.23   0.12
  16   6    -0.02  -0.17  -0.24    -0.03  -0.09  -0.18    -0.12   0.05  -0.01
  17   6     0.07   0.11   0.31     0.02   0.07   0.13    -0.14   0.11  -0.02
  18   6    -0.01  -0.12  -0.15    -0.01  -0.02  -0.06     0.10   0.33  -0.20
  19   6    -0.03  -0.04  -0.13    -0.05  -0.16  -0.31     0.15   0.16  -0.10
  20   6     0.07   0.23   0.38    -0.02  -0.09  -0.16     0.26   0.07  -0.07
  21  17    -0.00  -0.00  -0.00    -0.00  -0.00   0.00    -0.00  -0.00  -0.01
  22   1     0.01  -0.01   0.01     0.00   0.00  -0.00     0.01  -0.02   0.04
  23   1     0.01  -0.01  -0.01     0.00   0.00  -0.00     0.02  -0.02  -0.04
  24   1     0.01  -0.01   0.02    -0.00  -0.00   0.00     0.02  -0.02   0.03
  25   1    -0.00   0.00   0.01     0.00  -0.01  -0.00    -0.03  -0.00  -0.00
  26   1    -0.00   0.00   0.01    -0.01   0.00   0.00    -0.06   0.02   0.00
  27   1     0.02   0.01  -0.04     0.00   0.00  -0.01    -0.03   0.03  -0.05
  28   1    -0.01  -0.02  -0.02    -0.00  -0.00  -0.00    -0.02  -0.02  -0.02
  29   1     0.01   0.07   0.18    -0.01  -0.02  -0.04    -0.01  -0.05   0.03
  30   1    -0.02   0.01   0.02     0.04   0.12   0.23    -0.07  -0.00   0.01
  31   1     0.00   0.00  -0.01    -0.01  -0.05  -0.09     0.08   0.03  -0.03
  32   1     0.03   0.09   0.19    -0.01  -0.02  -0.03    -0.00  -0.03   0.02
  33   1     0.02   0.02   0.04    -0.05  -0.11  -0.23    -0.16  -0.01   0.05
  34   1     0.00  -0.02  -0.06     0.01   0.04   0.09    -0.08  -0.10   0.07
  35   1    -0.04  -0.12  -0.18    -0.00  -0.02  -0.04     0.02   0.06  -0.04
  36   1     0.03   0.07   0.16     0.02   0.08   0.14    -0.02  -0.02   0.02
  37   1    -0.00  -0.07  -0.11     0.01   0.04   0.07     0.05   0.08  -0.06
                     25                     26                     27
                        a                      a                      a 
 Frequencies --   509.3905               515.9769               542.3383
 Red. masses --     9.5984                10.1531                11.1183
 Frc consts  --     0.0000                 0.0000                 0.0000
 IR Inten    --     0.0398                 1.7866                 0.6711
 Raman Activ --     0.0000                 0.0000                 0.0000
 Depolar     --     0.0000                 0.0000                 0.0000
 Atom AN      X      Y      Z        X      Y      Z        X      Y      Z
   1   7     0.00  -0.02   0.01     0.02  -0.09   0.10     0.00   0.01  -0.02
   2   6    -0.03   0.02   0.01    -0.25   0.17   0.06     0.14  -0.08  -0.00
   3   6     0.00   0.04  -0.01    -0.00   0.21  -0.21     0.13  -0.01   0.00
   4   8     0.04   0.01   0.06     0.22  -0.12  -0.00    -0.02   0.16  -0.08
   5   6    -0.00  -0.09  -0.12     0.11  -0.18   0.11    -0.23   0.00   0.05
   6   6     0.04   0.15   0.21    -0.02   0.16  -0.13    -0.28   0.03   0.02
   7   6    -0.01  -0.01  -0.11     0.08   0.23  -0.11     0.07  -0.09   0.03
   8   6     0.04   0.05   0.09     0.16  -0.01  -0.05     0.17  -0.33   0.15
   9   6    -0.01   0.04   0.05    -0.11   0.10  -0.06    -0.20   0.14  -0.05
  10   6    -0.07  -0.14  -0.31    -0.09   0.12  -0.01     0.14   0.12  -0.09
  11   6     0.05   0.09   0.26     0.05  -0.29   0.09     0.19   0.08  -0.07
  12   6    -0.01  -0.11  -0.12     0.09  -0.23   0.17    -0.01  -0.08   0.03
  13   6    -0.03  -0.04  -0.14    -0.09   0.17  -0.04     0.11   0.06  -0.05
  14   6     0.03   0.09   0.17    -0.04  -0.03  -0.01     0.13  -0.07   0.01
  15   6    -0.05  -0.16  -0.30     0.03  -0.02   0.06    -0.22   0.00   0.05
  16   6    -0.02  -0.05  -0.11    -0.01   0.07  -0.02    -0.33   0.15  -0.03
  17   6     0.04   0.12   0.21    -0.03   0.06  -0.05     0.03   0.08  -0.03
  18   6    -0.06  -0.14  -0.26    -0.08  -0.00   0.05     0.09   0.07  -0.06
  19   6     0.04   0.10   0.25    -0.02  -0.16   0.05     0.18  -0.20   0.07
  20   6     0.01   0.04   0.11    -0.04  -0.10   0.07    -0.18  -0.04   0.06
  21  17    -0.00  -0.00  -0.00    -0.00  -0.00  -0.01     0.00   0.00   0.00
  22   1     0.00  -0.01   0.01     0.04  -0.07   0.10    -0.01   0.02  -0.04
  23   1     0.01  -0.01  -0.01     0.06  -0.04  -0.10    -0.02   0.01   0.05
  24   1     0.00  -0.01   0.00     0.04  -0.06   0.08    -0.02   0.02  -0.02
  25   1    -0.00  -0.01  -0.00    -0.04  -0.06  -0.01     0.04  -0.01   0.01
  26   1    -0.03   0.01  -0.00    -0.18   0.06   0.02     0.06  -0.03   0.00
  27   1     0.00   0.02  -0.02    -0.03   0.10  -0.15     0.07  -0.02   0.03
  28   1    -0.01  -0.01  -0.01    -0.01  -0.05  -0.07     0.06   0.01   0.00
  29   1    -0.02  -0.08  -0.18     0.06   0.11  -0.03     0.09   0.05  -0.04
  30   1     0.00  -0.04  -0.08     0.12  -0.01  -0.00     0.06  -0.10   0.04
  31   1     0.04   0.08   0.19     0.07  -0.11   0.00     0.09   0.01  -0.02
  32   1    -0.00  -0.02  -0.03     0.01  -0.03   0.02     0.03  -0.10   0.04
  33   1     0.01   0.04   0.06    -0.05   0.05  -0.02    -0.02   0.03  -0.01
  34   1     0.03   0.11   0.22    -0.05  -0.05  -0.01     0.06   0.00  -0.01
  35   1     0.00   0.00  -0.01     0.01   0.02  -0.02    -0.11   0.02  -0.00
  36   1     0.02   0.08   0.13    -0.02   0.02  -0.03     0.03  -0.05   0.02
  37   1    -0.04  -0.08  -0.16    -0.07   0.01   0.02    -0.03   0.03  -0.02
                     28                     29                     30
                        a                      a                      a 
 Frequencies --   582.5575               641.6108               650.5802
 Red. masses --    10.6119                11.3334                10.8418
 Frc consts  --     0.0000                 0.0000                 0.0000
 IR Inten    --     0.4738                 2.7949                 1.1441
 Raman Activ --     0.0000                 0.0000                 0.0000
 Depolar     --     0.0000                 0.0000                 0.0000
 Atom AN      X      Y      Z        X      Y      Z        X      Y      Z
   1   7    -0.00   0.01  -0.01    -0.01   0.00  -0.00    -0.00   0.00  -0.00
   2   6     0.00  -0.01  -0.01    -0.08   0.06  -0.00    -0.00  -0.00  -0.00
   3   6    -0.01  -0.01   0.01    -0.08  -0.01   0.02    -0.00  -0.00   0.00
   4   8    -0.02  -0.06  -0.11     0.07  -0.15   0.07    -0.00  -0.02  -0.02
   5   6     0.09   0.27   0.51     0.19   0.03  -0.04     0.03   0.07   0.13
   6   6     0.00  -0.01  -0.03     0.20  -0.17   0.07    -0.05  -0.17  -0.32
   7   6    -0.02  -0.06  -0.13     0.19  -0.31   0.12     0.04   0.10   0.20
   8   6     0.02   0.07   0.09     0.09  -0.21   0.10    -0.03  -0.11  -0.21
   9   6    -0.06  -0.20  -0.37     0.14  -0.04  -0.01    -0.02  -0.06  -0.11
  10   6    -0.00  -0.01   0.00     0.03   0.14  -0.09     0.07   0.20   0.37
  11   6     0.01   0.06   0.12     0.13   0.17  -0.11    -0.00  -0.02  -0.04
  12   6    -0.03  -0.09  -0.17     0.17   0.13  -0.09     0.01   0.02   0.03
  13   6     0.00   0.00   0.03    -0.11   0.23  -0.09    -0.04  -0.10  -0.21
  14   6    -0.01  -0.02  -0.03    -0.19   0.30  -0.13     0.03   0.11   0.20
  15   6     0.06   0.14   0.27    -0.09   0.16  -0.05    -0.05  -0.14  -0.28
  16   6    -0.02  -0.10  -0.19    -0.11  -0.02   0.02    -0.00  -0.00  -0.00
  17   6     0.04   0.11   0.21    -0.17  -0.04   0.05     0.00   0.02   0.05
  18   6    -0.03  -0.08  -0.15    -0.19  -0.11   0.09    -0.02  -0.03  -0.06
  19   6    -0.01   0.01  -0.00    -0.07  -0.15   0.08     0.07   0.20   0.40
  20   6     0.02   0.05   0.09    -0.03  -0.01   0.01    -0.01  -0.02  -0.03
  21  17     0.00   0.00   0.00    -0.00  -0.00  -0.00     0.00   0.00   0.00
  22   1    -0.00   0.00  -0.01     0.01  -0.01   0.02    -0.00   0.00  -0.00
  23   1    -0.00   0.00   0.00     0.01  -0.00  -0.04    -0.00   0.00  -0.00
  24   1    -0.00   0.00  -0.00     0.01  -0.01   0.01    -0.00   0.00  -0.00
  25   1     0.00  -0.00  -0.00    -0.02   0.01  -0.01    -0.00  -0.00  -0.00
  26   1     0.00  -0.00  -0.00    -0.04   0.02  -0.00    -0.00   0.00  -0.00
  27   1    -0.02  -0.01   0.02    -0.05   0.01  -0.01    -0.01  -0.00   0.00
  28   1     0.02   0.01   0.01    -0.04  -0.01   0.00     0.01   0.00   0.00
  29   1    -0.00   0.01   0.01     0.04  -0.11   0.04     0.02   0.05   0.10
  30   1     0.02   0.05   0.08     0.01  -0.06   0.03    -0.02  -0.05  -0.10
  31   1    -0.00  -0.00  -0.00     0.05   0.05  -0.03    -0.02  -0.07  -0.14
  32   1    -0.04  -0.10  -0.19     0.05   0.05  -0.04    -0.01  -0.04  -0.07
  33   1    -0.00  -0.01  -0.02    -0.01   0.06  -0.03    -0.02  -0.05  -0.10
  34   1    -0.01  -0.04  -0.07    -0.06   0.09  -0.04     0.01   0.05   0.09
  35   1    -0.03  -0.09  -0.18    -0.05  -0.02   0.02     0.01   0.02   0.04
  36   1     0.01   0.03   0.05    -0.06   0.01   0.00    -0.00  -0.00  -0.01
  37   1    -0.02  -0.06  -0.12    -0.09  -0.02   0.03    -0.02  -0.07  -0.13
                     31                     32                     33
                        a                      a                      a 
 Frequencies --   676.8692               680.8357               715.5708
 Red. masses --    11.3595                10.6715                11.3664
 Frc consts  --     0.0000                 0.0000                 0.0000
 IR Inten    --     1.4767                 5.7346                25.4659
 Raman Activ --     0.0000                 0.0000                 0.0000
 Depolar     --     0.0000                 0.0000                 0.0000
 Atom AN      X      Y      Z        X      Y      Z        X      Y      Z
   1   7     0.00   0.01  -0.01     0.00  -0.00   0.00     0.01   0.00  -0.01
   2   6    -0.01   0.01  -0.00    -0.00   0.00   0.00     0.05  -0.09  -0.01
   3   6    -0.01  -0.01   0.01     0.00   0.00  -0.00    -0.00  -0.03   0.01
   4   8    -0.04   0.08  -0.03     0.01   0.01   0.04    -0.21   0.39  -0.16
   5   6     0.08   0.11  -0.08    -0.06  -0.17  -0.32    -0.23   0.01   0.02
   6   6    -0.03   0.07  -0.02     0.05   0.17   0.32    -0.09  -0.07   0.05
   7   6    -0.30   0.07   0.02     0.00   0.01   0.02     0.28  -0.11   0.02
   8   6    -0.20  -0.19   0.14     0.01   0.03   0.06     0.16   0.19  -0.12
   9   6    -0.07  -0.01   0.01    -0.05  -0.13  -0.26     0.02  -0.00   0.00
  10   6     0.02  -0.05   0.03     0.04   0.13   0.24     0.05   0.03  -0.02
  11   6     0.17  -0.17   0.05    -0.04  -0.08  -0.18     0.20  -0.19   0.05
  12   6     0.45   0.05  -0.10     0.01   0.09   0.17     0.11  -0.23   0.09
  13   6    -0.23  -0.15   0.12     0.02   0.02   0.04    -0.17  -0.03   0.05
  14   6    -0.33   0.08   0.02     0.02   0.00   0.02    -0.23   0.10  -0.01
  15   6    -0.01   0.07  -0.02     0.04   0.13   0.27     0.12   0.02  -0.02
  16   6     0.07   0.12  -0.08    -0.03  -0.08  -0.15     0.22  -0.08  -0.00
  17   6     0.37   0.09  -0.11     0.02   0.08   0.15    -0.14   0.01   0.02
  18   6     0.14  -0.07   0.00    -0.02  -0.07  -0.15    -0.17  -0.04   0.04
  19   6     0.04  -0.06   0.03     0.04   0.11   0.20    -0.09   0.04   0.00
  20   6    -0.06  -0.02   0.01    -0.05  -0.16  -0.31     0.04   0.01  -0.03
  21  17    -0.00   0.00   0.00    -0.00  -0.00  -0.00    -0.00   0.00   0.00
  22   1     0.00   0.00   0.00     0.00  -0.00   0.00    -0.00   0.03   0.01
  23   1     0.00   0.00  -0.00     0.00   0.00  -0.00    -0.01   0.01   0.04
  24   1     0.00   0.00  -0.00    -0.00  -0.00   0.00     0.01   0.02  -0.04
  25   1    -0.01   0.02   0.00     0.00  -0.00   0.00    -0.01   0.08   0.03
  26   1     0.01   0.00  -0.00     0.00   0.00   0.00     0.13  -0.04  -0.02
  27   1     0.01  -0.01   0.01     0.01   0.00  -0.01     0.07  -0.04   0.05
  28   1     0.01  -0.00   0.00    -0.01  -0.00  -0.00     0.04   0.02   0.01
  29   1    -0.08   0.02   0.00    -0.03  -0.08  -0.16     0.08  -0.04  -0.01
  30   1    -0.06  -0.06   0.03    -0.02  -0.07  -0.14     0.03   0.05  -0.04
  31   1     0.01  -0.04   0.02    -0.01  -0.01  -0.02     0.13  -0.06   0.02
  32   1     0.12   0.03  -0.03     0.01   0.04   0.08     0.06  -0.13   0.08
  33   1    -0.07  -0.04   0.03    -0.02  -0.06  -0.13    -0.05  -0.01   0.00
  34   1    -0.10   0.01   0.01    -0.02  -0.07  -0.13    -0.09   0.00   0.00
  35   1    -0.01  -0.00  -0.00    -0.01  -0.04  -0.07     0.09   0.01  -0.02
  36   1     0.10   0.03  -0.03     0.00   0.01   0.02    -0.07   0.08  -0.03
  37   1    -0.01  -0.01   0.00    -0.01  -0.03  -0.06    -0.04  -0.01   0.02
                     34                     35                     36
                        a                      a                      a 
 Frequencies --   739.2548               753.8022               759.1856
 Red. masses --    11.1373                 9.1053                 6.0478
 Frc consts  --     0.0000                 0.0000                 0.0000
 IR Inten    --     7.9012                 0.5899                 5.6587
 Raman Activ --     0.0000                 0.0000                 0.0000
 Depolar     --     0.0000                 0.0000                 0.0000
 Atom AN      X      Y      Z        X      Y      Z        X      Y      Z
   1   7     0.00  -0.00   0.01     0.00   0.00   0.00     0.00  -0.00  -0.01
   2   6     0.02   0.03   0.01     0.00   0.00  -0.00     0.01  -0.01   0.00
   3   6     0.05   0.04  -0.02    -0.00  -0.00  -0.00     0.01   0.01   0.03
   4   8     0.10  -0.18   0.07    -0.00   0.00  -0.00    -0.01   0.03   0.02
   5   6    -0.09  -0.12   0.06    -0.01  -0.02  -0.03    -0.04  -0.09  -0.19
   6   6    -0.05   0.00   0.01     0.03   0.08   0.15     0.03   0.11   0.22
   7   6     0.08   0.06  -0.05    -0.01  -0.02  -0.04    -0.02  -0.09  -0.15
   8   6     0.07   0.16  -0.10     0.02   0.07   0.13     0.00  -0.00  -0.01
   9   6    -0.01   0.01  -0.01    -0.07  -0.20  -0.38    -0.04  -0.10  -0.19
  10   6     0.20  -0.00  -0.03     0.03   0.10   0.19     0.02   0.08   0.16
  11   6     0.13   0.38  -0.22    -0.02  -0.05  -0.09     0.00  -0.01   0.03
  12   6    -0.25  -0.01   0.07     0.01   0.02   0.04     0.04   0.08   0.16
  13   6    -0.06  -0.35   0.19    -0.01  -0.02  -0.05    -0.03  -0.08  -0.16
  14   6    -0.16   0.00   0.02     0.03   0.08   0.15    -0.01  -0.02  -0.04
  15   6    -0.02   0.09  -0.04    -0.04  -0.12  -0.22    -0.02  -0.07  -0.12
  16   6     0.08   0.13  -0.08    -0.00  -0.00  -0.01     0.04   0.08   0.17
  17   6     0.26   0.10  -0.10    -0.03  -0.09  -0.17    -0.00   0.03   0.07
  18   6    -0.10  -0.25   0.15    -0.00  -0.00  -0.01     0.03   0.10   0.17
  19   6    -0.14  -0.06   0.05    -0.04  -0.11  -0.20    -0.03  -0.08  -0.16
  20   6    -0.10   0.01   0.02     0.08   0.23   0.44     0.03   0.08   0.16
  21  17     0.00  -0.00  -0.00    -0.00  -0.00   0.00     0.00   0.00  -0.00
  22   1    -0.00  -0.01  -0.02    -0.00   0.00  -0.00    -0.00   0.00  -0.01
  23   1    -0.00  -0.01  -0.01    -0.00  -0.00  -0.00    -0.00   0.00   0.01
  24   1    -0.02  -0.01   0.03    -0.00  -0.00   0.01    -0.00   0.00  -0.01
  25   1     0.02  -0.07  -0.02     0.00  -0.00  -0.00     0.01  -0.01  -0.00
  26   1    -0.08   0.02   0.01    -0.00  -0.00   0.00    -0.01   0.00  -0.00
  27   1    -0.02   0.03  -0.03     0.00  -0.00   0.00    -0.00   0.01  -0.01
  28   1    -0.00  -0.02  -0.01     0.00   0.00  -0.00     0.01  -0.02   0.00
  29   1     0.02   0.02  -0.01    -0.01  -0.04  -0.07     0.03   0.07   0.14
  30   1     0.06   0.04  -0.03    -0.02  -0.05  -0.10     0.03   0.10   0.18
  31   1     0.07   0.09  -0.07     0.01   0.02   0.05    -0.03  -0.09  -0.16
  32   1    -0.04  -0.09   0.03     0.00   0.01   0.01    -0.03  -0.10  -0.18
  33   1    -0.03  -0.09   0.06    -0.02  -0.05  -0.10     0.03   0.10   0.19
  34   1    -0.00   0.04  -0.01    -0.02  -0.06  -0.11     0.04   0.11   0.22
  35   1    -0.01   0.00  -0.01     0.04   0.12   0.24    -0.05  -0.15  -0.28
  36   1     0.05   0.09  -0.06     0.04   0.12   0.23    -0.05  -0.13  -0.24
  37   1    -0.10  -0.05   0.04     0.04   0.12   0.23    -0.05  -0.14  -0.28
                     37                     38                     39
                        a                      a                      a 
 Frequencies --   797.3742               802.4337               816.4306
 Red. masses --     4.3417                10.1671                 4.6115
 Frc consts  --     0.0000                 0.0000                 0.0000
 IR Inten    --     5.1956                 0.3146                11.5567
 Raman Activ --     0.0000                 0.0000                 0.0000
 Depolar     --     0.0000                 0.0000                 0.0000
 Atom AN      X      Y      Z        X      Y      Z        X      Y      Z
   1   7    -0.03  -0.00   0.03    -0.01   0.00  -0.01    -0.05  -0.02   0.01
   2   6    -0.07  -0.02  -0.02    -0.03  -0.01  -0.01    -0.14  -0.07  -0.03
   3   6    -0.03  -0.03  -0.06    -0.03  -0.02   0.01    -0.04  -0.04  -0.04
   4   8     0.05   0.01  -0.02     0.00   0.05  -0.01     0.10   0.06  -0.02
   5   6     0.06   0.04   0.12     0.04   0.02  -0.04     0.07  -0.02   0.07
   6   6     0.05   0.03   0.08     0.06  -0.15   0.05     0.04  -0.05  -0.15
   7   6    -0.02  -0.04  -0.07     0.12  -0.22   0.11    -0.02   0.17   0.16
   8   6    -0.02   0.02  -0.03    -0.08   0.32  -0.14     0.03   0.06   0.23
   9   6     0.01  -0.01  -0.01    -0.05  -0.03   0.02     0.06  -0.01  -0.02
  10   6     0.01   0.07   0.08    -0.08   0.13  -0.06     0.04   0.05   0.11
  11   6    -0.04  -0.08  -0.19     0.02  -0.03   0.05    -0.01   0.03  -0.01
  12   6    -0.07  -0.13  -0.22     0.11   0.03   0.00    -0.10  -0.07  -0.02
  13   6     0.01   0.05   0.05    -0.05   0.27  -0.16    -0.01  -0.11  -0.11
  14   6     0.05   0.03   0.15     0.17  -0.31   0.10    -0.03  -0.03  -0.13
  15   6    -0.06  -0.10  -0.17    -0.07  -0.10   0.10    -0.02   0.05   0.05
  16   6    -0.03   0.10   0.09    -0.16   0.18  -0.08    -0.03   0.06   0.07
  17   6     0.08   0.05   0.04     0.33   0.07  -0.11     0.02   0.01   0.02
  18   6     0.02   0.02   0.14     0.02  -0.21   0.09    -0.00  -0.02   0.01
  19   6    -0.03  -0.03  -0.04    -0.13   0.07  -0.01    -0.02  -0.11  -0.14
  20   6    -0.01  -0.00   0.01    -0.12  -0.04   0.04     0.03   0.00   0.01
  21  17    -0.00   0.00   0.00    -0.00   0.00   0.00    -0.00   0.00   0.00
  22   1     0.01   0.00   0.10     0.00   0.01   0.03     0.02   0.03   0.22
  23   1     0.03   0.01  -0.03     0.01   0.01  -0.01     0.06   0.04  -0.04
  24   1     0.04   0.01  -0.03     0.01   0.01  -0.02     0.09   0.05  -0.12
  25   1    -0.03   0.09   0.06    -0.02   0.05   0.02    -0.07   0.20   0.13
  26   1     0.10  -0.01  -0.02     0.04  -0.00  -0.01     0.21  -0.02  -0.08
  27   1     0.04  -0.05   0.06     0.00  -0.01   0.01     0.04  -0.06   0.09
  28   1    -0.02   0.08  -0.01     0.00   0.01   0.01     0.00   0.10   0.00
  29   1    -0.00   0.02   0.07    -0.06  -0.16   0.07    -0.07  -0.14  -0.34
  30   1     0.01   0.06   0.09    -0.12   0.10  -0.06    -0.03  -0.20  -0.33
  31   1     0.07   0.18   0.35     0.01  -0.05  -0.05     0.01  -0.02  -0.05
  32   1     0.07   0.22   0.42     0.01  -0.01  -0.07    -0.01   0.03   0.08
  33   1    -0.05  -0.10  -0.21    -0.13   0.13   0.01     0.06   0.09   0.21
  34   1    -0.02  -0.09  -0.14    -0.01  -0.13   0.12     0.05   0.14   0.21
  35   1    -0.05  -0.08  -0.16    -0.07   0.03   0.02    -0.05  -0.09  -0.15
  36   1    -0.01  -0.09  -0.18     0.10   0.03   0.00    -0.00  -0.03  -0.05
  37   1    -0.05  -0.13  -0.23    -0.03  -0.02   0.07    -0.00   0.02   0.05
                     40                     41                     42
                        a                      a                      a 
 Frequencies --   822.1304               833.3355               874.0537
 Red. masses --     4.7407                 4.8693                 4.3247
 Frc consts  --     0.0000                 0.0000                 0.0000
 IR Inten    --    50.0064                34.1049                 0.9280
 Raman Activ --     0.0000                 0.0000                 0.0000
 Depolar     --     0.0000                 0.0000                 0.0000
 Atom AN      X      Y      Z        X      Y      Z        X      Y      Z
   1   7     0.07   0.01  -0.00    -0.02  -0.00  -0.03     0.00   0.01  -0.02
   2   6     0.19   0.10   0.05    -0.07  -0.04  -0.01    -0.01  -0.00   0.00
   3   6     0.06   0.07   0.04    -0.02  -0.02   0.02    -0.01  -0.02   0.02
   4   8    -0.12  -0.11   0.01     0.04   0.05  -0.00    -0.01   0.04  -0.01
   5   6    -0.08   0.10   0.05     0.02  -0.05  -0.05     0.01  -0.01  -0.01
   6   6    -0.11  -0.07  -0.09     0.03  -0.03  -0.07     0.03  -0.00  -0.00
   7   6     0.09  -0.01   0.19    -0.01   0.07   0.07    -0.02  -0.01  -0.06
   8   6     0.04   0.13   0.14     0.01   0.03   0.08    -0.01  -0.02  -0.03
   9   6    -0.09   0.01   0.03     0.04   0.01   0.02     0.04   0.00   0.01
  10   6    -0.02   0.01   0.02    -0.04  -0.11  -0.23    -0.00  -0.01  -0.03
  11   6     0.01  -0.05  -0.02     0.02   0.08   0.14    -0.01  -0.03  -0.04
  12   6     0.11   0.04  -0.08    -0.01   0.06   0.18    -0.01   0.02   0.08
  13   6    -0.02   0.04  -0.00     0.04   0.10   0.21     0.01   0.03   0.06
  14   6     0.01  -0.02   0.04     0.04   0.11   0.20     0.01   0.03   0.03
  15   6     0.03  -0.05  -0.06    -0.04  -0.07  -0.15    -0.03  -0.05  -0.10
  16   6     0.09   0.02   0.12    -0.02   0.04   0.04     0.03   0.17   0.30
  17   6    -0.02   0.02   0.05     0.02   0.02   0.04     0.01   0.01   0.01
  18   6     0.01   0.06   0.04     0.02   0.05   0.13    -0.06  -0.17  -0.30
  19   6    -0.03  -0.04  -0.17    -0.02  -0.06  -0.09     0.02   0.04   0.10
  20   6    -0.04   0.00   0.00     0.01  -0.00  -0.00     0.02  -0.01  -0.01
  21  17     0.00  -0.00  -0.01    -0.00   0.00   0.00     0.00   0.00   0.00
  22   1    -0.03  -0.04  -0.28     0.01   0.02   0.10     0.00   0.00  -0.01
  23   1    -0.07  -0.05   0.06     0.03   0.03  -0.01    -0.00   0.00  -0.00
  24   1    -0.12  -0.06   0.14     0.04   0.03  -0.07    -0.00  -0.00   0.01
  25   1     0.10  -0.26  -0.16    -0.04   0.09   0.06    -0.01   0.01  -0.00
  26   1    -0.28   0.03   0.10     0.10  -0.01  -0.05     0.01  -0.00   0.00
  27   1    -0.06   0.08  -0.11     0.01  -0.01   0.02    -0.00   0.00  -0.00
  28   1    -0.01  -0.13  -0.00     0.02   0.01   0.01     0.01  -0.02   0.01
  29   1    -0.04  -0.17  -0.27    -0.03  -0.06  -0.13     0.01   0.06   0.10
  30   1    -0.09  -0.12  -0.28    -0.01  -0.07  -0.11     0.01   0.01   0.02
  31   1    -0.01   0.04   0.07    -0.03  -0.11  -0.21     0.03   0.04   0.09
  32   1     0.04   0.05   0.05    -0.07  -0.18  -0.31    -0.03  -0.08  -0.12
  33   1    -0.03  -0.01  -0.05    -0.05  -0.17  -0.32    -0.02  -0.06  -0.12
  34   1    -0.02  -0.03   0.01    -0.06  -0.18  -0.36    -0.00  -0.01  -0.03
  35   1    -0.00  -0.10  -0.21    -0.02  -0.03  -0.05    -0.10  -0.26  -0.49
  36   1    -0.03  -0.05  -0.13    -0.01  -0.06  -0.10     0.00  -0.01  -0.02
  37   1    -0.00  -0.04  -0.10    -0.04  -0.11  -0.20     0.08   0.25   0.49
                     43                     44                     45
                        a                      a                      a 
 Frequencies --   882.5702               884.6682               902.8126
 Red. masses --     7.2509                 6.4930                 3.3659
 Frc consts  --     0.0000                 0.0000                 0.0000
 IR Inten    --    13.0622                16.4034                 3.6799
 Raman Activ --     0.0000                 0.0000                 0.0000
 Depolar     --     0.0000                 0.0000                 0.0000
 Atom AN      X      Y      Z        X      Y      Z        X      Y      Z
   1   7     0.05   0.01  -0.08    -0.06  -0.05  -0.03     0.00   0.00   0.00
   2   6     0.02   0.01   0.06    -0.05  -0.03  -0.01    -0.00  -0.00  -0.00
   3   6    -0.06  -0.05   0.16     0.08   0.06  -0.02     0.00  -0.00  -0.01
   4   8    -0.13   0.20  -0.11     0.14  -0.20   0.08     0.00  -0.00   0.00
   5   6     0.08  -0.01   0.03    -0.06   0.04   0.03     0.00   0.00   0.01
   6   6     0.20  -0.04  -0.08    -0.21  -0.01  -0.03    -0.00   0.01   0.02
   7   6    -0.09   0.15  -0.02     0.09  -0.11   0.06     0.05   0.14   0.27
   8   6    -0.02  -0.02   0.02     0.02   0.02  -0.01    -0.05  -0.14  -0.27
   9   6     0.26  -0.01   0.02    -0.24   0.05   0.07    -0.01  -0.02  -0.04
  10   6     0.01   0.03   0.02    -0.01  -0.01   0.03     0.00   0.00   0.00
  11   6    -0.07  -0.18  -0.18    -0.02  -0.05  -0.25    -0.00  -0.00  -0.01
  12   6    -0.12  -0.05   0.24     0.17   0.20   0.08     0.00   0.00   0.00
  13   6     0.01   0.01  -0.02    -0.01  -0.01   0.02    -0.01  -0.04  -0.07
  14   6    -0.02   0.03  -0.07     0.00  -0.07  -0.02     0.01   0.03   0.07
  15   6    -0.06   0.02   0.04     0.07   0.00   0.00     0.00  -0.00  -0.00
  16   6    -0.22   0.07  -0.08     0.19  -0.11  -0.01     0.01   0.02   0.04
  17   6     0.08   0.00  -0.01    -0.07  -0.00   0.02    -0.01  -0.02  -0.04
  18   6    -0.00  -0.07   0.11     0.02   0.11  -0.04    -0.00  -0.01  -0.02
  19   6    -0.02  -0.07   0.01     0.01   0.06  -0.04    -0.00  -0.00  -0.01
  20   6     0.14  -0.02  -0.02    -0.14   0.01   0.01     0.00   0.02   0.03
  21  17     0.00   0.00  -0.00    -0.00  -0.00   0.00    -0.00  -0.00  -0.00
  22   1    -0.02   0.01  -0.15     0.02   0.04   0.22     0.00  -0.00   0.00
  23   1    -0.04  -0.01   0.05     0.06   0.06  -0.00     0.00  -0.00  -0.00
  24   1    -0.05  -0.00   0.00     0.08   0.07  -0.18    -0.00  -0.00   0.01
  25   1    -0.02  -0.01  -0.08     0.00   0.04   0.14    -0.00   0.00  -0.00
  26   1    -0.05   0.01   0.02     0.06   0.04  -0.11     0.00  -0.00   0.00
  27   1    -0.02   0.04  -0.07    -0.02   0.03  -0.02     0.00  -0.00   0.00
  28   1     0.04  -0.15   0.03     0.02  -0.01  -0.01    -0.00   0.01  -0.00
  29   1    -0.06  -0.01  -0.04     0.04  -0.02  -0.02    -0.09  -0.27  -0.53
  30   1     0.07  -0.02  -0.00    -0.07   0.03   0.01     0.09   0.27   0.53
  31   1     0.14   0.18   0.42     0.01   0.25   0.39    -0.00   0.01   0.01
  32   1    -0.09  -0.19  -0.24    -0.02  -0.13  -0.34    -0.00  -0.00  -0.01
  33   1     0.03  -0.00  -0.01    -0.04  -0.01  -0.03     0.02   0.07   0.13
  34   1     0.03   0.08   0.07    -0.00   0.01   0.10    -0.02  -0.07  -0.13
  35   1    -0.07   0.05   0.11     0.09   0.02   0.03    -0.01  -0.04  -0.07
  36   1     0.03  -0.04   0.00    -0.03   0.03  -0.02     0.01   0.04   0.08
  37   1    -0.05  -0.07  -0.08     0.03   0.00  -0.05     0.00   0.01   0.02
                     46                     47                     48
                        a                      a                      a 
 Frequencies --   906.6316               917.4011               922.6035
 Red. masses --     3.4101                 3.5095                 4.4724
 Frc consts  --     0.0000                 0.0000                 0.0000
 IR Inten    --     2.5332                 0.0599                11.9208
 Raman Activ --     0.0000                 0.0000                 0.0000
 Depolar     --     0.0000                 0.0000                 0.0000
 Atom AN      X      Y      Z        X      Y      Z        X      Y      Z
   1   7     0.00   0.02   0.03     0.00   0.00   0.01    -0.00  -0.10  -0.30
   2   6     0.00  -0.00  -0.02     0.00  -0.00  -0.01    -0.05   0.02   0.20
   3   6    -0.01  -0.01  -0.04    -0.00   0.00  -0.01     0.06   0.05   0.34
   4   8     0.00   0.01   0.01    -0.00  -0.00   0.00    -0.02  -0.03  -0.09
   5   6    -0.00  -0.00  -0.01     0.00  -0.00  -0.00    -0.00   0.01   0.00
   6   6     0.00   0.01   0.02     0.00   0.00   0.01     0.01   0.01   0.03
   7   6     0.01   0.03   0.05     0.01   0.02   0.04    -0.00   0.01  -0.00
   8   6    -0.01  -0.03  -0.05    -0.01  -0.02  -0.04    -0.00  -0.01  -0.02
   9   6    -0.01  -0.03  -0.06    -0.01  -0.02  -0.03     0.01  -0.01  -0.02
  10   6     0.00   0.01   0.01     0.00   0.00   0.01     0.00   0.00   0.01
  11   6     0.01   0.02   0.04     0.00   0.01   0.02     0.01   0.02   0.06
  12   6    -0.00  -0.01  -0.01    -0.00  -0.00  -0.01    -0.02  -0.05  -0.08
  13   6     0.05   0.14   0.27     0.01   0.03   0.06     0.01   0.01   0.03
  14   6    -0.05  -0.13  -0.26    -0.01  -0.03  -0.05    -0.00  -0.01  -0.02
  15   6    -0.00  -0.00  -0.01    -0.01  -0.03  -0.06    -0.00  -0.00  -0.01
  16   6     0.00   0.01   0.02    -0.03  -0.08  -0.15    -0.01   0.01   0.01
  17   6    -0.02  -0.05  -0.09     0.06   0.17   0.33     0.00  -0.00  -0.00
  18   6     0.01   0.02   0.04    -0.02  -0.07  -0.14    -0.00  -0.01  -0.01
  19   6    -0.00  -0.00   0.00    -0.01  -0.03  -0.06     0.00   0.00   0.01
  20   6     0.01   0.02   0.04     0.02   0.05   0.10     0.01   0.00   0.01
  21  17     0.00   0.00  -0.00     0.00   0.00  -0.00    -0.00  -0.00   0.01
  22   1     0.00  -0.01  -0.02    -0.00  -0.00  -0.00    -0.00   0.11   0.12
  23   1    -0.00  -0.01  -0.02    -0.00  -0.00  -0.00     0.03   0.11   0.11
  24   1    -0.01  -0.02   0.05    -0.00  -0.00   0.01     0.07   0.14  -0.40
  25   1    -0.00   0.00  -0.02     0.00  -0.00  -0.00     0.01  -0.01   0.12
  26   1     0.01  -0.02   0.02     0.00  -0.00   0.01    -0.09   0.14  -0.18
  27   1     0.01  -0.02   0.03     0.00  -0.01   0.01    -0.05   0.19  -0.29
  28   1    -0.01   0.04  -0.00    -0.01   0.02  -0.00     0.10  -0.43   0.05
  29   1    -0.02  -0.06  -0.11    -0.01  -0.04  -0.09    -0.00   0.00  -0.00
  30   1     0.02   0.06   0.11     0.01   0.04   0.08     0.01   0.02   0.04
  31   1    -0.01  -0.04  -0.08    -0.01  -0.02  -0.03    -0.02  -0.07  -0.13
  32   1     0.00   0.01   0.02     0.00   0.01   0.01     0.04   0.09   0.20
  33   1    -0.09  -0.27  -0.52    -0.02  -0.06  -0.11    -0.01  -0.03  -0.06
  34   1     0.09   0.26   0.50     0.02   0.06   0.11     0.01   0.02   0.03
  35   1    -0.01  -0.02  -0.04     0.05   0.15   0.29    -0.00  -0.00  -0.01
  36   1     0.03   0.09   0.17    -0.11  -0.32  -0.62     0.00   0.00   0.01
  37   1    -0.01  -0.04  -0.08     0.05   0.15   0.28     0.00   0.01   0.03
                     49                     50                     51
                        a                      a                      a 
 Frequencies --   928.1766               988.0139               996.9661
 Red. masses --     7.4384                 7.4852                10.0368
 Frc consts  --     0.0000                 0.0000                 0.0000
 IR Inten    --    20.0424                79.9729                 6.7264
 Raman Activ --     0.0000                 0.0000                 0.0000
 Depolar     --     0.0000                 0.0000                 0.0000
 Atom AN      X      Y      Z        X      Y      Z        X      Y      Z
   1   7    -0.04   0.23  -0.32    -0.18   0.10  -0.16    -0.04   0.01  -0.02
   2   6    -0.26   0.11   0.20     0.17   0.02   0.12     0.06   0.01   0.01
   3   6     0.12  -0.33   0.24     0.31   0.04  -0.12     0.07   0.03  -0.05
   4   8     0.19   0.06  -0.05    -0.37  -0.09   0.11    -0.12  -0.02   0.03
   5   6     0.01   0.00  -0.00    -0.09   0.05  -0.01    -0.06  -0.02   0.02
   6   6    -0.06   0.01   0.01    -0.01   0.00  -0.00     0.09  -0.09   0.03
   7   6     0.02  -0.02   0.01     0.01  -0.01   0.00    -0.12   0.16  -0.06
   8   6     0.01   0.01   0.00     0.01  -0.03   0.01    -0.04   0.23  -0.11
   9   6    -0.11   0.00   0.02     0.17   0.06  -0.06    -0.07  -0.30   0.17
  10   6    -0.00  -0.01   0.01    -0.01   0.02  -0.01     0.04  -0.13   0.06
  11   6     0.01   0.04  -0.03    -0.06  -0.10   0.06     0.18   0.21  -0.14
  12   6    -0.01  -0.00  -0.00     0.02   0.02  -0.01    -0.00  -0.05   0.03
  13   6    -0.00  -0.01  -0.00     0.01  -0.03   0.01    -0.03   0.22  -0.11
  14   6     0.01  -0.02   0.01     0.01   0.00  -0.00    -0.13   0.18  -0.07
  15   6     0.02   0.01  -0.00    -0.01  -0.00   0.00     0.07  -0.10   0.04
  16   6     0.08  -0.05   0.00    -0.11   0.07  -0.02    -0.06  -0.02   0.02
  17   6    -0.02   0.00   0.01     0.01   0.01  -0.01     0.00  -0.04   0.02
  18   6     0.02   0.05  -0.03    -0.06  -0.12   0.07     0.16   0.24  -0.15
  19   6     0.01   0.01  -0.01    -0.02   0.01  -0.00     0.04  -0.13   0.06
  20   6    -0.08  -0.00   0.01     0.16   0.06  -0.06    -0.07  -0.31   0.18
  21  17    -0.00   0.00  -0.01    -0.00   0.00  -0.00    -0.00   0.00   0.00
  22   1     0.04  -0.11  -0.11     0.07  -0.09   0.30     0.01  -0.02   0.08
  23   1     0.06  -0.08  -0.44     0.16   0.02  -0.40     0.04   0.01  -0.08
  24   1    -0.01  -0.12   0.25     0.13  -0.04   0.03     0.03  -0.00  -0.00
  25   1    -0.13   0.13  -0.06     0.18  -0.24   0.24     0.05  -0.07   0.06
  26   1     0.01  -0.04   0.16    -0.07   0.03   0.02    -0.02   0.01  -0.00
  27   1     0.12  -0.09   0.04    -0.02  -0.01   0.04     0.00  -0.00   0.02
  28   1     0.18  -0.14   0.07    -0.02   0.07  -0.02    -0.00   0.02  -0.01
  29   1     0.01   0.00  -0.01     0.02   0.01  -0.01    -0.14  -0.06   0.05
  30   1    -0.02   0.00  -0.01     0.02  -0.01   0.00     0.08   0.05  -0.04
  31   1    -0.01   0.02   0.00    -0.03  -0.02   0.02     0.08   0.05  -0.04
  32   1     0.02  -0.05   0.03    -0.01   0.02  -0.03     0.05  -0.15   0.07
  33   1    -0.01   0.01   0.02     0.02  -0.01   0.00     0.08   0.04  -0.04
  34   1    -0.01  -0.01   0.01     0.03   0.02  -0.01    -0.13  -0.04   0.04
  35   1     0.03   0.00   0.00    -0.04   0.01   0.00    -0.01  -0.00   0.01
  36   1    -0.01   0.01  -0.01    -0.00   0.01  -0.00     0.07  -0.18   0.08
  37   1     0.01   0.01  -0.02    -0.03  -0.03   0.02     0.06   0.06  -0.04
                     52                     53                     54
                        a                      a                      a 
 Frequencies --  1067.8663              1078.9803              1112.5277
 Red. masses --     9.7924                 9.2665                 7.7009
 Frc consts  --     0.0000                 0.0000                 0.0000
 IR Inten    --    92.1585                 5.6730                 6.0050
 Raman Activ --     0.0000                 0.0000                 0.0000
 Depolar     --     0.0000                 0.0000                 0.0000
 Atom AN      X      Y      Z        X      Y      Z        X      Y      Z
   1   7     0.08  -0.02  -0.00     0.20  -0.04  -0.38     0.05  -0.03   0.01
   2   6    -0.16  -0.00   0.03    -0.06  -0.16   0.60    -0.12   0.06  -0.00
   3   6     0.08   0.02  -0.04    -0.16   0.15  -0.30     0.20   0.00  -0.08
   4   8     0.18  -0.17   0.07    -0.00   0.00   0.07    -0.14  -0.06   0.07
   5   6    -0.35   0.04   0.04     0.03  -0.03   0.01    -0.09  -0.01   0.02
   6   6    -0.26  -0.05   0.07     0.03   0.01  -0.01     0.09  -0.10   0.04
   7   6    -0.01   0.02  -0.01    -0.00  -0.00   0.00    -0.08   0.16  -0.07
   8   6     0.01   0.13  -0.07     0.00  -0.01   0.00     0.07  -0.18   0.08
   9   6     0.15   0.06  -0.06    -0.02   0.00   0.00     0.10  -0.26   0.12
  10   6    -0.03  -0.08   0.05     0.00   0.01  -0.01    -0.01  -0.17   0.09
  11   6    -0.04  -0.03   0.02     0.01   0.01  -0.01     0.05   0.10  -0.06
  12   6     0.18   0.12  -0.10    -0.00   0.01   0.00     0.05  -0.01  -0.00
  13   6     0.02   0.04  -0.02     0.00  -0.01   0.00    -0.05   0.19  -0.09
  14   6    -0.09   0.14  -0.06     0.01  -0.01   0.00     0.06  -0.17   0.08
  15   6     0.11  -0.14   0.05    -0.01   0.01  -0.01    -0.07   0.12  -0.05
  16   6    -0.26   0.19  -0.05     0.03  -0.02   0.01     0.04   0.00  -0.01
  17   6    -0.04  -0.03   0.02     0.01   0.00  -0.00    -0.04   0.04  -0.01
  18   6    -0.00  -0.17   0.09     0.00   0.02  -0.01    -0.02  -0.10   0.05
  19   6     0.01  -0.01   0.00    -0.00  -0.01   0.00    -0.01   0.16  -0.08
  20   6     0.34  -0.09  -0.02    -0.04   0.00   0.01    -0.08   0.25  -0.12
  21  17     0.00  -0.00  -0.00     0.00   0.00   0.00     0.00   0.00   0.00
  22   1    -0.02   0.03  -0.12    -0.01   0.06  -0.26    -0.01   0.03  -0.06
  23   1    -0.04  -0.01   0.09    -0.04   0.00   0.07    -0.03   0.00   0.08
  24   1    -0.04   0.01  -0.02    -0.04   0.04  -0.16    -0.03   0.02  -0.03
  25   1    -0.10   0.13  -0.04    -0.01  -0.04   0.18    -0.06   0.07  -0.03
  26   1     0.05  -0.01   0.00     0.07  -0.07   0.19    -0.01   0.03  -0.03
  27   1     0.06  -0.01   0.02    -0.11  -0.03   0.12     0.04  -0.03   0.04
  28   1     0.09  -0.00  -0.01     0.01   0.25  -0.05     0.11   0.01  -0.01
  29   1     0.06   0.07  -0.05    -0.02  -0.02   0.02     0.08   0.15  -0.09
  30   1     0.02   0.03  -0.02     0.01  -0.00   0.00     0.24  -0.10   0.01
  31   1    -0.23   0.05   0.02     0.02  -0.00  -0.00    -0.11   0.06  -0.01
  32   1     0.08  -0.05   0.01    -0.03   0.05  -0.04     0.08  -0.17   0.08
  33   1     0.20  -0.04  -0.02    -0.02   0.00  -0.00    -0.18   0.09  -0.02
  34   1    -0.05   0.02  -0.00     0.01   0.00  -0.00    -0.14  -0.20   0.13
  35   1    -0.01   0.11  -0.06    -0.00  -0.01   0.01    -0.03  -0.03   0.02
  36   1     0.02  -0.12   0.06    -0.00   0.01  -0.00    -0.09   0.21  -0.09
  37   1     0.05  -0.06   0.02    -0.01   0.01  -0.00     0.14  -0.06   0.01
                     55                     56                     57
                        a                      a                      a 
 Frequencies --  1117.3460              1128.2860              1129.6330
 Red. masses --     9.0240                 5.8308                 6.5675
 Frc consts  --     0.0000                 0.0000                 0.0000
 IR Inten    --    48.3752                17.6666                32.2711
 Raman Activ --     0.0000                 0.0000                 0.0000
 Depolar     --     0.0000                 0.0000                 0.0000
 Atom AN      X      Y      Z        X      Y      Z        X      Y      Z
   1   7     0.12  -0.04   0.05     0.00   0.11   0.00    -0.07  -0.14  -0.02
   2   6    -0.29   0.10  -0.05     0.04  -0.28  -0.02     0.10   0.32   0.05
   3   6     0.50   0.00  -0.12    -0.12   0.27   0.12    -0.15  -0.37  -0.09
   4   8    -0.35  -0.12   0.13     0.08  -0.08  -0.06     0.21   0.11   0.03
   5   6     0.04   0.01  -0.01    -0.14  -0.02   0.04    -0.11   0.06  -0.02
   6   6     0.05   0.05  -0.03    -0.04  -0.07   0.04    -0.06  -0.04   0.03
   7   6     0.03  -0.06   0.03    -0.01   0.05  -0.02     0.01   0.02  -0.02
   8   6    -0.02   0.05  -0.02     0.02   0.02  -0.01    -0.00   0.02  -0.01
   9   6     0.01   0.09  -0.05     0.12  -0.02  -0.01     0.08   0.00  -0.02
  10   6    -0.02   0.09  -0.04     0.01  -0.04   0.02     0.01  -0.02   0.01
  11   6    -0.04  -0.05   0.03    -0.01  -0.01   0.01    -0.02  -0.03   0.02
  12   6    -0.03   0.01   0.00     0.07   0.04  -0.04     0.02   0.00  -0.00
  13   6     0.02  -0.08   0.04     0.02   0.06  -0.03     0.01   0.03  -0.02
  14   6     0.01   0.02  -0.01     0.01  -0.03   0.01    -0.00  -0.00   0.00
  15   6    -0.04   0.00   0.00    -0.06   0.02   0.00    -0.04  -0.01   0.01
  16   6     0.05  -0.13   0.06     0.03  -0.20   0.10     0.01  -0.14   0.07
  17   6     0.10   0.02  -0.03     0.18   0.05  -0.06     0.13   0.03  -0.04
  18   6    -0.03   0.15  -0.07    -0.11   0.17  -0.07    -0.09   0.12  -0.05
  19   6    -0.02  -0.09   0.05    -0.05  -0.01   0.02    -0.03  -0.01   0.01
  20   6     0.01  -0.06   0.03     0.08   0.05  -0.04     0.08   0.02  -0.02
  21  17     0.00   0.00   0.00    -0.00   0.00  -0.00    -0.00  -0.00   0.00
  22   1    -0.03   0.05  -0.13     0.02  -0.05  -0.04    -0.01   0.04   0.12
  23   1    -0.06  -0.01   0.16    -0.00  -0.04  -0.12     0.03   0.06   0.07
  24   1    -0.07   0.02  -0.02    -0.01  -0.05   0.14     0.05   0.05  -0.18
  25   1    -0.14   0.20  -0.06     0.00   0.03   0.09     0.07  -0.14  -0.10
  26   1     0.02   0.05  -0.08     0.18  -0.11   0.02    -0.25   0.12   0.02
  27   1     0.08  -0.03   0.03     0.10   0.12  -0.14    -0.16  -0.16   0.18
  28   1     0.19   0.01  -0.01    -0.20  -0.12  -0.00     0.19   0.14   0.01
  29   1    -0.09  -0.12   0.08     0.05   0.06  -0.04     0.06   0.07  -0.04
  30   1    -0.03   0.02  -0.00     0.10  -0.02  -0.01     0.01   0.00  -0.00
  31   1     0.04  -0.03   0.01    -0.14   0.03   0.01    -0.08   0.01   0.01
  32   1    -0.03   0.04  -0.02     0.03  -0.01   0.00     0.04  -0.08   0.03
  33   1    -0.00  -0.02   0.01    -0.00   0.02  -0.01     0.02   0.00  -0.01
  34   1     0.09   0.09  -0.06    -0.04  -0.05   0.03    -0.02  -0.02   0.01
  35   1    -0.09  -0.14   0.09    -0.24  -0.30   0.20    -0.17  -0.21   0.14
  36   1     0.05  -0.04   0.01     0.04   0.04  -0.03     0.04   0.01  -0.01
  37   1    -0.23   0.10  -0.01    -0.36   0.13  -0.01    -0.28   0.10  -0.00
                     58                     59                     60
                        a                      a                      a 
 Frequencies --  1153.6284              1171.6315              1194.4413
 Red. masses --     3.0588                 2.5010                 2.6614
 Frc consts  --     0.0000                 0.0000                 0.0000
 IR Inten    --    12.5259                 0.6074                 7.6281
 Raman Activ --     0.0000                 0.0000                 0.0000
 Depolar     --     0.0000                 0.0000                 0.0000
 Atom AN      X      Y      Z        X      Y      Z        X      Y      Z
   1   7     0.02   0.00  -0.01    -0.01  -0.00   0.01     0.00   0.00  -0.00
   2   6    -0.03  -0.01   0.01     0.01   0.01  -0.01    -0.00  -0.00   0.00
   3   6     0.06   0.02  -0.01    -0.02  -0.03   0.01    -0.01   0.01  -0.00
   4   8    -0.09   0.00   0.01     0.05  -0.00  -0.00     0.01  -0.01   0.00
   5   6     0.14   0.01  -0.03    -0.07  -0.01   0.01    -0.01   0.03  -0.01
   6   6     0.01   0.15  -0.08     0.02   0.01  -0.01    -0.02   0.03  -0.01
   7   6     0.11  -0.05   0.00    -0.05  -0.06   0.04     0.03   0.00  -0.01
   8   6    -0.06  -0.10   0.06     0.07   0.01  -0.02    -0.04   0.05  -0.02
   9   6    -0.01  -0.03   0.02    -0.07   0.17  -0.08     0.02  -0.04   0.02
  10   6     0.01  -0.10   0.05    -0.09   0.04  -0.01    -0.01   0.03  -0.02
  11   6     0.05   0.05  -0.04     0.04  -0.06   0.02    -0.02   0.01  -0.00
  12   6    -0.09  -0.03   0.03    -0.03   0.09  -0.04     0.02  -0.03   0.01
  13   6     0.06   0.06  -0.04     0.08  -0.05   0.01    -0.03  -0.01   0.01
  14   6    -0.09   0.03   0.00    -0.06  -0.04   0.03    -0.00   0.06  -0.03
  15   6     0.05  -0.09   0.04     0.05   0.00  -0.01    -0.04  -0.05   0.03
  16   6    -0.05   0.00   0.01    -0.04  -0.04   0.03    -0.03   0.02  -0.01
  17   6     0.04   0.01  -0.01    -0.03   0.09  -0.04    -0.02   0.06  -0.03
  18   6    -0.04  -0.03   0.03     0.06  -0.01  -0.01     0.01   0.03  -0.02
  19   6    -0.02   0.12  -0.06    -0.05  -0.02   0.02     0.07  -0.03   0.00
  20   6    -0.03  -0.00   0.01    -0.01   0.05  -0.03     0.12  -0.29   0.13
  21  17     0.00   0.00   0.00    -0.00  -0.00  -0.00    -0.00   0.00  -0.00
  22   1    -0.00   0.00  -0.02    -0.00   0.00   0.01     0.00  -0.00  -0.00
  23   1    -0.01  -0.01   0.02     0.01   0.01  -0.01    -0.00  -0.00   0.00
  24   1    -0.01  -0.00   0.01     0.01   0.00  -0.01    -0.00  -0.00   0.00
  25   1    -0.01   0.02   0.00     0.00  -0.00  -0.01     0.00  -0.00   0.01
  26   1     0.01  -0.00  -0.01    -0.01   0.00   0.00     0.00  -0.00  -0.00
  27   1    -0.00   0.01  -0.01    -0.01  -0.01   0.00     0.01   0.00   0.00
  28   1    -0.01   0.00  -0.00     0.02   0.00   0.00    -0.00  -0.00  -0.00
  29   1     0.27   0.22  -0.16    -0.27  -0.27   0.18     0.07   0.07  -0.05
  30   1    -0.47   0.08   0.04     0.38  -0.09  -0.02    -0.25   0.07   0.01
  31   1     0.20  -0.03  -0.02     0.19  -0.06  -0.00    -0.02   0.01  -0.00
  32   1    -0.04   0.03  -0.01    -0.04   0.10  -0.04     0.02  -0.05   0.02
  33   1     0.43  -0.08  -0.03     0.43  -0.12  -0.02    -0.12   0.03   0.01
  34   1    -0.29  -0.25   0.18    -0.21  -0.20   0.14     0.17   0.18  -0.13
  35   1    -0.07  -0.05   0.04    -0.15  -0.14   0.10    -0.29  -0.27   0.19
  36   1     0.00   0.02  -0.01    -0.08   0.23  -0.10    -0.17   0.47  -0.21
  37   1    -0.08   0.01   0.01     0.22  -0.05  -0.01     0.42  -0.10  -0.02
                     61                     62                     63
                        a                      a                      a 
 Frequencies --  1201.7975              1218.3685              1224.0590
 Red. masses --     4.3260                 4.8918                 3.0585
 Frc consts  --     0.0000                 0.0000                 0.0000
 IR Inten    --    80.0845                38.8347                19.6913
 Raman Activ --     0.0000                 0.0000                 0.0000
 Depolar     --     0.0000                 0.0000                 0.0000
 Atom AN      X      Y      Z        X      Y      Z        X      Y      Z
   1   7    -0.01  -0.01  -0.01     0.04   0.04   0.02     0.12   0.19   0.08
   2   6     0.04   0.02   0.01    -0.02  -0.05  -0.03    -0.06  -0.21  -0.12
   3   6    -0.04   0.02  -0.01    -0.06   0.02  -0.02    -0.11  -0.04  -0.05
   4   8    -0.12   0.11  -0.04     0.08  -0.06   0.03     0.04   0.07   0.08
   5   6     0.16  -0.25   0.10    -0.12   0.14  -0.05     0.00  -0.00  -0.00
   6   6     0.11   0.14  -0.09     0.06  -0.03   0.01     0.03   0.04  -0.02
   7   6     0.03  -0.03   0.01    -0.07   0.09  -0.04     0.03  -0.02   0.01
   8   6     0.03  -0.02   0.00     0.03   0.01  -0.01    -0.00  -0.02   0.01
   9   6    -0.07   0.21  -0.10     0.02  -0.07   0.03    -0.01   0.03  -0.01
  10   6     0.04  -0.04   0.01    -0.14  -0.02   0.03     0.01   0.00  -0.00
  11   6     0.01   0.09  -0.05    -0.00   0.02  -0.01     0.00  -0.01   0.00
  12   6     0.06  -0.10   0.04     0.02   0.03  -0.02    -0.01  -0.01   0.00
  13   6     0.03   0.01  -0.01    -0.03   0.10  -0.05     0.01  -0.03   0.01
  14   6    -0.03   0.03  -0.01    -0.03  -0.03   0.02     0.01   0.00  -0.00
  15   6    -0.02  -0.04   0.03    -0.25  -0.17   0.13     0.07   0.05  -0.04
  16   6    -0.01  -0.02   0.01     0.03  -0.12   0.06    -0.01   0.03  -0.01
  17   6    -0.04   0.01   0.00     0.03  -0.01  -0.00    -0.01   0.00   0.00
  18   6     0.02  -0.05   0.02     0.05  -0.09   0.04    -0.01   0.02  -0.01
  19   6     0.12  -0.04   0.00     0.27  -0.00  -0.05    -0.06  -0.00   0.01
  20   6    -0.04   0.01   0.00    -0.01   0.09  -0.04    -0.00  -0.02   0.01
  21  17    -0.00   0.00   0.00     0.00   0.00  -0.00     0.00   0.00  -0.00
  22   1     0.00  -0.00   0.02     0.01  -0.00  -0.03     0.03  -0.06  -0.14
  23   1     0.00   0.01   0.01    -0.01  -0.02  -0.01    -0.06  -0.08  -0.05
  24   1     0.01  -0.00  -0.01    -0.03  -0.01   0.05    -0.07  -0.03   0.21
  25   1     0.02  -0.02  -0.01     0.03  -0.04   0.13     0.09  -0.09   0.37
  26   1    -0.01  -0.00   0.02    -0.00   0.04  -0.10    -0.02   0.15  -0.42
  27   1     0.04  -0.01   0.02    -0.02  -0.00   0.02    -0.41   0.04   0.03
  28   1     0.00  -0.01  -0.00     0.07  -0.02  -0.00     0.43  -0.05   0.00
  29   1    -0.17  -0.19   0.13    -0.11  -0.07   0.05     0.01  -0.01   0.00
  30   1    -0.17   0.04   0.01    -0.10   0.03   0.00    -0.01  -0.00   0.00
  31   1    -0.65   0.19   0.02     0.22  -0.05  -0.01    -0.06   0.01   0.00
  32   1     0.10  -0.24   0.11     0.08  -0.17   0.08     0.01  -0.02   0.05
  33   1     0.11  -0.02  -0.01     0.23  -0.03  -0.02    -0.06   0.01   0.01
  34   1    -0.09  -0.07   0.05     0.17   0.17  -0.12    -0.04  -0.04   0.03
  35   1     0.03   0.02  -0.02     0.24   0.19  -0.14    -0.06  -0.04   0.03
  36   1    -0.05   0.11  -0.05    -0.12   0.34  -0.15     0.03  -0.09   0.04
  37   1    -0.08   0.01   0.01    -0.31   0.05   0.03     0.07  -0.01  -0.01
                     64                     65                     66
                        a                      a                      a 
 Frequencies --  1230.1190              1241.1425              1243.9820
 Red. masses --     6.3530                 6.2443                 3.3358
 Frc consts  --     0.0000                 0.0000                 0.0000
 IR Inten    --    53.4041                88.8843                 4.7803
 Raman Activ --     0.0000                 0.0000                 0.0000
 Depolar     --     0.0000                 0.0000                 0.0000
 Atom AN      X      Y      Z        X      Y      Z        X      Y      Z
   1   7     0.02  -0.01  -0.01     0.04   0.00   0.01    -0.16  -0.04   0.00
   2   6     0.00   0.04   0.01    -0.05   0.04   0.01     0.15  -0.12  -0.03
   3   6    -0.09   0.06  -0.02    -0.00  -0.05   0.02    -0.06   0.21  -0.05
   4   8     0.06  -0.10   0.01     0.12  -0.10  -0.00    -0.01  -0.05   0.11
   5   6    -0.17   0.12  -0.04    -0.15   0.23  -0.10    -0.10   0.02   0.01
   6   6     0.27   0.18  -0.14     0.00   0.08  -0.04     0.08   0.06  -0.04
   7   6     0.08  -0.07   0.02    -0.02   0.08  -0.04    -0.01   0.03  -0.02
   8   6    -0.00  -0.12   0.06     0.04   0.02  -0.02     0.03  -0.01   0.00
   9   6    -0.02   0.05  -0.02    -0.02  -0.03   0.02    -0.01  -0.02   0.01
  10   6    -0.35   0.03   0.05     0.19  -0.08   0.01    -0.06  -0.03   0.03
  11   6     0.03   0.01  -0.01    -0.01  -0.12   0.06     0.03  -0.02   0.00
  12   6     0.01   0.05  -0.02    -0.13   0.01   0.02    -0.02   0.04  -0.03
  13   6    -0.03  -0.08   0.05     0.05  -0.05   0.02     0.01  -0.02   0.01
  14   6     0.07  -0.10   0.04     0.03   0.04  -0.02     0.02  -0.02   0.01
  15   6     0.14   0.11  -0.08     0.11   0.20  -0.12     0.05   0.09  -0.06
  16   6    -0.01   0.01  -0.00    -0.05   0.10  -0.04    -0.02   0.02  -0.01
  17   6    -0.00   0.04  -0.02    -0.18  -0.05   0.06    -0.07  -0.00   0.01
  18   6    -0.00   0.03  -0.01     0.03  -0.10   0.05     0.03  -0.05   0.02
[...]
   9   6    -0.24  -0.07   0.08    -0.03   0.14  -0.07    -0.00   0.00  -0.00
  10   6     0.08   0.04  -0.04    -0.02  -0.09   0.05     0.00  -0.00   0.00
  11   6     0.01  -0.01   0.01    -0.22   0.15  -0.04    -0.00  -0.00   0.00
  12   6    -0.02  -0.00   0.00     0.17  -0.23   0.09     0.00  -0.00   0.00
  13   6    -0.28  -0.03   0.07     0.39   0.05  -0.09    -0.00  -0.00   0.00
  14   6     0.27   0.13  -0.11    -0.38  -0.15   0.15     0.00  -0.00   0.00
  15   6    -0.20  -0.08   0.08     0.18  -0.01  -0.02     0.00   0.00  -0.00
  16   6     0.12   0.11  -0.08    -0.03   0.12  -0.06     0.00  -0.00   0.00
  17   6    -0.02  -0.09   0.05     0.11  -0.25   0.11     0.00   0.00  -0.00
  18   6     0.09   0.04  -0.04    -0.15   0.12  -0.04     0.00  -0.00  -0.00
  19   6    -0.24  -0.10   0.09    -0.02  -0.07   0.04    -0.00  -0.00  -0.00
  20   6     0.27   0.12  -0.11    -0.10   0.10  -0.04     0.00  -0.00   0.00
  21  17    -0.00  -0.00  -0.00    -0.00  -0.00  -0.00     0.00   0.01   0.00
  22   1    -0.00   0.00  -0.00     0.00  -0.00   0.00     0.04  -0.00  -0.02
  23   1     0.00   0.00  -0.00    -0.00   0.00   0.00    -0.02  -0.00  -0.01
  24   1    -0.00  -0.00   0.00     0.00  -0.00   0.00     0.14   0.84   0.44
  25   1    -0.00  -0.00  -0.00    -0.00  -0.00  -0.00    -0.00   0.00   0.00
  26   1     0.00  -0.00  -0.00     0.00   0.00  -0.00    -0.01  -0.07  -0.02
  27   1    -0.00   0.00  -0.00    -0.00  -0.00   0.01    -0.00  -0.01  -0.01
  28   1    -0.00   0.00  -0.00    -0.00  -0.01  -0.00     0.00   0.00  -0.01
  29   1     0.02   0.08  -0.05     0.01   0.06  -0.03    -0.00   0.00  -0.00
  30   1    -0.09   0.07  -0.02    -0.04   0.04  -0.01     0.00  -0.00  -0.00
  31   1    -0.01   0.00   0.00     0.06   0.01  -0.02     0.00   0.00  -0.00
  32   1    -0.01  -0.00   0.00    -0.00   0.06  -0.03     0.00   0.00  -0.00
  33   1     0.05  -0.04   0.01    -0.06   0.06  -0.02     0.00   0.00  -0.00
  34   1    -0.03  -0.07   0.04     0.02   0.08  -0.05    -0.00   0.00   0.00
  35   1    -0.02  -0.02   0.02    -0.02   0.02  -0.00    -0.00   0.00  -0.00
  36   1    -0.02   0.02  -0.00    -0.02   0.06  -0.03    -0.00  -0.00   0.00
  37   1    -0.02   0.02  -0.01     0.03   0.02  -0.01    -0.00  -0.00  -0.00
                     91                     92                     93
                        a                      a                      a 
 Frequencies --  2921.2337              2943.9840              2958.8197
 Red. masses --     1.9273                 1.5854                 1.9284
 Frc consts  --     0.0000                 0.0000                 0.0000
 IR Inten    --    15.3507                10.1576                 0.7380
 Raman Activ --     0.0000                 0.0000                 0.0000
 Depolar     --     0.0000                 0.0000                 0.0000
 Atom AN      X      Y      Z        X      Y      Z        X      Y      Z
   1   7     0.00   0.00  -0.00    -0.00   0.01   0.00    -0.00  -0.01  -0.01
   2   6    -0.01  -0.03  -0.01     0.08   0.10   0.03    -0.19  -0.18  -0.03
   3   6     0.02   0.08   0.27    -0.03  -0.18   0.03    -0.02  -0.10  -0.01
   4   8    -0.01   0.00   0.01    -0.01  -0.01   0.00    -0.00  -0.00   0.00
   5   6     0.00  -0.00   0.00    -0.00  -0.00   0.00    -0.00  -0.00   0.00
   6   6    -0.00  -0.00   0.00     0.00  -0.00   0.00    -0.00   0.00   0.00
   7   6    -0.00   0.00  -0.00    -0.00   0.00  -0.00    -0.00   0.00  -0.00
   8   6    -0.00  -0.00  -0.00     0.00  -0.00  -0.00    -0.00   0.00  -0.00
   9   6     0.00  -0.00   0.00     0.00  -0.00  -0.00     0.00  -0.00  -0.00
  10   6     0.00   0.00  -0.00     0.00  -0.00   0.00     0.00  -0.00  -0.00
  11   6     0.00   0.00   0.00     0.00  -0.00  -0.00     0.00  -0.00  -0.00
  12   6     0.00   0.00  -0.00     0.00   0.00  -0.00     0.00   0.00  -0.00
  13   6     0.00   0.00  -0.00     0.00  -0.00   0.00     0.00   0.00  -0.00
  14   6    -0.00   0.00  -0.00     0.00  -0.00   0.00     0.00   0.00   0.00
  15   6     0.00  -0.00   0.00     0.00  -0.00  -0.00     0.00  -0.00  -0.00
  16   6     0.00   0.00   0.00     0.00  -0.00   0.00    -0.00   0.00  -0.00
  17   6    -0.00  -0.00   0.00    -0.00  -0.00   0.00    -0.00  -0.00   0.00
  18   6    -0.00  -0.00   0.00    -0.00  -0.00   0.00     0.00   0.00  -0.00
  19   6     0.00  -0.00   0.00     0.00  -0.00  -0.00    -0.00  -0.00   0.00
  20   6    -0.00  -0.00  -0.00    -0.00  -0.00   0.00    -0.00   0.00   0.00
  21  17     0.00   0.00  -0.00     0.00  -0.00   0.00     0.00   0.00   0.00
  22   1    -0.00   0.00  -0.00     0.01   0.00  -0.00    -0.01  -0.00   0.00
  23   1     0.00  -0.00   0.00     0.00  -0.00   0.00    -0.00   0.00  -0.00
  24   1    -0.00  -0.01  -0.01    -0.00  -0.02  -0.01     0.01   0.04   0.02
  25   1     0.01  -0.00  -0.00    -0.23  -0.06   0.06     0.62   0.19  -0.15
  26   1     0.02   0.10   0.05    -0.05  -0.30  -0.16     0.06   0.47   0.25
  27   1    -0.07  -0.39  -0.14     0.13   0.67   0.33     0.07   0.36   0.17
  28   1     0.04   0.09  -0.85     0.02   0.01  -0.44     0.00  -0.00  -0.13
  29   1     0.00  -0.00   0.00     0.00  -0.00   0.00     0.00  -0.00   0.00
  30   1     0.00   0.00  -0.00     0.00   0.00  -0.00     0.00   0.00   0.00
  31   1    -0.00  -0.00   0.00     0.00   0.00  -0.00     0.00   0.00  -0.00
  32   1    -0.01  -0.00  -0.00    -0.02   0.00   0.00    -0.01   0.00   0.00
  33   1    -0.00  -0.00   0.00    -0.00   0.00   0.00    -0.00  -0.00   0.00
  34   1     0.00   0.00   0.00    -0.00   0.00  -0.00    -0.00   0.00  -0.00
  35   1    -0.00   0.00   0.00    -0.00   0.00  -0.00     0.00  -0.00   0.00
  36   1     0.00   0.00   0.00     0.00  -0.00  -0.00     0.00   0.00   0.00
  37   1     0.00   0.00  -0.00     0.00   0.00  -0.00    -0.00  -0.00   0.00
                     94                     95                     96
                        a                      a                      a 
 Frequencies --  2977.5350              3093.9019              3101.8220
 Red. masses --     1.5226                 1.7691                 1.7764
 Frc consts  --     0.0000                 0.0000                 0.0000
 IR Inten    --     7.7187                37.3056                 0.6648
 Raman Activ --     0.0000                 0.0000                 0.0000
 Depolar     --     0.0000                 0.0000                 0.0000
 Atom AN      X      Y      Z        X      Y      Z        X      Y      Z
   1   7    -0.01  -0.01  -0.01     0.00  -0.00  -0.00    -0.00   0.00   0.00
   2   6     0.13  -0.11  -0.12     0.00   0.00  -0.00    -0.00  -0.00   0.00
   3   6    -0.00  -0.03  -0.02     0.00   0.00  -0.00    -0.00  -0.00   0.00
   4   8    -0.00  -0.00   0.00    -0.00   0.00  -0.00    -0.00   0.00  -0.00
   5   6    -0.00   0.00  -0.00     0.00  -0.00   0.00    -0.00  -0.00   0.00
   6   6    -0.00   0.00  -0.00    -0.00   0.00   0.00     0.00  -0.00   0.00
   7   6     0.00  -0.00   0.00    -0.01   0.01  -0.00     0.06  -0.05   0.02
   8   6    -0.00   0.00   0.00    -0.00  -0.01   0.01     0.02   0.08  -0.05
   9   6    -0.00   0.00  -0.00     0.00   0.00  -0.00     0.00   0.00  -0.00
  10   6    -0.00  -0.00   0.00    -0.00  -0.00   0.00    -0.00  -0.00   0.00
  11   6     0.00  -0.00  -0.00     0.00   0.00  -0.00     0.01   0.04  -0.02
  12   6     0.00   0.00  -0.00    -0.00  -0.00   0.00    -0.01  -0.00   0.00
  13   6    -0.00  -0.00   0.00    -0.00  -0.01   0.00    -0.03  -0.14   0.08
  14   6     0.00  -0.00   0.00    -0.01   0.01  -0.00    -0.11   0.09  -0.03
  15   6    -0.00   0.00  -0.00     0.00  -0.00   0.00    -0.00   0.00   0.00
  16   6     0.00  -0.00   0.00     0.06  -0.05   0.02     0.03  -0.03   0.01
  17   6    -0.00  -0.00   0.00    -0.22  -0.05   0.07     0.01   0.00  -0.00
  18   6     0.00  -0.00   0.00     0.01   0.07  -0.04    -0.01  -0.04   0.02
  19   6    -0.00  -0.00   0.00    -0.00   0.00  -0.00     0.00   0.00  -0.00
  20   6     0.00   0.00   0.00     0.00   0.00  -0.00     0.00   0.00  -0.00
  21  17    -0.00   0.00   0.00    -0.00  -0.00  -0.00    -0.00   0.00   0.00
  22   1     0.02   0.01  -0.01    -0.00  -0.00   0.00     0.00   0.00  -0.00
  23   1    -0.00  -0.00  -0.00    -0.00   0.00  -0.00     0.00  -0.00   0.00
  24   1     0.01   0.04   0.02     0.00   0.00   0.00    -0.00  -0.00  -0.00
  25   1    -0.60  -0.22   0.13    -0.00  -0.00  -0.00     0.00   0.00  -0.00
  26   1     0.13   0.62   0.32     0.00  -0.00  -0.00    -0.00   0.00  -0.00
  27   1     0.02   0.11   0.05    -0.00  -0.00  -0.00     0.00   0.00   0.00
  28   1    -0.00  -0.01   0.02    -0.00  -0.00   0.00     0.00   0.00  -0.00
  29   1    -0.00   0.00  -0.00     0.02  -0.02   0.01    -0.23   0.19  -0.06
  30   1     0.00   0.00  -0.00     0.01   0.05  -0.03    -0.07  -0.31   0.17
  31   1     0.00   0.00  -0.00    -0.00  -0.01   0.00    -0.03  -0.15   0.09
  32   1    -0.00  -0.00   0.00     0.00   0.00  -0.00     0.03   0.01  -0.01
  33   1     0.00   0.00  -0.00     0.01   0.03  -0.02     0.11   0.50  -0.28
  34   1    -0.00   0.00  -0.00     0.04  -0.03   0.01     0.40  -0.34   0.10
  35   1    -0.00  -0.00  -0.00    -0.24   0.20  -0.06    -0.12   0.10  -0.03
  36   1     0.00  -0.00  -0.00     0.79   0.19  -0.24    -0.02  -0.00   0.01
  37   1     0.00   0.00  -0.00    -0.06  -0.28   0.16     0.03   0.13  -0.07
                     97                     98                     99
                        a                      a                      a 
 Frequencies --  3102.3506              3108.0158              3109.0610
 Red. masses --     1.7697                 1.8192                 1.8136
 Frc consts  --     0.0000                 0.0000                 0.0000
 IR Inten    --     3.0725                17.7210                 2.1953
 Raman Activ --     0.0000                 0.0000                 0.0000
 Depolar     --     0.0000                 0.0000                 0.0000
 Atom AN      X      Y      Z        X      Y      Z        X      Y      Z
   1   7    -0.00   0.00   0.00     0.00   0.00   0.00     0.00  -0.00  -0.00
   2   6    -0.00  -0.00   0.00    -0.00  -0.00  -0.00    -0.00  -0.00  -0.00
   3   6     0.00   0.00  -0.00     0.00   0.00  -0.00    -0.00  -0.00   0.00
   4   8    -0.00   0.00  -0.00     0.00  -0.00   0.00     0.00  -0.00   0.00
   5   6     0.00  -0.00   0.00     0.00   0.00  -0.00    -0.00  -0.00   0.00
   6   6     0.00  -0.00   0.00    -0.00   0.00  -0.00    -0.00   0.00  -0.00
   7   6     0.11  -0.09   0.03    -0.03   0.02  -0.01    -0.04   0.03  -0.01
   8   6     0.03   0.14  -0.08    -0.00  -0.01   0.00     0.00  -0.00   0.00
   9   6    -0.00  -0.00   0.00    -0.00   0.00  -0.00     0.00  -0.00   0.00
  10   6     0.00   0.00  -0.00     0.00  -0.01   0.00    -0.00   0.01  -0.00
  11   6    -0.01  -0.03   0.01    -0.04  -0.18   0.10     0.03   0.12  -0.07
  12   6     0.00   0.00  -0.00     0.03   0.01  -0.01    -0.02  -0.01   0.01
  13   6     0.02   0.08  -0.05     0.01   0.03  -0.01     0.01   0.05  -0.03
  14   6     0.06  -0.05   0.02    -0.05   0.04  -0.01     0.03  -0.02   0.01
  15   6     0.00  -0.00   0.00    -0.00  -0.00   0.00     0.00  -0.01   0.00
  16   6     0.00  -0.00   0.00     0.08  -0.07   0.02     0.11  -0.09   0.03
  17   6    -0.03  -0.01   0.01     0.01   0.00  -0.00    -0.01  -0.00   0.00
  18   6    -0.00  -0.02   0.01    -0.02  -0.09   0.05    -0.03  -0.13   0.07
  19   6     0.00   0.00  -0.00     0.00  -0.00   0.00     0.00  -0.00   0.00
  20   6    -0.00  -0.00   0.00     0.00   0.00  -0.00    -0.00   0.00  -0.00
  21  17     0.00   0.00   0.00     0.00   0.00   0.00    -0.00  -0.00  -0.00
  22   1     0.00   0.00  -0.00    -0.00  -0.00   0.00    -0.00  -0.00   0.00
  23   1    -0.00   0.00  -0.00    -0.00   0.00  -0.00    -0.00   0.00  -0.00
  24   1    -0.00  -0.00  -0.00    -0.00  -0.00  -0.00     0.00   0.00   0.00
  25   1     0.00   0.00  -0.00     0.00   0.00   0.00    -0.00   0.00  -0.00
  26   1    -0.00  -0.00  -0.00     0.00  -0.00  -0.00     0.00   0.00   0.00
  27   1     0.00   0.00   0.00    -0.00  -0.00  -0.00     0.00   0.00   0.00
  28   1     0.00  -0.00  -0.00    -0.00  -0.00   0.00     0.00   0.00  -0.00
  29   1    -0.41   0.33  -0.10     0.09  -0.07   0.02     0.15  -0.13   0.04
  30   1    -0.12  -0.53   0.29     0.00   0.02  -0.01     0.00   0.01  -0.01
  31   1     0.02   0.09  -0.05     0.14   0.64  -0.36    -0.10  -0.44   0.25
  32   1    -0.02  -0.00   0.01    -0.14  -0.03   0.04     0.10   0.02  -0.03
  33   1    -0.07  -0.31   0.17    -0.02  -0.08   0.04    -0.04  -0.17   0.09
  34   1    -0.24   0.20  -0.06     0.17  -0.15   0.04    -0.11   0.09  -0.03
  35   1    -0.02   0.01  -0.00    -0.29   0.25  -0.08    -0.38   0.32  -0.10
  36   1     0.11   0.03  -0.03    -0.02  -0.00   0.00     0.02   0.01  -0.01
  37   1     0.02   0.07  -0.04     0.07   0.30  -0.17     0.10   0.46  -0.26
                    100                    101                    102
                        a                      a                      a 
 Frequencies --  3113.2862              3115.4069              3117.8724
 Red. masses --     1.8855                 1.8754                 1.8781
 Frc consts  --     0.0000                 0.0000                 0.0000
 IR Inten    --    49.9698               175.1417                28.1294
 Raman Activ --     0.0000                 0.0000                 0.0000
 Depolar     --     0.0000                 0.0000                 0.0000
 Atom AN      X      Y      Z        X      Y      Z        X      Y      Z
   1   7    -0.00   0.00   0.00    -0.00   0.00   0.00    -0.00   0.00  -0.00
   2   6    -0.00  -0.00   0.00    -0.00  -0.00   0.00     0.00   0.00  -0.00
   3   6    -0.00  -0.00   0.00     0.00   0.00   0.00    -0.00   0.00   0.00
   4   8    -0.00   0.00  -0.00    -0.00   0.00  -0.00     0.00  -0.00   0.00
   5   6     0.00  -0.00   0.00     0.00  -0.00   0.00    -0.00   0.00  -0.00
   6   6     0.00  -0.00  -0.00     0.00   0.00  -0.00    -0.00  -0.00   0.00
   7   6     0.07  -0.06   0.02     0.11  -0.09   0.03    -0.08   0.07  -0.02
   8   6    -0.01  -0.05   0.03    -0.03  -0.12   0.07     0.02   0.09  -0.05
   9   6    -0.00  -0.00   0.00    -0.00   0.00  -0.00     0.00   0.00  -0.00
  10   6     0.00   0.00  -0.00    -0.00  -0.00   0.00    -0.00  -0.00   0.00
  11   6     0.00   0.02  -0.01    -0.01  -0.02   0.01    -0.00  -0.02   0.01
  12   6    -0.01  -0.00   0.00     0.01   0.00  -0.00     0.01   0.00  -0.00
  13   6     0.02   0.08  -0.04    -0.03  -0.10   0.06    -0.02  -0.09   0.05
  14   6    -0.05   0.04  -0.01     0.10  -0.08   0.03     0.10  -0.08   0.02
  15   6    -0.00  -0.00   0.00     0.00  -0.00  -0.00     0.00  -0.00   0.00
  16   6     0.11  -0.09   0.03     0.03  -0.03   0.01     0.08  -0.07   0.02
  17   6     0.11   0.03  -0.03    -0.00  -0.00   0.00     0.07   0.02  -0.02
  18   6     0.02   0.12  -0.07    -0.01  -0.04   0.02     0.02   0.08  -0.05
  19   6    -0.00   0.00  -0.00    -0.00  -0.00   0.00     0.00   0.00  -0.00
  20   6     0.00   0.00  -0.00    -0.00   0.00  -0.00    -0.00  -0.00   0.00
  21  17     0.00  -0.00  -0.00     0.00   0.00  -0.00     0.00  -0.00   0.00
  22   1     0.00   0.00  -0.00     0.00   0.00  -0.00    -0.00  -0.00  -0.00
  23   1     0.00  -0.00   0.00     0.00  -0.00   0.00     0.00  -0.00   0.00
  24   1    -0.00  -0.00  -0.00    -0.00  -0.00  -0.00    -0.00   0.00  -0.00
  25   1     0.00   0.00  -0.00     0.00   0.00  -0.00    -0.00  -0.00   0.00
  26   1    -0.00   0.00   0.00    -0.00   0.00  -0.00     0.00   0.00   0.00
  27   1     0.00   0.00   0.00     0.00  -0.00   0.00    -0.00  -0.00  -0.00
  28   1     0.00   0.00  -0.00     0.00  -0.00  -0.00    -0.00  -0.00   0.00
  29   1    -0.24   0.20  -0.06    -0.38   0.32  -0.10     0.28  -0.23   0.07
  30   1     0.04   0.17  -0.09     0.09   0.41  -0.23    -0.07  -0.32   0.18
  31   1    -0.02  -0.09   0.05     0.02   0.09  -0.05     0.02   0.08  -0.05
  32   1     0.03   0.01  -0.01    -0.02  -0.01   0.01    -0.05  -0.01   0.01
  33   1    -0.06  -0.27   0.15     0.08   0.35  -0.20     0.07   0.32  -0.18
  34   1     0.18  -0.15   0.05    -0.34   0.29  -0.09    -0.33   0.28  -0.09
  35   1    -0.37   0.31  -0.10    -0.11   0.09  -0.03    -0.27   0.23  -0.07
  36   1    -0.35  -0.08   0.10     0.00   0.00  -0.00    -0.22  -0.05   0.07
  37   1    -0.09  -0.41   0.23     0.03   0.14  -0.08    -0.06  -0.29   0.16
                    103                    104                    105
                        a                      a                      a 
 Frequencies --  3139.4912              3183.3906              3215.1101
 Red. masses --     1.8386                 1.8272                 1.7100
 Frc consts  --     0.0000                 0.0000                 0.0000
 IR Inten    --    57.2333                31.0586                37.1807
 Raman Activ --     0.0000                 0.0000                 0.0000
 Depolar     --     0.0000                 0.0000                 0.0000
 Atom AN      X      Y      Z        X      Y      Z        X      Y      Z
   1   7    -0.00   0.00   0.00    -0.18   0.15  -0.09     0.21   0.08  -0.06
   2   6     0.00   0.00  -0.00    -0.00   0.00  -0.00     0.01   0.00  -0.01
   3   6    -0.00  -0.00   0.00     0.00  -0.00  -0.00    -0.00  -0.00  -0.00
   4   8    -0.00  -0.00   0.00     0.00  -0.00   0.00     0.00   0.00  -0.00
   5   6    -0.01   0.00  -0.00    -0.00   0.00  -0.00    -0.00   0.00  -0.00
   6   6     0.00  -0.00  -0.00     0.00  -0.00   0.00     0.00  -0.00   0.00
   7   6    -0.00   0.00  -0.00    -0.00   0.00  -0.00     0.00  -0.00   0.00
   8   6     0.00   0.00  -0.00     0.00  -0.00   0.00    -0.00  -0.00   0.00
   9   6     0.00   0.00  -0.00    -0.00  -0.00   0.00     0.00   0.00  -0.00
  10   6     0.00   0.00  -0.00    -0.00   0.00  -0.00     0.00  -0.00  -0.00
  11   6    -0.01  -0.05   0.03     0.00   0.00  -0.00    -0.00   0.00   0.00
  12   6    -0.25  -0.06   0.08     0.00   0.00  -0.00    -0.00  -0.00   0.00
  13   6    -0.00  -0.01   0.00     0.00   0.00  -0.00    -0.00  -0.00   0.00
  14   6     0.00  -0.00   0.00    -0.00   0.00  -0.00     0.00  -0.00   0.00
  15   6     0.00  -0.00  -0.00     0.00   0.00  -0.00    -0.00  -0.00   0.00
  16   6     0.00  -0.00   0.00    -0.00   0.00  -0.00     0.00  -0.00   0.00
  17   6     0.00   0.00  -0.00    -0.00  -0.00   0.00     0.00   0.00  -0.00
  18   6     0.00   0.00  -0.00    -0.00  -0.00   0.00     0.00   0.00  -0.00
  19   6     0.00   0.00  -0.00    -0.00   0.00  -0.00     0.00  -0.00   0.00
  20   6     0.00  -0.00   0.00     0.00  -0.00   0.00    -0.00  -0.00   0.00
  21  17    -0.00   0.00  -0.00    -0.00  -0.00  -0.00     0.00  -0.00  -0.00
  22   1     0.01   0.00  -0.00     0.06   0.04  -0.02    -0.90  -0.29   0.19
  23   1     0.00  -0.00   0.00     0.63  -0.64   0.35     0.08  -0.05   0.03
  24   1    -0.00  -0.00  -0.00    -0.01   0.03   0.01     0.03   0.06   0.02
  25   1     0.00   0.00  -0.00     0.00   0.00   0.00    -0.02  -0.01   0.01
  26   1    -0.00   0.00   0.00     0.00  -0.00   0.00     0.00   0.01   0.00
  27   1     0.00   0.01   0.00    -0.00  -0.00  -0.00     0.00   0.00   0.00
  28   1     0.00   0.00  -0.01    -0.00  -0.00   0.00     0.00  -0.00   0.00
  29   1     0.01  -0.01   0.00     0.00  -0.00  -0.00    -0.00   0.00  -0.00
  30   1    -0.00  -0.01   0.01     0.00   0.00  -0.00     0.00   0.00  -0.00
  31   1     0.04   0.16  -0.09    -0.00  -0.00   0.00     0.00  -0.00   0.00
  32   1     0.88   0.22  -0.27    -0.00  -0.00   0.00     0.01   0.00  -0.00
  33   1     0.00   0.02  -0.01    -0.00  -0.00   0.00     0.00   0.00  -0.00
  34   1    -0.01   0.01  -0.00     0.00  -0.00   0.00    -0.00   0.00  -0.00
  35   1    -0.01   0.01  -0.00     0.00  -0.00   0.00    -0.00   0.00  -0.00
  36   1    -0.01  -0.00   0.00     0.00   0.00  -0.00    -0.00  -0.00   0.00
  37   1    -0.00  -0.01   0.00     0.00   0.00  -0.00    -0.00  -0.00   0.00
