20
 energy: -27.449747968330 gnorm: 0.000594102933 xtb: 6.5.1 (fef0646)
N            1.23092073771546       -0.12659128179476       -0.46954594897052
C            2.65824094410194        0.08102675398531       -0.05868123084256
C            2.82984510595203       -0.17090212132182        1.43398902024883
C            4.29539937403006       -0.35632745412041        1.84735203647611
C            5.15530724594634        0.90946400243903        1.82303788029595
C            5.65029895469473        1.28059462200695        0.43298035243739
O            6.55193577734103        2.25545139806637        0.38511982506813
O            5.25161613080201        0.75555630882621       -0.57082568317534
H            1.12414078890453        0.03266006257292       -1.47864189920270
H            0.61528764284951        0.52213948967762        0.03702462724668
H            0.93824875607335       -1.08814188022782       -0.25200454237708
H            2.94649249777659        1.09560788194479       -0.32658556441946
H            3.28915020092118       -0.60049633253716       -0.62891527501484
H            2.30604373120276       -1.09333742264794        1.69705322447675
H            2.38987439240982        0.64361758947466        2.01241069280077
H            4.75781888457689       -1.10343843708211        1.20130958477766
H            4.29909180855319       -0.74583584746356        2.86555382742780
H            6.03000169964914        0.74759614135628        2.45733381045938
H            4.60449687315510        1.75990312672571        2.23408555921045
H            6.83330845334383        2.58936340011964        1.24775970307614
