      -----------------------------------------------------------      
     |                   =====================                   |     
     |                           x T B                           |     
     |                   =====================                   |     
     |                         S. Grimme                         |     
     |          Mulliken Center for Theoretical Chemistry        |     
     |                    University of Bonn                     |     
      -----------------------------------------------------------      

   * xtb version 6.5.1 (fef0646) compiled by 'conda@b96dff2e9fd6' on 2023-01-04

   xtb is free software: you can redistribute it and/or modify it under
   the terms of the GNU Lesser General Public License as published by
   the Free Software Foundation, either version 3 of the License, or
   (at your option) any later version.
   
   xtb is distributed in the hope that it will be useful,
   but WITHOUT ANY WARRANTY; without even the implied warranty of
   MERCHANTABILITY or FITNESS FOR A PARTICULAR PURPOSE.  See the
   GNU Lesser General Public License for more details.
   
   Cite this work as:
   * C. Bannwarth, E. Caldeweyher, S. Ehlert, A. Hansen, P. Pracht,
     J. Seibert, S. Spicher, S. Grimme, WIREs Comput. Mol. Sci., 2020, 11,
     e01493. DOI: 10.1002/wcms.1493
   
   for GFN2-xTB:
   * C. Bannwarth, S. Ehlert and S. Grimme., J. Chem. Theory Comput., 2019,
     15, 1652-1671. DOI: 10.1021/acs.jctc.8b01176
   for GFN1-xTB:
   * S. Grimme, C. Bannwarth, P. Shushkov, J. Chem. Theory Comput., 2017,
     13, 1989-2009. DOI: 10.1021/acs.jctc.7b00118
   for GFN0-xTB:
   * P. Pracht, E. Caldeweyher, S. Ehlert, S. Grimme, ChemRxiv, 2019, preprint.
     DOI: 10.26434/chemrxiv.8326202.v1
   for GFN-FF:
   * S. Spicher and S. Grimme, Angew. Chem. Int. Ed., 2020, 59, 15665-15673.
     DOI: 10.1002/anie.202004239
   
   for ALPB and GBSA implicit solvation:
   * S. Ehlert, M. Stahn, S. Spicher, S. Grimme, J. Chem. Theory Comput.,
     2021, 17, 4250-4261. DOI: 10.1021/acs.jctc.1c00471
   
   for DFT-D4:
   * E. Caldeweyher, C. Bannwarth and S. Grimme, J. Chem. Phys., 2017,
     147, 034112. DOI: 10.1063/1.4993215
   * E. Caldeweyher, S. Ehlert, A. Hansen, H. Neugebauer, S. Spicher,
     C. Bannwarth and S. Grimme, J. Chem. Phys., 2019, 150, 154122.
     DOI: 10.1063/1.5090222
   * E. Caldeweyher, J.-M. Mewes, S. Ehlert and S. Grimme, Phys. Chem. Chem. Phys.
     2020, 22, 8499-8512. DOI: 10.1039/D0CP00502A
   
   for sTDA-xTB:
   * S. Grimme and C. Bannwarth, J. Chem. Phys., 2016, 145, 054103.
     DOI: 10.1063/1.4959605
   
   in the mass-spec context:
   * V. Asgeirsson, C. Bauer and S. Grimme, Chem. Sci., 2017, 8, 4879.
     DOI: 10.1039/c7sc00601b
   * J. Koopman and S. Grimme, ACS Omega 2019, 4, 12, 15120-15133.
     DOI: 10.1021/acsomega.9b02011
   
   for metadynamics refer to:
   * S. Grimme, J. Chem. Theory Comput., 2019, 155, 2847-2862
     DOI: 10.1021/acs.jctc.9b00143
   
   for SPH calculations refer to:
   * S. Spicher and S. Grimme, J. Chem. Theory Comput., 2021, 17, 1701-1714
     DOI: 10.1021/acs.jctc.0c01306
   
   with help from (in alphabetical order)
   P. Atkinson, C. Bannwarth, F. Bohle, G. Brandenburg, E. Caldeweyher
   M. Checinski, S. Dohm, S. Ehlert, S. Ehrlich, I. Gerasimov, C. Hölzer
   A. Katbashev, J. Koopman, C. Lavigne, S. Lehtola, F. März, M. Müller,
   F. Musil, H. Neugebauer, J. Pisarek, C. Plett, P. Pracht, F. Pultar,
   J. Seibert, P. Shushkov, S. Spicher, M. Stahn, M. Steiner, T. Strunk,
   J. Stückrath, T. Rose, and J. Unsleber
   
 * started run on 2023/01/23 at 21:06:56.428     

           -------------------------------------------------
          |                Calculation Setup                |
           -------------------------------------------------

          program call               : xtb init.xyz --opt -c 0 -u 0 -P 16 --input xtb.inp
          hostname                   : gpg-woodward
          coordinate file            : init.xyz
          omp threads                :                    16

   ID    Z sym.   atoms
    1    7 N      1
    2    6 C      2-13
    3   17 Cl     14
    4    1 H      15-28

molecular fragmentation (1/2 indicates fragments):
1111111111111211111111111111
# atoms in fragment 1/2:    27     1
 fragment masses (1/2) :      172.25       35.45
CMA distance (Bohr)    :  10.282
constraining FC (au)   :  0.0500

           -------------------------------------------------
          |                 G F N 2 - x T B                 |
           -------------------------------------------------

        Reference                      10.1021/acs.jctc.8b01176
      * Hamiltonian:
        H0-scaling (s, p, d)           1.850000    2.230000    2.230000
        zeta-weighting                 0.500000
      * Dispersion:
        s8                             2.700000
        a1                             0.520000
        a2                             5.000000
        s9                             5.000000
      * Repulsion:
        kExp                           1.500000    1.000000
        rExp                           1.000000
      * Coulomb:
        alpha                          2.000000
        third order                    shell-resolved
        anisotropic                    true
        a3                             3.000000
        a5                             4.000000
        cn-shift                       1.200000
        cn-exp                         4.000000
        max-rad                        5.000000


          ...................................................
          :                      SETUP                      :
          :.................................................:
          :  # basis functions                  76          :
          :  # atomic orbitals                  75          :
          :  # shells                           43          :
          :  # electrons                        74          :
          :  max. iterations                   250          :
          :  Hamiltonian                  GFN2-xTB          :
          :  restarted?                      false          :
          :  GBSA solvation                  false          :
          :  PC potential                    false          :
          :  electronic temp.          300.0000000     K    :
          :  accuracy                    1.0000000          :
          :  -> integral cutoff          0.2500000E+02      :
          :  -> integral neglect         0.1000000E-07      :
          :  -> SCF convergence          0.1000000E-05 Eh   :
          :  -> wf. convergence          0.1000000E-03 e    :
          :  Broyden damping             0.4000000          :
          ...................................................

 iter      E             dE          RMSdq      gap      omega  full diag
   1    -40.7624563 -0.407625E+02  0.444E+00    2.93       0.0  T
   2    -40.8814884 -0.119032E+00  0.259E+00    2.75       1.0  T
   3    -40.8835607 -0.207235E-02  0.122E+00    1.75       1.0  T
   4    -40.8804377  0.312299E-02  0.619E-01    1.61       1.0  T
   5    -40.8890587 -0.862101E-02  0.253E-01    1.51       1.0  T
   6    -40.8893314 -0.272645E-03  0.189E-01    1.54       1.0  T
   7    -40.8895329 -0.201474E-03  0.126E-01    1.56       1.0  T
   8    -40.8897416 -0.208757E-03  0.658E-02    1.56       1.0  T
   9    -40.8897996 -0.580128E-04  0.241E-02    1.56       1.0  T
  10    -40.8898027 -0.309479E-05  0.104E-02    1.55       1.8  T
  11    -40.8898042 -0.147185E-05  0.274E-03    1.56       6.9  T
  12    -40.8898042 -0.197538E-07  0.133E-03    1.56      14.2  T
  13    -40.8898042 -0.163642E-07  0.628E-04    1.55      30.1  T
  14    -40.8898042 -0.352534E-08  0.373E-04    1.55      50.7  T

   *** convergence criteria satisfied after 14 iterations ***

         #    Occupation            Energy/Eh            Energy/eV
      -------------------------------------------------------------
         1        2.0000           -0.9528581             -25.9286
       ...           ...                  ...                  ...
        31        2.0000           -0.4355595             -11.8522
        32        2.0000           -0.4331082             -11.7855
        33        2.0000           -0.4199199             -11.4266
        34        2.0000           -0.3923268             -10.6758
        35        2.0000           -0.3499484              -9.5226
        36        2.0000           -0.3431716              -9.3382
        37        2.0000           -0.3424494              -9.3185 (HOMO)
        38                         -0.2853215              -7.7640 (LUMO)
        39                         -0.2473621              -6.7311
        40                         -0.2108161              -5.7366
        41                         -0.1726862              -4.6990
        42                         -0.0793438              -2.1591
       ...                                ...                  ...
        75                          0.6746670              18.3586
      -------------------------------------------------------------
                  HL-Gap            0.0571278 Eh            1.5545 eV
             Fermi-level           -0.3136981 Eh           -8.5362 eV

 SCC (total)                   0 d,  0 h,  0 min,  0.100 sec
 SCC setup                      ...        0 min,  0.001 sec (  0.834%)
 Dispersion                     ...        0 min,  0.001 sec (  0.938%)
 classical contributions        ...        0 min,  0.000 sec (  0.448%)
 integral evaluation            ...        0 min,  0.004 sec (  4.370%)
 iterations                     ...        0 min,  0.085 sec ( 84.687%)
 molecular gradient             ...        0 min,  0.008 sec (  7.843%)
 printout                       ...        0 min,  0.001 sec (  0.688%)

         :::::::::::::::::::::::::::::::::::::::::::::::::::::
         ::                     SUMMARY                     ::
         :::::::::::::::::::::::::::::::::::::::::::::::::::::
         :: total energy             -40.273945365416 Eh    ::
         :: gradient norm              0.093647476696 Eh/a0 ::
         :: HOMO-LUMO gap              1.554527471806 eV    ::
         ::.................................................::
         :: SCC energy               -40.889804237876 Eh    ::
         :: -> isotropic ES            0.086346300630 Eh    ::
         :: -> anisotropic ES         -0.021745161437 Eh    ::
         :: -> anisotropic XC          0.014381792147 Eh    ::
         :: -> dispersion             -0.026560960517 Eh    ::
         :: repulsion energy           0.615808222138 Eh    ::
         :: add. restraining           0.000000000000 Eh    ::
         :: total charge               0.000000000000 e     ::
         :::::::::::::::::::::::::::::::::::::::::::::::::::::

      ----------------------------------------------------------- 
     |                   =====================                   |
     |                        A N C O P T                        |
     |                   =====================                   |
     |               Approximate Normal Coordinate               |
     |                Rational Function Optimizer                |
      ----------------------------------------------------------- 

          ...................................................
          :                      SETUP                      :
          :.................................................:
          :   optimization level            normal          :
          :   max. optcycles                   200          :
          :   ANC micro-cycles                  20          :
          :   degrees of freedom                78          :
          :.................................................:
          :   RF solver                   davidson          :
          :   write xtbopt.log                true          :
          :   linear?                        false          :
          :   energy convergence         0.5000000E-05 Eh   :
          :   grad. convergence          0.1000000E-02 Eh/α :
          :   maximium RF displ.         1.0000000          :
          :   Hlow (freq-cutoff)         0.1000000E-01      :
          :   Hmax (freq-cutoff)         5.0000000          :
          :   S6 in model hess.         20.0000000          :
          ...................................................

generating ANC from model Hessian ...
Using Lindh-Hessian (1995)
 Shifting diagonal of input Hessian by    9.4178817907879658E-003
 Lowest  eigenvalues of input Hessian
    0.000000    0.000000    0.000000    0.000000    0.000000    0.000000
    0.010000    0.010571    0.010772    0.012036    0.014712    0.015788
    0.016312    0.019683    0.020396    0.022539    0.024829    0.025319
 Highest eigenvalues
    1.764562    1.785594    1.805047    1.903855    2.009745    2.087488


........................................................................
.............................. CYCLE    1 ..............................
........................................................................
   1    -40.8898042 -0.408898E+02  0.247E-04    1.55       0.0  T
   2    -40.8898042 -0.243723E-09  0.200E-04    1.55      94.4  T
   3    -40.8898042 -0.791900E-10  0.161E-04    1.55     117.3  T
     SCC iter.                  ...        0 min,  0.008 sec
     gradient                   ...        0 min,  0.004 sec
 * total energy  :   -40.2739454 Eh     change       -0.1043020E-08 Eh
   gradient norm :     0.0936475 Eh/α   predicted     0.0000000E+00 (-100.00%)
   displ. norm   :     0.2879711 α      lambda       -0.1265913E-01
   maximum displ.:     0.1362937 α      in ANC's #4, #46, #2, ...

........................................................................
.............................. CYCLE    2 ..............................
........................................................................
   1    -40.9135438 -0.409135E+02  0.174E-01    1.68       0.0  T
   2    -40.9136099 -0.661308E-04  0.109E-01    1.70       1.0  T
   3    -40.9135843  0.255424E-04  0.414E-02    1.72       1.0  T
   4    -40.9136222 -0.378995E-04  0.140E-02    1.74       1.4  T
   5    -40.9136259 -0.364896E-05  0.614E-03    1.74       3.1  T
   6    -40.9136262 -0.344176E-06  0.314E-03    1.74       6.0  T
   7    -40.9136263 -0.493248E-07  0.176E-03    1.74      10.8  T
   8    -40.9136263 -0.148534E-07  0.126E-03    1.74      15.0  T
   9    -40.9136263 -0.124864E-07  0.565E-04    1.74      33.5  T
  10    -40.9136263 -0.553742E-08  0.255E-04    1.74      74.1  T
     SCC iter.                  ...        0 min,  0.025 sec
     gradient                   ...        0 min,  0.005 sec
 * total energy  :   -40.2834504 Eh     change       -0.9505007E-02 Eh
   gradient norm :     0.0449061 Eh/α   predicted    -0.6861506E-02 ( -27.81%)
   displ. norm   :     0.4166430 α      lambda       -0.8920381E-02
   maximum displ.:     0.2398240 α      in ANC's #4, #2, #46, ...

........................................................................
.............................. CYCLE    3 ..............................
........................................................................
   1    -40.9299724 -0.409300E+02  0.233E-01    1.92       0.0  T
   2    -40.9302612 -0.288755E-03  0.142E-01    2.00       1.0  T
   3    -40.9302653 -0.412085E-05  0.653E-02    2.06       1.0  T
   4    -40.9302857 -0.204243E-04  0.329E-02    2.10       1.0  T
   5    -40.9303041 -0.184230E-04  0.183E-02    2.10       1.0  T
   6    -40.9303059 -0.179382E-05  0.138E-02    2.10       1.4  T
   7    -40.9303075 -0.158066E-05  0.794E-03    2.10       2.4  T
   8    -40.9303080 -0.526413E-06  0.491E-03    2.10       3.8  T
   9    -40.9303083 -0.301696E-06  0.138E-03    2.10      13.7  T
  10    -40.9303084 -0.309895E-07  0.647E-04    2.10      29.2  T
  11    -40.9303084 -0.234189E-08  0.378E-04    2.10      50.0  T
     SCC iter.                  ...        0 min,  0.028 sec
     gradient                   ...        0 min,  0.004 sec
 * total energy  :   -40.2895305 Eh     change       -0.6080093E-02 Eh
   gradient norm :     0.0333518 Eh/α   predicted    -0.5234442E-02 ( -13.91%)
   displ. norm   :     0.4573919 α      lambda       -0.4389581E-02
   maximum displ.:     0.3153115 α      in ANC's #4, #2, #6, ...

........................................................................
.............................. CYCLE    4 ..............................
........................................................................
   1    -40.9310444 -0.409310E+02  0.187E-01    2.14       0.0  T
   2    -40.9311806 -0.136124E-03  0.112E-01    2.21       1.0  T
   3    -40.9311765  0.407906E-05  0.534E-02    2.26       1.0  T
   4    -40.9312031 -0.266476E-04  0.290E-02    2.29       1.0  T
   5    -40.9312135 -0.103851E-04  0.196E-02    2.29       1.0  T
   6    -40.9312155 -0.201586E-05  0.145E-02    2.29       1.3  T
   7    -40.9312175 -0.192495E-05  0.641E-03    2.29       2.9  T
   8    -40.9312178 -0.308670E-06  0.333E-03    2.29       5.7  T
   9    -40.9312179 -0.114480E-06  0.869E-04    2.29      21.8  T
  10    -40.9312179 -0.110645E-07  0.484E-04    2.29      39.0  T
     SCC iter.                  ...        0 min,  0.025 sec
     gradient                   ...        0 min,  0.004 sec
 * total energy  :   -40.2925666 Eh     change       -0.3036136E-02 Eh
   gradient norm :     0.0387063 Eh/α   predicted    -0.2654039E-02 ( -12.58%)
   displ. norm   :     0.4041873 α      lambda       -0.4235014E-02
   maximum displ.:     0.2447511 α      in ANC's #4, #46, #2, ...

........................................................................
.............................. CYCLE    5 ..............................
........................................................................
   1    -40.9283661 -0.409284E+02  0.301E-01    2.41       0.0  T
   2    -40.9289166 -0.550577E-03  0.174E-01    2.56       1.0  T
   3    -40.9289685 -0.518262E-04  0.851E-02    2.69       1.0  T
   4    -40.9289834 -0.149679E-04  0.536E-02    2.75       1.0  T
   5    -40.9290153 -0.319022E-04  0.392E-02    2.75       1.0  T
   6    -40.9290253 -0.100005E-04  0.287E-02    2.75       1.0  T
   7    -40.9290358 -0.105126E-04  0.130E-02    2.74       1.5  T
   8    -40.9290378 -0.191477E-05  0.601E-03    2.74       3.1  T
   9    -40.9290383 -0.539575E-06  0.187E-03    2.74      10.1  T
  10    -40.9290383 -0.305306E-07  0.126E-03    2.74      15.0  T
  11    -40.9290383 -0.124189E-07  0.859E-04    2.74      22.0  T
  12    -40.9290384 -0.506395E-08  0.535E-04    2.74      35.3  T
     SCC iter.                  ...        0 min,  0.030 sec
     gradient                   ...        0 min,  0.004 sec
 * total energy  :   -40.2950375 Eh     change       -0.2470913E-02 Eh
   gradient norm :     0.0376045 Eh/α   predicted    -0.2463444E-02 (  -0.30%)
   displ. norm   :     0.3432038 α      lambda       -0.2574171E-02
   maximum displ.:     0.2531668 α      in ANC's #4, #2, #1, ...

........................................................................
.............................. CYCLE    6 ..............................
........................................................................
   1    -40.9269818 -0.409270E+02  0.145E-01    2.72       0.0  T
   2    -40.9270254 -0.436329E-04  0.859E-02    2.77       1.0  T
   3    -40.9270128  0.125918E-04  0.354E-02    2.81       1.0  T
   4    -40.9270363 -0.235209E-04  0.182E-02    2.82       1.0  T
   5    -40.9270397 -0.335403E-05  0.125E-02    2.82       1.5  T
   6    -40.9270406 -0.913049E-06  0.919E-03    2.82       2.1  T
   7    -40.9270413 -0.750160E-06  0.477E-03    2.81       4.0  T
   8    -40.9270415 -0.151543E-06  0.246E-03    2.81       7.7  T
   9    -40.9270416 -0.712060E-07  0.630E-04    2.81      30.0  T
  10    -40.9270416 -0.378100E-08  0.397E-04    2.81      47.6  T
     SCC iter.                  ...        0 min,  0.029 sec
     gradient                   ...        0 min,  0.004 sec
 * total energy  :   -40.2966719 Eh     change       -0.1634398E-02 Eh
   gradient norm :     0.0227864 Eh/α   predicted    -0.1438725E-02 ( -11.97%)
   displ. norm   :     0.2197814 α      lambda       -0.1884567E-02
   maximum displ.:     0.1045710 α      in ANC's #4, #1, #9, ...

........................................................................
.............................. CYCLE    7 ..............................
........................................................................
   1    -40.9281299 -0.409281E+02  0.147E-01    2.83       0.0  T
   2    -40.9282504 -0.120533E-03  0.812E-02    2.92       1.0  T
   3    -40.9282589 -0.841474E-05  0.349E-02    2.98       1.0  T
   4    -40.9282604 -0.151581E-05  0.231E-02    3.01       1.0  T
   5    -40.9282686 -0.818476E-05  0.146E-02    3.01       1.3  T
   6    -40.9282698 -0.121865E-05  0.111E-02    3.01       1.7  T
   7    -40.9282712 -0.146194E-05  0.620E-03    3.01       3.1  T
   8    -40.9282717 -0.482646E-06  0.352E-03    3.01       5.4  T
   9    -40.9282719 -0.213007E-06  0.908E-04    3.01      20.8  T
  10    -40.9282719 -0.119012E-07  0.367E-04    3.01      51.4  T
     SCC iter.                  ...        0 min,  0.025 sec
     gradient                   ...        0 min,  0.003 sec
 * total energy  :   -40.2980514 Eh     change       -0.1379526E-02 Eh
   gradient norm :     0.0189723 Eh/α   predicted    -0.9878007E-03 ( -28.40%)
   displ. norm   :     0.2876212 α      lambda       -0.1669790E-02
   maximum displ.:     0.1394295 α      in ANC's #4, #1, #9, ...

........................................................................
.............................. CYCLE    8 ..............................
........................................................................
   1    -40.9302038 -0.409302E+02  0.155E-01    3.05       0.0  T
   2    -40.9303442 -0.140383E-03  0.865E-02    3.14       1.0  T
   3    -40.9303563 -0.120986E-04  0.357E-02    3.19       1.0  T
   4    -40.9303570 -0.703794E-06  0.207E-02    3.20       1.0  T
   5    -40.9303629 -0.588007E-05  0.141E-02    3.20       1.3  T
   6    -40.9303642 -0.126355E-05  0.106E-02    3.19       1.8  T
   7    -40.9303655 -0.130482E-05  0.634E-03    3.19       3.0  T
   8    -40.9303660 -0.522199E-06  0.364E-03    3.19       5.2  T
   9    -40.9303662 -0.229011E-06  0.996E-04    3.19      19.0  T
  10    -40.9303662 -0.117052E-07  0.559E-04    3.19      33.8  T
     SCC iter.                  ...        0 min,  0.025 sec
     gradient                   ...        0 min,  0.003 sec
 * total energy  :   -40.2992150 Eh     change       -0.1163537E-02 Eh
   gradient norm :     0.0163942 Eh/α   predicted    -0.9039737E-03 ( -22.31%)
   displ. norm   :     0.2168581 α      lambda       -0.8974837E-03
   maximum displ.:     0.1235228 α      in ANC's #1, #4, #9, ...

........................................................................
.............................. CYCLE    9 ..............................
........................................................................
   1    -40.9327839 -0.409328E+02  0.995E-02    3.21       0.0  T
   2    -40.9328386 -0.546589E-04  0.571E-02    3.22       1.0  T
   3    -40.9328421 -0.349367E-05  0.231E-02    3.22       1.0  T
   4    -40.9328422 -0.159999E-06  0.128E-02    3.22       1.5  T
   5    -40.9328448 -0.256011E-05  0.703E-03    3.22       2.7  T
   6    -40.9328451 -0.266988E-06  0.492E-03    3.22       3.8  T
   7    -40.9328453 -0.236866E-06  0.315E-03    3.22       6.0  T
   8    -40.9328454 -0.971339E-07  0.198E-03    3.22       9.5  T
   9    -40.9328455 -0.737690E-07  0.712E-04    3.22      26.6  T
  10    -40.9328455 -0.480883E-08  0.480E-04    3.22      39.4  T
     SCC iter.                  ...        0 min,  0.025 sec
     gradient                   ...        0 min,  0.003 sec
 * total energy  :   -40.2998179 Eh     change       -0.6029306E-03 Eh
   gradient norm :     0.0102990 Eh/α   predicted    -0.4698468E-03 ( -22.07%)
   displ. norm   :     0.1311122 α      lambda       -0.3517132E-03
   maximum displ.:     0.0875792 α      in ANC's #1, #2, #40, ...

........................................................................
.............................. CYCLE   10 ..............................
........................................................................
   1    -40.9337577 -0.409338E+02  0.576E-02    3.24       0.0  T
   2    -40.9337683 -0.105968E-04  0.346E-02    3.24       1.0  T
   3    -40.9337681  0.218147E-06  0.122E-02    3.24       1.5  T
   4    -40.9337690 -0.910766E-06  0.641E-03    3.24       2.9  T
   5    -40.9337697 -0.685542E-06  0.300E-03    3.24       6.3  T
   6    -40.9337697 -0.381913E-07  0.223E-03    3.24       8.5  T
   7    -40.9337698 -0.366350E-07  0.140E-03    3.24      13.5  T
   8    -40.9337698 -0.169129E-07  0.903E-04    3.24      20.9  T
   9    -40.9337698 -0.962623E-08  0.275E-04    3.24      68.7  T
     SCC iter.                  ...        0 min,  0.022 sec
     gradient                   ...        0 min,  0.003 sec
 * total energy  :   -40.3000496 Eh     change       -0.2316497E-03 Eh
   gradient norm :     0.0042630 Eh/α   predicted    -0.1788835E-03 ( -22.78%)
   displ. norm   :     0.0913207 α      lambda       -0.1238724E-03
   maximum displ.:     0.0600931 α      in ANC's #1, #2, #9, ...

........................................................................
.............................. CYCLE   11 ..............................
........................................................................
   1    -40.9339386 -0.409339E+02  0.376E-02    3.25       0.0  T
   2    -40.9339414 -0.282011E-05  0.224E-02    3.25       1.0  T
   3    -40.9339411  0.290940E-06  0.690E-03    3.25       2.7  T
   4    -40.9339417 -0.527879E-06  0.355E-03    3.25       5.3  T
   5    -40.9339419 -0.211229E-06  0.184E-03    3.25      10.3  T
   6    -40.9339419 -0.164830E-07  0.134E-03    3.25      14.1  T
   7    -40.9339419 -0.155165E-07  0.802E-04    3.25      23.6  T
   8    -40.9339419 -0.569298E-08  0.537E-04    3.25      35.2  T
     SCC iter.                  ...        0 min,  0.020 sec
     gradient                   ...        0 min,  0.004 sec
 * total energy  :   -40.3001350 Eh     change       -0.8545508E-04 Eh
   gradient norm :     0.0029173 Eh/α   predicted    -0.6245575E-04 ( -26.91%)
   displ. norm   :     0.0941260 α      lambda       -0.7224801E-04
   maximum displ.:     0.0599017 α      in ANC's #1, #2, #4, ...

........................................................................
.............................. CYCLE   12 ..............................
........................................................................
   1    -40.9336568 -0.409337E+02  0.316E-02    3.25       0.0  T
   2    -40.9336574 -0.678858E-06  0.187E-02    3.25       1.0  T
   3    -40.9336571  0.309857E-06  0.407E-03    3.25       4.6  T
   4    -40.9336575 -0.408218E-06  0.161E-03    3.25      11.7  T
   5    -40.9336576 -0.452779E-07  0.701E-04    3.25      27.0  T
   6    -40.9336576 -0.257719E-08  0.437E-04    3.25      43.3  T
     SCC iter.                  ...        0 min,  0.015 sec
     gradient                   ...        0 min,  0.003 sec
 * total energy  :   -40.3001870 Eh     change       -0.5196719E-04 Eh
   gradient norm :     0.0032252 Eh/α   predicted    -0.3645000E-04 ( -29.86%)
   displ. norm   :     0.1134304 α      lambda       -0.6078486E-04
   maximum displ.:     0.0695027 α      in ANC's #1, #4, #2, ...

........................................................................
.............................. CYCLE   13 ..............................
........................................................................
   1    -40.9335057 -0.409335E+02  0.340E-02    3.25       0.0  T
   2    -40.9335064 -0.763305E-06  0.199E-02    3.25       1.0  T
   3    -40.9335063  0.176449E-06  0.387E-03    3.25       4.9  T
   4    -40.9335065 -0.286349E-06  0.208E-03    3.25       9.1  T
   5    -40.9335066 -0.675145E-07  0.123E-03    3.25      15.3  T
   6    -40.9335066 -0.847072E-08  0.892E-04    3.25      21.2  T
   7    -40.9335066 -0.780139E-08  0.572E-04    3.25      33.0  T
     SCC iter.                  ...        0 min,  0.017 sec
     gradient                   ...        0 min,  0.004 sec
 * total energy  :   -40.3002314 Eh     change       -0.4439205E-04 Eh
   gradient norm :     0.0033809 Eh/α   predicted    -0.3078614E-04 ( -30.65%)
   displ. norm   :     0.1357380 α      lambda       -0.5696279E-04
   maximum displ.:     0.0869178 α      in ANC's #1, #2, #4, ...

........................................................................
.............................. CYCLE   14 ..............................
........................................................................
   1    -40.9332978 -0.409333E+02  0.370E-02    3.24       0.0  T
   2    -40.9332980 -0.220019E-06  0.217E-02    3.24       1.0  T
   3    -40.9332979  0.123194E-06  0.269E-03    3.24       7.0  T
   4    -40.9332981 -0.200571E-06  0.107E-03    3.24      17.7  T
   5    -40.9332981 -0.866230E-08  0.647E-04    3.24      29.2  T
   6    -40.9332981 -0.235762E-08  0.440E-04    3.24      42.9  T
     SCC iter.                  ...        0 min,  0.015 sec
     gradient                   ...        0 min,  0.003 sec
 * total energy  :   -40.3002728 Eh     change       -0.4139329E-04 Eh
   gradient norm :     0.0032397 Eh/α   predicted    -0.2900919E-04 ( -29.92%)
   displ. norm   :     0.1339860 α      lambda       -0.4829011E-04
   maximum displ.:     0.0853701 α      in ANC's #1, #2, #4, ...

........................................................................
.............................. CYCLE   15 ..............................
........................................................................
   1    -40.9334109 -0.409334E+02  0.357E-02    3.24       0.0  T
   2    -40.9334112 -0.394558E-06  0.208E-02    3.24       1.0  T
   3    -40.9334113 -0.398065E-07  0.238E-03    3.24       7.9  T
   4    -40.9334113 -0.449380E-07  0.168E-03    3.24      11.2  T
   5    -40.9334114 -0.352596E-07  0.114E-03    3.24      16.6  T
   6    -40.9334114 -0.743696E-08  0.790E-04    3.24      23.9  T
   7    -40.9334114 -0.676408E-08  0.449E-04    3.24      42.1  T
     SCC iter.                  ...        0 min,  0.017 sec
     gradient                   ...        0 min,  0.004 sec
 * total energy  :   -40.3003085 Eh     change       -0.3571706E-04 Eh
   gradient norm :     0.0028214 Eh/α   predicted    -0.2458050E-04 ( -31.18%)
   displ. norm   :     0.1385200 α      lambda       -0.4284148E-04
   maximum displ.:     0.0916179 α      in ANC's #1, #2, #4, ...

........................................................................
.............................. CYCLE   16 ..............................
........................................................................
   1    -40.9335792 -0.409336E+02  0.372E-02    3.24       0.0  T
   2    -40.9335795 -0.249284E-06  0.220E-02    3.24       1.0  T
   3    -40.9335795  0.194327E-08  0.333E-03    3.24       5.7  T
   4    -40.9335797 -0.173172E-06  0.229E-03    3.24       8.3  T
   5    -40.9335797 -0.216384E-07  0.180E-03    3.24      10.5  T
   6    -40.9335797 -0.359825E-07  0.887E-04    3.24      21.3  T
   7    -40.9335797 -0.705159E-08  0.499E-04    3.24      37.9  T
     SCC iter.                  ...        0 min,  0.018 sec
     gradient                   ...        0 min,  0.003 sec
 * total energy  :   -40.3003394 Eh     change       -0.3094743E-04 Eh
   gradient norm :     0.0023476 Eh/α   predicted    -0.2183469E-04 ( -29.45%)
   displ. norm   :     0.1068586 α      lambda       -0.2930496E-04
   maximum displ.:     0.0700478 α      in ANC's #1, #2, #4, ...

........................................................................
.............................. CYCLE   17 ..............................
........................................................................
   1    -40.9337285 -0.409337E+02  0.293E-02    3.24       0.0  T
   2    -40.9337287 -0.199999E-06  0.173E-02    3.24       1.1  T
   3    -40.9337287  0.252424E-08  0.261E-03    3.24       7.2  T
   4    -40.9337288 -0.108469E-06  0.176E-03    3.24      10.8  T
   5    -40.9337289 -0.139853E-07  0.137E-03    3.24      13.8  T
   6    -40.9337289 -0.169695E-07  0.760E-04    3.24      24.9  T
   7    -40.9337289 -0.541015E-08  0.393E-04    3.24      48.1  T
     SCC iter.                  ...        0 min,  0.018 sec
     gradient                   ...        0 min,  0.003 sec
 * total energy  :   -40.3003616 Eh     change       -0.2213341E-04 Eh
   gradient norm :     0.0019183 Eh/α   predicted    -0.1482931E-04 ( -33.00%)
   displ. norm   :     0.1616381 α      lambda       -0.2569794E-04
   maximum displ.:     0.1066344 α      in ANC's #1, #2, #4, ...

........................................................................
.............................. CYCLE   18 ..............................
........................................................................
   1    -40.9339597 -0.409340E+02  0.458E-02    3.24       0.0  T
   2    -40.9339604 -0.648138E-06  0.271E-02    3.24       1.0  T
   3    -40.9339604 -0.642041E-07  0.480E-03    3.24       3.9  T
   4    -40.9339607 -0.296911E-06  0.327E-03    3.24       5.8  T
   5    -40.9339608 -0.449416E-07  0.248E-03    3.24       7.6  T
   6    -40.9339608 -0.602873E-07  0.146E-03    3.24      12.9  T
   7    -40.9339609 -0.277444E-07  0.707E-04    3.24      26.7  T
   8    -40.9339609 -0.481501E-08  0.394E-04    3.24      48.0  T
     SCC iter.                  ...        0 min,  0.020 sec
     gradient                   ...        0 min,  0.004 sec
 * total energy  :   -40.3003857 Eh     change       -0.2409718E-04 Eh
   gradient norm :     0.0024070 Eh/α   predicted    -0.1300680E-04 ( -46.02%)
   displ. norm   :     0.0597868 α      lambda       -0.1515837E-04
   maximum displ.:     0.0401480 α      in ANC's #1, #2, #3, ...

........................................................................
.............................. CYCLE   19 ..............................
........................................................................
   1    -40.9338069 -0.409338E+02  0.170E-02    3.24       0.0  T
   2    -40.9338070 -0.615824E-07  0.994E-03    3.24       1.9  T
   3    -40.9338070  0.415380E-08  0.140E-03    3.24      13.5  T
   4    -40.9338070 -0.295201E-07  0.817E-04    3.24      23.1  T
   5    -40.9338070 -0.376722E-08  0.623E-04    3.24      30.4  T
     SCC iter.                  ...        0 min,  0.013 sec
     gradient                   ...        0 min,  0.003 sec
 * total energy  :   -40.3003988 Eh     change       -0.1309078E-04 Eh
   gradient norm :     0.0021982 Eh/α   predicted    -0.7611719E-05 ( -41.85%)
   displ. norm   :     0.1480399 α      lambda       -0.4070316E-04
   maximum displ.:     0.0973282 α      in ANC's #1, #2, #6, ...

........................................................................
.............................. CYCLE   20 ..............................
........................................................................
   1    -40.9339281 -0.409339E+02  0.427E-02    3.25       0.0  T
   2    -40.9339286 -0.495355E-06  0.250E-02    3.25       1.0  T
   3    -40.9339284  0.168868E-06  0.446E-03    3.25       4.2  T
   4    -40.9339288 -0.374562E-06  0.234E-03    3.25       8.1  T
   5    -40.9339288 -0.332508E-07  0.175E-03    3.25      10.8  T
   6    -40.9339289 -0.235844E-07  0.110E-03    3.25      17.1  T
   7    -40.9339289 -0.152345E-07  0.514E-04    3.25      36.8  T
   8    -40.9339289 -0.216924E-08  0.288E-04    3.25      65.6  T
     SCC iter.                  ...        0 min,  0.020 sec
     gradient                   ...        0 min,  0.003 sec
 * total energy  :   -40.3004288 Eh     change       -0.3000592E-04 Eh
   gradient norm :     0.0020994 Eh/α   predicted    -0.2080112E-04 ( -30.68%)
   displ. norm   :     0.1579728 α      lambda       -0.2938169E-04
   maximum displ.:     0.1087018 α      in ANC's #1, #2, #4, ...
 * RMSD in coord.:     0.5443918 α      energy gain  -0.2648339E-01 Eh

generating ANC from model Hessian ...
Using Lindh-Hessian (1995)
 Shifting diagonal of input Hessian by    1.0075789488813030E-002
 Lowest  eigenvalues of input Hessian
    0.010000    0.000000    0.000000    0.000000    0.000000    0.000000
    0.000000    0.010925    0.011219    0.012059    0.014930    0.016187
    0.016345    0.017353    0.020057    0.020748    0.023806    0.026980
 Highest eigenvalues
    1.781073    1.825042    1.893704    1.971256    2.031464    2.125203


........................................................................
.............................. CYCLE   21 ..............................
........................................................................
   1    -40.9335288 -0.409335E+02  0.448E-02    3.25       0.0  T
   2    -40.9335293 -0.547893E-06  0.263E-02    3.25       1.0  T
   3    -40.9335292  0.134279E-06  0.461E-03    3.25       4.1  T
   4    -40.9335296 -0.371824E-06  0.268E-03    3.25       7.1  T
   5    -40.9335296 -0.480855E-07  0.200E-03    3.25       9.4  T
   6    -40.9335296 -0.318888E-07  0.120E-03    3.25      15.8  T
   7    -40.9335296 -0.193092E-07  0.552E-04    3.25      34.2  T
   8    -40.9335297 -0.239907E-08  0.317E-04    3.25      59.7  T
     SCC iter.                  ...        0 min,  0.028 sec
     gradient                   ...        0 min,  0.004 sec
 * total energy  :   -40.3004511 Eh     change       -0.2233539E-04 Eh
   gradient norm :     0.0022208 Eh/α   predicted     0.0000000E+00 (-100.00%)
   displ. norm   :     0.0271975 α      lambda       -0.2013939E-04
   maximum displ.:     0.0149128 α      in ANC's #1, #4, #5, ...

........................................................................
.............................. CYCLE   22 ..............................
........................................................................
   1    -40.9338378 -0.409338E+02  0.912E-03    3.25       0.0  T
   2    -40.9338379 -0.680651E-07  0.544E-03    3.25       3.5  T
   3    -40.9338379  0.272570E-07  0.167E-03    3.25      11.3  T
   4    -40.9338379 -0.460023E-07  0.855E-04    3.25      22.1  T
   5    -40.9338379 -0.719549E-08  0.631E-04    3.25      29.9  T
     SCC iter.                  ...        0 min,  0.013 sec
     gradient                   ...        0 min,  0.004 sec
 * total energy  :   -40.3004661 Eh     change       -0.1504233E-04 Eh
   gradient norm :     0.0010461 Eh/α   predicted    -0.1010709E-04 ( -32.81%)
   displ. norm   :     0.0881130 α      lambda       -0.2210972E-04
   maximum displ.:     0.0710873 α      in ANC's #1, #10, #4, ...

........................................................................
.............................. CYCLE   23 ..............................
........................................................................
   1    -40.9341989 -0.409342E+02  0.297E-02    3.24       0.0  T
   2    -40.9341993 -0.402295E-06  0.180E-02    3.24       1.1  T
   3    -40.9341993  0.167281E-07  0.543E-03    3.24       3.5  T
   4    -40.9341997 -0.385765E-06  0.379E-03    3.24       5.0  T
   5    -40.9341997 -0.747304E-07  0.291E-03    3.24       6.5  T
   6    -40.9341998 -0.880476E-07  0.788E-04    3.24      24.0  T
   7    -40.9341998 -0.635481E-08  0.385E-04    3.24      49.0  T
     SCC iter.                  ...        0 min,  0.018 sec
     gradient                   ...        0 min,  0.004 sec
 * total energy  :   -40.3004791 Eh     change       -0.1296036E-04 Eh
   gradient norm :     0.0017098 Eh/α   predicted    -0.1109316E-04 ( -14.41%)
   displ. norm   :     0.0402303 α      lambda       -0.9865807E-05
   maximum displ.:     0.0200207 α      in ANC's #1, #4, #5, ...

........................................................................
.............................. CYCLE   24 ..............................
........................................................................
   1    -40.9339614 -0.409340E+02  0.124E-02    3.24       0.0  T
   2    -40.9339615 -0.469079E-07  0.741E-03    3.24       2.6  T
   3    -40.9339614  0.617253E-07  0.228E-03    3.24       8.3  T
   4    -40.9339615 -0.113050E-06  0.121E-03    3.24      15.7  T
   5    -40.9339615 -0.844096E-08  0.773E-04    3.24      24.5  T
   6    -40.9339615 -0.609056E-08  0.280E-04    3.24      67.4  T
     SCC iter.                  ...        0 min,  0.015 sec
     gradient                   ...        0 min,  0.003 sec
 * total energy  :   -40.3004880 Eh     change       -0.8949174E-05 Eh
   gradient norm :     0.0011723 Eh/α   predicted    -0.4937582E-05 ( -44.83%)
   displ. norm   :     0.0652777 α      lambda       -0.1137380E-04
   maximum displ.:     0.0503521 α      in ANC's #1, #2, #4, ...

........................................................................
.............................. CYCLE   25 ..............................
........................................................................
   1    -40.9336511 -0.409337E+02  0.186E-02    3.24       0.0  T
   2    -40.9336512 -0.105325E-06  0.112E-02    3.24       1.7  T
   3    -40.9336512 -0.214860E-07  0.270E-03    3.24       7.0  T
   4    -40.9336513 -0.844164E-07  0.202E-03    3.24       9.3  T
   5    -40.9336513 -0.215257E-07  0.148E-03    3.24      12.8  T
   6    -40.9336513 -0.238381E-07  0.470E-04    3.24      40.2  T
   7    -40.9336513 -0.198519E-08  0.244E-04    3.24      77.5  T
     SCC iter.                  ...        0 min,  0.018 sec
     gradient                   ...        0 min,  0.003 sec
 * total energy  :   -40.3005002 Eh     change       -0.1216268E-04 Eh
   gradient norm :     0.0009103 Eh/α   predicted    -0.5698398E-05 ( -53.15%)
   displ. norm   :     0.1409593 α      lambda       -0.1326801E-04
   maximum displ.:     0.1071164 α      in ANC's #1, #2, #4, ...

........................................................................
.............................. CYCLE   26 ..............................
........................................................................
   1    -40.9334750 -0.409335E+02  0.375E-02    3.24       0.0  T
   2    -40.9334753 -0.282784E-06  0.225E-02    3.24       1.0  T
   3    -40.9334753  0.413653E-07  0.532E-03    3.24       3.6  T
   4    -40.9334757 -0.421725E-06  0.375E-03    3.24       5.0  T
   5    -40.9334758 -0.832419E-07  0.221E-03    3.24       8.5  T
   6    -40.9334759 -0.661622E-07  0.639E-04    3.24      29.6  T
   7    -40.9334759 -0.168463E-08  0.338E-04    3.24      56.0  T
     SCC iter.                  ...        0 min,  0.018 sec
     gradient                   ...        0 min,  0.003 sec
 * total energy  :   -40.3005150 Eh     change       -0.1476871E-04 Eh
   gradient norm :     0.0013652 Eh/α   predicted    -0.6694683E-05 ( -54.67%)
   displ. norm   :     0.1638153 α      lambda       -0.1295240E-04
   maximum displ.:     0.1182732 α      in ANC's #1, #2, #4, ...

........................................................................
.............................. CYCLE   27 ..............................
........................................................................
   1    -40.9334872 -0.409335E+02  0.448E-02    3.24       0.0  T
   2    -40.9334876 -0.417652E-06  0.269E-02    3.24       1.0  T
   3    -40.9334875  0.100539E-06  0.630E-03    3.24       3.0  T
   4    -40.9334881 -0.626479E-06  0.436E-03    3.24       4.3  T
   5    -40.9334882 -0.937754E-07  0.289E-03    3.24       6.5  T
   6    -40.9334883 -0.106219E-06  0.856E-04    3.24      22.1  T
   7    -40.9334883 -0.488138E-08  0.458E-04    3.24      41.2  T
     SCC iter.                  ...        0 min,  0.018 sec
     gradient                   ...        0 min,  0.003 sec
 * total energy  :   -40.3005296 Eh     change       -0.1466499E-04 Eh
   gradient norm :     0.0011943 Eh/α   predicted    -0.6557661E-05 ( -55.28%)
   displ. norm   :     0.1759940 α      lambda       -0.1270314E-04
   maximum displ.:     0.1143497 α      in ANC's #1, #2, #4, ...

........................................................................
.............................. CYCLE   28 ..............................
........................................................................
   1    -40.9336014 -0.409336E+02  0.492E-02    3.24       0.0  T
   2    -40.9336018 -0.436438E-06  0.292E-02    3.24       1.0  T
   3    -40.9336016  0.243213E-06  0.631E-03    3.24       3.0  T
   4    -40.9336023 -0.734058E-06  0.404E-03    3.24       4.7  T
   5    -40.9336024 -0.660208E-07  0.288E-03    3.24       6.6  T
   6    -40.9336025 -0.100304E-06  0.964E-04    3.24      19.6  T
   7    -40.9336025 -0.669708E-08  0.522E-04    3.24      36.2  T
     SCC iter.                  ...        0 min,  0.018 sec
     gradient                   ...        0 min,  0.003 sec
 * total energy  :   -40.3005436 Eh     change       -0.1399422E-04 Eh
   gradient norm :     0.0008174 Eh/α   predicted    -0.6443370E-05 ( -53.96%)
   displ. norm   :     0.0979334 α      lambda       -0.8025210E-05
   maximum displ.:     0.0654575 α      in ANC's #2, #1, #4, ...

........................................................................
.............................. CYCLE   29 ..............................
........................................................................
   1    -40.9339682 -0.409340E+02  0.285E-02    3.24       0.0  T
   2    -40.9339683 -0.116883E-06  0.168E-02    3.24       1.1  T
   3    -40.9339681  0.123839E-06  0.314E-03    3.24       6.0  T
   4    -40.9339684 -0.224301E-06  0.159E-03    3.24      11.9  T
   5    -40.9339684 -0.974951E-08  0.112E-03    3.24      16.8  T
   6    -40.9339684 -0.136341E-07  0.514E-04    3.24      36.8  T
   7    -40.9339684 -0.154307E-08  0.292E-04    3.24      64.8  T
     SCC iter.                  ...        0 min,  0.018 sec
     gradient                   ...        0 min,  0.003 sec
 * total energy  :   -40.3005529 Eh     change       -0.9298542E-05 Eh
   gradient norm :     0.0005813 Eh/α   predicted    -0.4029997E-05 ( -56.66%)
   displ. norm   :     0.0624889 α      lambda       -0.5089528E-05
   maximum displ.:     0.0463171 α      in ANC's #2, #4, #1, ...

........................................................................
.............................. CYCLE   30 ..............................
........................................................................
   1    -40.9340265 -0.409340E+02  0.183E-02    3.24       0.0  T
   2    -40.9340265 -0.560021E-07  0.107E-02    3.24       1.8  T
   3    -40.9340264  0.610884E-07  0.185E-03    3.24      10.2  T
   4    -40.9340265 -0.847493E-07  0.584E-04    3.24      32.4  T
   5    -40.9340265 -0.199297E-08  0.422E-04    3.24      44.8  T
     SCC iter.                  ...        0 min,  0.013 sec
     gradient                   ...        0 min,  0.003 sec
 * total energy  :   -40.3005592 Eh     change       -0.6243466E-05 Eh
   gradient norm :     0.0004945 Eh/α   predicted    -0.2550858E-05 ( -59.14%)
   displ. norm   :     0.0464364 α      lambda       -0.3832462E-05
   maximum displ.:     0.0357507 α      in ANC's #2, #4, #5, ...

........................................................................
.............................. CYCLE   31 ..............................
........................................................................
   1    -40.9340991 -0.409341E+02  0.127E-02    3.24       0.0  T
   2    -40.9340992 -0.416385E-07  0.743E-03    3.24       2.5  T
   3    -40.9340992  0.178005E-07  0.121E-03    3.24      15.6  T
   4    -40.9340992 -0.301421E-07  0.541E-04    3.24      35.0  T
   5    -40.9340992 -0.259132E-08  0.378E-04    3.24      50.0  T
     SCC iter.                  ...        0 min,  0.013 sec
     gradient                   ...        0 min,  0.003 sec
 * total energy  :   -40.3005639 Eh     change       -0.4681312E-05 Eh
   gradient norm :     0.0004658 Eh/α   predicted    -0.1919138E-05 ( -59.00%)
   displ. norm   :     0.0444169 α      lambda       -0.3141730E-05
   maximum displ.:     0.0343386 α      in ANC's #2, #4, #5, ...

   *** GEOMETRY OPTIMIZATION CONVERGED AFTER 31 ITERATIONS ***

------------------------------------------------------------------------
 total energy gain   :        -0.0266185 Eh      -16.7034 kcal/mol
 total RMSD          :         0.6348093 a0        0.3359 Å
 total power (kW/mol):        -2.2544143 (step)  -83.5554 (real)
------------------------------------------------------------------------

 ANCopt (total)                0 d,  0 h,  0 min,  0.836 sec
 optimizer setup                ...        0 min,  0.000 sec (  0.018%)
 model hessian                  ...        0 min,  0.024 sec (  2.889%)
 ANC generation                 ...        0 min,  0.017 sec (  2.054%)
 coordinate transformation      ...        0 min,  0.001 sec (  0.073%)
 single point calculation       ...        0 min,  0.780 sec ( 93.232%)
 optimization log               ...        0 min,  0.006 sec (  0.705%)
 hessian update                 ...        0 min,  0.001 sec (  0.088%)
 rational function              ...        0 min,  0.005 sec (  0.539%)

================
 final structure:
================
28
 xtb: 6.5.1 (fef0646)
N            0.98581682802508        0.04794858231783        0.22657671608753
C            2.39401935523950        0.26004689252455       -0.14578070850688
C            3.27926864489295       -0.13139413033344        1.03696575392263
C            2.73514506559020       -0.55615087277454       -1.36913786582888
C            2.45703981825816       -1.93782676912237       -1.39585611655216
C            2.77237456377319       -2.68728390212951       -2.49256105540944
C            3.32570912295129        0.03265207702604       -2.45617404342682
C            3.66402262132543       -0.71429090692429       -3.60315435292511
C            3.38196605350084       -2.10457941160406       -3.62350607302486
C            3.71692773587418       -2.85264189869236       -4.77082195102997
C            4.30125634942186       -2.25110691266973       -5.85010474111029
C            4.57798047524126       -0.87500744116847       -5.83091339698273
C            4.26768613787881       -0.12331281691153       -4.73250193172904
Cl           0.36710856547709       -2.41617064633878        1.66536718035812
H            0.68679476978976        0.74405853877046        0.90103852808421
H            0.70604539106248       -1.26470397785992        0.95818401220888
H            0.38353069151954        0.09360573636178       -0.58827213404427
H            2.57216609302922        1.32207089311001       -0.38204761164457
H            3.11785605044011       -1.17345981421726        1.29318053835327
H            3.04341158223580        0.47996466396749        1.90455213029041
H            4.32528186587840        0.01224997589756        0.78071841497202
H            1.98707799516042       -2.39575576069195       -0.54076304736967
H            2.55658570386397       -3.74581002799503       -2.50806004202183
H            3.54616403552090        1.09208674404435       -2.45070064704744
H            3.50192866792531       -3.91170632466314       -4.78013134239364
H            4.55486444056803       -2.82963399327433       -6.72641401247915
H            5.03863352189999       -0.41575945384292       -6.69342348551630
H            4.47969785365876        0.93654095719120       -4.71407871523029

 Bond Distances (Angstroems)
 ---------------------------
N1-C2=1.4720         N1-H15=1.0143        N1-H17=1.0143        C2-N1=1.4720         C2-C3=1.5283         C2-C4=1.5097         
C2-H18=1.1025        C3-C2=1.5283         C3-H19=1.0852        C3-H20=1.0872        C3-H21=1.0865        C4-C2=1.5097         
C4-C5=1.4096         C4-C7=1.3701         C5-C4=1.4096         C5-C6=1.3652         C5-H22=1.0778        C6-C5=1.3652         
C6-C9=1.4107         C6-H23=1.0804        C7-C4=1.3701         C7-C8=1.4099         C7-H24=1.0821        C8-C7=1.4099         
C8-C9=1.4188         C8-C13=1.4104        C9-C6=1.4107         C9-C8=1.4188         C9-C10=1.4100        C10-C9=1.4100        
C10-C11=1.3668       C10-H25=1.0807       C11-C10=1.3668       C11-C12=1.4038       C11-H26=1.0802       C12-C11=1.4038       
C12-C13=1.3667       C12-H27=1.0803       C13-C8=1.4104        C13-C12=1.3667       C13-H28=1.0810       Cl14-H16=1.3931      
H15-N1=1.0143        H16-Cl14=1.3931      H17-N1=1.0143        H18-C2=1.1025        H19-C3=1.0852        H20-C3=1.0872        
H21-C3=1.0865        H22-C5=1.0778        H23-C6=1.0804        H24-C7=1.0821        H25-C10=1.0807       H26-C11=1.0802       
H27-C12=1.0803       H28-C13=1.0810       
 C  H  Rav=1.0840 sigma=0.0065  Rmin=1.0778  Rmax=1.1025    11
 C  C  Rav=1.4138 sigma=0.0490  Rmin=1.3652  Rmax=1.5283    13
 N  H  Rav=1.0143 sigma=0.0000  Rmin=1.0143  Rmax=1.0143     2
 N  C  Rav=1.4720 sigma=0.0000  Rmin=1.4720  Rmax=1.4720     1
 Cl H  Rav=1.3931 sigma=0.0000  Rmin=1.3931  Rmax=1.3931     1

 selected bond angles (degree)
 --------------------
H15-N1-C2=110.57               H17-N1-C2=111.00               H17-N1-H15=109.16              C3-C2-N1=108.75                
C4-C2-N1=110.08                C4-C2-C3=110.96                H18-C2-N1=110.34               H18-C2-C3=108.60               
H18-C2-C4=108.10               H19-C3-C2=110.03               H20-C3-C2=110.36               H20-C3-H19=108.62              
H21-C3-C2=109.95               H21-C3-H19=109.02              H21-C3-H20=108.83              C5-C4-C2=120.05                
C7-C4-C2=120.53                C7-C4-C5=119.42                C6-C5-C4=120.51                H22-C5-C4=119.17               
H22-C5-C6=120.32               C9-C6-C5=121.13                H23-C6-C5=120.21               H23-C6-C9=118.65               
C8-C7-C4=121.41                H24-C7-C4=120.30               H24-C7-C8=118.29               C9-C8-C7=118.89                
C13-C8-C7=122.15               C13-C8-C9=118.96               C8-C9-C6=118.63                C10-C9-C6=122.40               
C10-C9-C8=118.97               C11-C10-C9=120.70              H25-C10-C9=118.66              H25-C10-C11=120.63             

 selected dihedral angles (degree)
 ---------------------------------
C3-C2-N1-H15= 71.52           C3-C2-N1-H17=192.83           C4-C2-N1-H15=193.28           C4-C2-N1-H17=314.58           
H18-C2-N1-H15=312.50          H18-C2-N1-H17= 73.81          H19-C3-C2-N1= 59.58           H19-C3-C2-C4=298.36           
H19-C3-C2-H18=179.68          H20-C3-C2-N1=299.73           H20-C3-C2-C4=178.51           H20-C3-C2-H18= 59.83          
H21-C3-C2-N1=179.67           H21-C3-C2-C4= 58.45           H21-C3-C2-H18=299.77          C5-C4-C2-N1=307.69            
C5-C4-C2-C3= 68.12            C5-C4-C2-H18=187.10           C7-C4-C2-N1=128.23            C7-C4-C2-C3=248.66            
C7-C4-C2-H18=  7.65           C6-C5-C4-C2=180.58            C6-C5-C4-C7=  0.05            H22-C5-C4-C2=  0.89           
H22-C5-C4-C7=180.36           C9-C6-C5-C4=  0.00            C9-C6-C5-H22=179.70           H23-C6-C5-C4=180.03           
H23-C6-C5-H22=359.72          C8-C7-C4-C2=179.38            C8-C7-C4-C5=359.92            H24-C7-C4-C2=359.50           
H24-C7-C4-C5=180.04           C9-C8-C7-C4=  0.06            C9-C8-C7-H24=179.94           C13-C8-C7-C4=179.76           
C13-C8-C7-H24=359.64          C8-C9-C6-C5=359.96            C8-C9-C6-H23=179.94           C10-C9-C6-C5=180.11           
C10-C9-C6-H23=  0.09          C6-C9-C8-C7=  0.00            C6-C9-C8-C13=180.29           C10-C9-C8-C7=179.86           
C10-C9-C8-C13=  0.15          C11-C10-C9-C6=179.69          C11-C10-C9-C8=359.83          H25-C10-C9-C6=359.72          
H25-C10-C9-C8=179.86          

 CMA Distance (Angstroems)
 ---------------------------
R(CMA):  5.2674
           -------------------------------------------------
          |                Final Singlepoint                |
           -------------------------------------------------

          ...................................................
          :                      SETUP                      :
          :.................................................:
          :  # basis functions                  76          :
          :  # atomic orbitals                  75          :
          :  # shells                           43          :
          :  # electrons                        74          :
          :  max. iterations                   250          :
          :  Hamiltonian                  GFN2-xTB          :
          :  restarted?                      false          :
          :  GBSA solvation                  false          :
          :  PC potential                    false          :
          :  electronic temp.          300.0000000     K    :
          :  accuracy                    1.0000000          :
          :  -> integral cutoff          0.2500000E+02      :
          :  -> integral neglect         0.1000000E-07      :
          :  -> SCF convergence          0.1000000E-05 Eh   :
          :  -> wf. convergence          0.1000000E-03 e    :
          :  Broyden damping             0.4000000          :
          ...................................................

 iter      E             dE          RMSdq      gap      omega  full diag
   1    -40.9340992 -0.409341E+02  0.265E-04    3.24       0.0  T
   2    -40.9340992 -0.286860E-09  0.224E-04    3.24      84.2  T
   3    -40.9340992 -0.346091E-09  0.183E-04    3.24     103.2  T

   *** convergence criteria satisfied after 3 iterations ***

         #    Occupation            Energy/Eh            Energy/eV
      -------------------------------------------------------------
         1        2.0000           -1.0163059             -27.6551
       ...           ...                  ...                  ...
        31        2.0000           -0.4200799             -11.4310
        32        2.0000           -0.4169687             -11.3463
        33        2.0000           -0.4016310             -10.9289
        34        2.0000           -0.3974989             -10.8165
        35        2.0000           -0.3930215             -10.6947
        36        2.0000           -0.3924126             -10.6781
        37        2.0000           -0.3817912             -10.3891 (HOMO)
        38                         -0.2626373              -7.1467 (LUMO)
        39                         -0.2321419              -6.3169
        40                         -0.1918781              -5.2213
        41                         -0.1502970              -4.0898
        42                         -0.0624365              -1.6990
       ...                                ...                  ...
        75                          0.6935040              18.8712
      -------------------------------------------------------------
                  HL-Gap            0.1191539 Eh            3.2423 eV
             Fermi-level           -0.3222142 Eh           -8.7679 eV

 SCC (total)                   0 d,  0 h,  0 min,  0.013 sec
 SCC setup                      ...        0 min,  0.000 sec (  0.836%)
 Dispersion                     ...        0 min,  0.000 sec (  1.570%)
 classical contributions        ...        0 min,  0.000 sec (  0.219%)
 integral evaluation            ...        0 min,  0.001 sec (  8.353%)
 iterations                     ...        0 min,  0.008 sec ( 60.236%)
 molecular gradient             ...        0 min,  0.003 sec ( 26.005%)
 printout                       ...        0 min,  0.000 sec (  1.996%)

         :::::::::::::::::::::::::::::::::::::::::::::::::::::
         ::                     SUMMARY                     ::
         :::::::::::::::::::::::::::::::::::::::::::::::::::::
         :: total energy             -40.300563858825 Eh    ::
         :: gradient norm              0.000465982651 Eh/a0 ::
         :: HOMO-LUMO gap              3.242343811973 eV    ::
         ::.................................................::
         :: SCC energy               -40.934099197039 Eh    ::
         :: -> isotropic ES            0.029568555456 Eh    ::
         :: -> anisotropic ES         -0.004713650735 Eh    ::
         :: -> anisotropic XC          0.018868223387 Eh    ::
         :: -> dispersion             -0.027714251890 Eh    ::
         :: repulsion energy           0.633502260463 Eh    ::
         :: add. restraining           0.000000000000 Eh    ::
         :: total charge              -0.000000000000 e     ::
         :::::::::::::::::::::::::::::::::::::::::::::::::::::

           -------------------------------------------------
          |                Property Printout                |
           -------------------------------------------------

    * Orbital Energies and Occupations

         #    Occupation            Energy/Eh            Energy/eV
      -------------------------------------------------------------
         1        2.0000           -1.0163059             -27.6551
       ...           ...                  ...                  ...
        25        2.0000           -0.4697538             -12.7827
        26        2.0000           -0.4649216             -12.6512
        27        2.0000           -0.4585152             -12.4768
        28        2.0000           -0.4510691             -12.2742
        29        2.0000           -0.4413145             -12.0088
        30        2.0000           -0.4287603             -11.6672
        31        2.0000           -0.4200799             -11.4310
        32        2.0000           -0.4169687             -11.3463
        33        2.0000           -0.4016310             -10.9289
        34        2.0000           -0.3974989             -10.8165
        35        2.0000           -0.3930215             -10.6947
        36        2.0000           -0.3924126             -10.6781
        37        2.0000           -0.3817912             -10.3891 (HOMO)
        38                         -0.2626373              -7.1467 (LUMO)
        39                         -0.2321419              -6.3169
        40                         -0.1918781              -5.2213
        41                         -0.1502970              -4.0898
        42                         -0.0624365              -1.6990
        43                         -0.0528521              -1.4382
        44                          0.0194318               0.5288
        45                          0.0682791               1.8580
        46                          0.0696532               1.8954
        47                          0.0727922               1.9808
        48                          0.0751115               2.0439
       ...                                ...                  ...
        75                          0.6935040              18.8712
      -------------------------------------------------------------
                  HL-Gap            0.1191539 Eh            3.2423 eV
             Fermi-level           -0.3222142 Eh           -8.7679 eV

     #   Z          covCN         q      C6AA      α(0)
     1   7 N        2.733    -0.300    27.719     7.819
     2   6 C        3.786     0.048    19.776     6.334
     3   6 C        3.757    -0.122    22.887     6.821
     4   6 C        2.970    -0.002    28.063     8.689
     5   6 C        2.918    -0.041    29.025     8.835
     6   6 C        2.917    -0.034    28.850     8.808
     7   6 C        2.923    -0.046    29.145     8.853
     8   6 C        2.986     0.012    27.738     8.639
     9   6 C        2.987     0.012    27.743     8.640
    10   6 C        2.918    -0.034    28.853     8.808
    11   6 C        2.916    -0.030    28.745     8.792
    12   6 C        2.916    -0.030    28.744     8.792
    13   6 C        2.918    -0.036    28.887     8.814
    14  17 Cl       0.834    -0.505   115.843    16.465
    15   1 H        0.860     0.169     1.278     1.771
    16   1 H        0.932     0.332     0.620     1.231
    17   1 H        0.860     0.168     1.287     1.777
    18   1 H        0.923     0.022     2.706     2.573
    19   1 H        0.925     0.070     2.090     2.261
    20   1 H        0.925     0.047     2.361     2.403
    21   1 H        0.925     0.048     2.344     2.394
    22   1 H        0.926     0.063     2.164     2.300
    23   1 H        0.926     0.038     2.480     2.463
    24   1 H        0.925     0.027     2.632     2.537
    25   1 H        0.926     0.033     2.543     2.494
    26   1 H        0.926     0.031     2.575     2.509
    27   1 H        0.926     0.030     2.583     2.513
    28   1 H        0.926     0.030     2.589     2.516

 Mol. C6AA /au·bohr⁶  :       9786.238622
 Mol. C8AA /au·bohr⁸  :     251530.922457
 Mol. α(0) /au        :        156.852311


Wiberg/Mayer (AO) data.
largest (>0.10) Wiberg bond orders for each atom

 ---------------------------------------------------------------------------
     #   Z sym  total        # sym  WBO       # sym  WBO       # sym  WBO
 ---------------------------------------------------------------------------
     1   7 N    3.264 --     2 C    0.981    17 H    0.957    15 H    0.957
                            16 H    0.233
     2   6 C    3.971 --     3 C    0.996     4 C    0.994     1 N    0.981
                            18 H    0.963
     3   6 C    3.989 --     2 C    0.996    21 H    0.984    20 H    0.984
                            19 H    0.981
     4   6 C    3.987 --     7 C    1.533     5 C    1.292     2 C    0.994
     5   6 C    3.989 --     6 C    1.566     4 C    1.292    22 H    0.961
     6   6 C    3.992 --     5 C    1.566     9 C    1.276    23 H    0.968
                             7 C    0.114
     7   6 C    3.991 --     4 C    1.533     8 C    1.279    24 H    0.966
                             6 C    0.114
     8   6 C    3.990 --    13 C    1.280     7 C    1.279     9 C    1.252
     9   6 C    3.990 --    10 C    1.282     6 C    1.276     8 C    1.252
    10   6 C    3.992 --    11 C    1.556     9 C    1.282    25 H    0.968
                            13 C    0.118
    11   6 C    3.990 --    10 C    1.556    12 C    1.322    26 H    0.971
    12   6 C    3.992 --    13 C    1.557    11 C    1.322    27 H    0.971
    13   6 C    3.990 --    12 C    1.557     8 C    1.280    28 H    0.969
                            10 C    0.118
    14  17 Cl   0.751 --    16 H    0.648
    15   1 H    0.971 --     1 N    0.957
    16   1 H    0.890 --    14 Cl   0.648     1 N    0.233
    17   1 H    0.972 --     1 N    0.957
    18   1 H    0.999 --     2 C    0.963
    19   1 H    0.995 --     3 C    0.981
    20   1 H    0.997 --     3 C    0.984
    21   1 H    0.998 --     3 C    0.984
    22   1 H    0.996 --     5 C    0.961
    23   1 H    0.998 --     6 C    0.968
    24   1 H    0.999 --     7 C    0.966
    25   1 H    0.998 --    10 C    0.968
    26   1 H    0.999 --    11 C    0.971
    27   1 H    0.999 --    12 C    0.971
    28   1 H    0.999 --    13 C    0.969
 ---------------------------------------------------------------------------

Topologies differ in total number of bonds
Writing topology from bond orders to xtbtopo.mol

molecular dipole:
                 x           y           z       tot (Debye)
 q only:        0.603       1.501      -0.967
   full:        0.361       1.485      -0.827       4.417
molecular quadrupole (traceless):
                xx          xy          yy          xz          yz          zz
 q only:        6.717      -0.106      -6.701      -0.974      10.404      -0.016
  q+dip:       -1.102       3.437      -0.603      -5.126       7.905       1.705
   full:        2.197       2.347      -2.766      -2.875       7.423       0.569

           -------------------------------------------------
          |                Geometry Summary                 |
           -------------------------------------------------

      molecular mass/u    :      207.6996421
   center of mass at/Å    :        2.6892891      -1.2690115      -1.8521857
  moments of inertia/u·Å² :        0.3691843E+03   0.1805125E+04   0.2065591E+04
rotational constants/cm⁻¹ :        0.4566184E-01   0.9338759E-02   0.8161167E-02

 * 26 selected distances

     #   Z          #   Z                                           value/Å
     1   7 N        2   6 C                                       1.4719614
     2   6 C        3   6 C                                       1.5283265 (max)
     4   6 C        5   6 C                                       1.4096400
     5   6 C        6   6 C                                       1.3652414
     4   6 C        7   6 C                                       1.3700740
     7   6 C        8   6 C                                       1.4099447
     6   6 C        9   6 C                                       1.4107386
     8   6 C        9   6 C                                       1.4187574
     9   6 C       10   6 C                                       1.4100110
    10   6 C       11   6 C                                       1.3667977
    11   6 C       12   6 C                                       1.4037787
     8   6 C       13   6 C                                       1.4103514
    12   6 C       13   6 C                                       1.3666878
     1   7 N       15   1 H                                       1.0143383
     1   7 N       17   1 H                                       1.0143037 (min)
     2   6 C       18   1 H                                       1.1024761
     3   6 C       19   1 H                                       1.0851733
     3   6 C       20   1 H                                       1.0872417
     3   6 C       21   1 H                                       1.0864807
     5   6 C       22   1 H                                       1.0778439
     6   6 C       23   1 H                                       1.0804086
     7   6 C       24   1 H                                       1.0821425
    10   6 C       25   1 H                                       1.0807076
    11   6 C       26   1 H                                       1.0802448
    12   6 C       27   1 H                                       1.0802934
    13   6 C       28   1 H                                       1.0810082

 * 4 distinct bonds (by element types)

   Z      Z             #   av. dist./Å        max./Å        min./Å
   1 H    6 C          11     1.0840019     1.1024761     1.0778439
   6 C    6 C          12     1.4058624     1.5283265     1.3652414
   1 H    7 N           2     1.0143210     1.0143383     1.0143037
   6 C    7 N           1     1.4719614     1.4719614     1.4719614


optimized geometry written to: xtbopt.xyz


           -------------------------------------------------
          | TOTAL ENERGY              -40.300563858825 Eh   |
          | GRADIENT NORM               0.000465982651 Eh/α |
          | HOMO-LUMO GAP               3.242343811973 eV   |
           -------------------------------------------------

------------------------------------------------------------------------
 * finished run on 2023/01/23 at 21:06:57.410     
------------------------------------------------------------------------
 total:
 * wall-time:     0 d,  0 h,  0 min,  0.982 sec
 *  cpu-time:     0 d,  0 h,  1 min, 34.831 sec
 * ratio c/w:    96.530 speedup
 SCF:
 * wall-time:     0 d,  0 h,  0 min,  0.100 sec
 *  cpu-time:     0 d,  0 h,  0 min, 12.760 sec
 * ratio c/w:   127.620 speedup
 ANC optimizer:
 * wall-time:     0 d,  0 h,  0 min,  0.851 sec
 *  cpu-time:     0 d,  0 h,  1 min, 18.222 sec
 * ratio c/w:    91.922 speedup

