      -----------------------------------------------------------      
     |                   =====================                   |     
     |                           x T B                           |     
     |                   =====================                   |     
     |                         S. Grimme                         |     
     |          Mulliken Center for Theoretical Chemistry        |     
     |                    University of Bonn                     |     
      -----------------------------------------------------------      

   * xtb version 6.5.1 (fef0646) compiled by 'conda@b96dff2e9fd6' on 2023-01-04

   xtb is free software: you can redistribute it and/or modify it under
   the terms of the GNU Lesser General Public License as published by
   the Free Software Foundation, either version 3 of the License, or
   (at your option) any later version.
   
   xtb is distributed in the hope that it will be useful,
   but WITHOUT ANY WARRANTY; without even the implied warranty of
   MERCHANTABILITY or FITNESS FOR A PARTICULAR PURPOSE.  See the
   GNU Lesser General Public License for more details.
   
   Cite this work as:
   * C. Bannwarth, E. Caldeweyher, S. Ehlert, A. Hansen, P. Pracht,
     J. Seibert, S. Spicher, S. Grimme, WIREs Comput. Mol. Sci., 2020, 11,
     e01493. DOI: 10.1002/wcms.1493
   
   for GFN2-xTB:
   * C. Bannwarth, S. Ehlert and S. Grimme., J. Chem. Theory Comput., 2019,
     15, 1652-1671. DOI: 10.1021/acs.jctc.8b01176
   for GFN1-xTB:
   * S. Grimme, C. Bannwarth, P. Shushkov, J. Chem. Theory Comput., 2017,
     13, 1989-2009. DOI: 10.1021/acs.jctc.7b00118
   for GFN0-xTB:
   * P. Pracht, E. Caldeweyher, S. Ehlert, S. Grimme, ChemRxiv, 2019, preprint.
     DOI: 10.26434/chemrxiv.8326202.v1
   for GFN-FF:
   * S. Spicher and S. Grimme, Angew. Chem. Int. Ed., 2020, 59, 15665-15673.
     DOI: 10.1002/anie.202004239
   
   for ALPB and GBSA implicit solvation:
   * S. Ehlert, M. Stahn, S. Spicher, S. Grimme, J. Chem. Theory Comput.,
     2021, 17, 4250-4261. DOI: 10.1021/acs.jctc.1c00471
   
   for DFT-D4:
   * E. Caldeweyher, C. Bannwarth and S. Grimme, J. Chem. Phys., 2017,
     147, 034112. DOI: 10.1063/1.4993215
   * E. Caldeweyher, S. Ehlert, A. Hansen, H. Neugebauer, S. Spicher,
     C. Bannwarth and S. Grimme, J. Chem. Phys., 2019, 150, 154122.
     DOI: 10.1063/1.5090222
   * E. Caldeweyher, J.-M. Mewes, S. Ehlert and S. Grimme, Phys. Chem. Chem. Phys.
     2020, 22, 8499-8512. DOI: 10.1039/D0CP00502A
   
   for sTDA-xTB:
   * S. Grimme and C. Bannwarth, J. Chem. Phys., 2016, 145, 054103.
     DOI: 10.1063/1.4959605
   
   in the mass-spec context:
   * V. Asgeirsson, C. Bauer and S. Grimme, Chem. Sci., 2017, 8, 4879.
     DOI: 10.1039/c7sc00601b
   * J. Koopman and S. Grimme, ACS Omega 2019, 4, 12, 15120-15133.
     DOI: 10.1021/acsomega.9b02011
   
   for metadynamics refer to:
   * S. Grimme, J. Chem. Theory Comput., 2019, 155, 2847-2862
     DOI: 10.1021/acs.jctc.9b00143
   
   for SPH calculations refer to:
   * S. Spicher and S. Grimme, J. Chem. Theory Comput., 2021, 17, 1701-1714
     DOI: 10.1021/acs.jctc.0c01306
   
   with help from (in alphabetical order)
   P. Atkinson, C. Bannwarth, F. Bohle, G. Brandenburg, E. Caldeweyher
   M. Checinski, S. Dohm, S. Ehlert, S. Ehrlich, I. Gerasimov, C. Hölzer
   A. Katbashev, J. Koopman, C. Lavigne, S. Lehtola, F. März, M. Müller,
   F. Musil, H. Neugebauer, J. Pisarek, C. Plett, P. Pracht, F. Pultar,
   J. Seibert, P. Shushkov, S. Spicher, M. Stahn, M. Steiner, T. Strunk,
   J. Stückrath, T. Rose, and J. Unsleber
   
 * started run on 2023/01/23 at 20:53:13.726     

           -------------------------------------------------
          |                Calculation Setup                |
           -------------------------------------------------

          program call               : xtb init.xyz --opt -c 1 -u 0 -P 16 --input xtb.inp
          hostname                   : gpg-woodward
          coordinate file            : init.xyz
          omp threads                :                    16

   ID    Z sym.   atoms
    1    7 N      1
    2    6 C      2-5
    3    8 O      6
    4    1 H      7-18

           -------------------------------------------------
          |                 G F N 2 - x T B                 |
           -------------------------------------------------

        Reference                      10.1021/acs.jctc.8b01176
      * Hamiltonian:
        H0-scaling (s, p, d)           1.850000    2.230000    2.230000
        zeta-weighting                 0.500000
      * Dispersion:
        s8                             2.700000
        a1                             0.520000
        a2                             5.000000
        s9                             5.000000
      * Repulsion:
        kExp                           1.500000    1.000000
        rExp                           1.000000
      * Coulomb:
        alpha                          2.000000
        third order                    shell-resolved
        anisotropic                    true
        a3                             3.000000
        a5                             4.000000
        cn-shift                       1.200000
        cn-exp                         4.000000
        max-rad                        5.000000


          ...................................................
          :                      SETUP                      :
          :.................................................:
          :  # basis functions                  36          :
          :  # atomic orbitals                  36          :
          :  # shells                           24          :
          :  # electrons                        38          :
          :  max. iterations                   250          :
          :  Hamiltonian                  GFN2-xTB          :
          :  restarted?                      false          :
          :  GBSA solvation                  false          :
          :  PC potential                    false          :
          :  electronic temp.          300.0000000     K    :
          :  accuracy                    1.0000000          :
          :  -> integral cutoff          0.2500000E+02      :
          :  -> integral neglect         0.1000000E-07      :
          :  -> SCF convergence          0.1000000E-05 Eh   :
          :  -> wf. convergence          0.1000000E-03 e    :
          :  Broyden damping             0.4000000          :
          ...................................................

 iter      E             dE          RMSdq      gap      omega  full diag
   1    -21.3657956 -0.213658E+02  0.398E+00   11.51       0.0  T
   2    -21.4705349 -0.104739E+00  0.214E+00    8.58       1.0  T
   3    -21.4736316 -0.309671E-02  0.120E+00    7.59       1.0  T
   4    -21.4741290 -0.497379E-03  0.186E-01    6.98       1.0  T
   5    -21.4741791 -0.500427E-04  0.874E-02    7.02       1.0  T
   6    -21.4741850 -0.598101E-05  0.191E-02    7.08       1.2  T
   7    -21.4741857 -0.701825E-06  0.692E-03    7.08       3.4  T
   8    -21.4741858 -0.758026E-07  0.258E-03    7.08       9.1  T
   9    -21.4741858 -0.646622E-08  0.770E-04    7.08      30.6  T
  10    -21.4741858 -0.122520E-08  0.185E-04    7.08     127.3  T

   *** convergence criteria satisfied after 10 iterations ***

         #    Occupation            Energy/Eh            Energy/eV
      -------------------------------------------------------------
         1        2.0000           -0.9006265             -24.5073
       ...           ...                  ...                  ...
        13        2.0000           -0.6475888             -17.6218
        14        2.0000           -0.6197013             -16.8629
        15        2.0000           -0.6143733             -16.7179
        16        2.0000           -0.6107860             -16.6203
        17        2.0000           -0.5759210             -15.6716
        18        2.0000           -0.5542256             -15.0812
        19        2.0000           -0.5234996             -14.2451 (HOMO)
        20                         -0.2633636              -7.1665 (LUMO)
        21                         -0.1479598              -4.0262
        22                         -0.1111874              -3.0256
        23                         -0.1101672              -2.9978
        24                         -0.0743601              -2.0234
       ...                                ...                  ...
        36                          0.1573076               4.2806
      -------------------------------------------------------------
                  HL-Gap            0.2601360 Eh            7.0787 eV
             Fermi-level           -0.3934316 Eh          -10.7058 eV

 SCC (total)                   0 d,  0 h,  0 min,  0.026 sec
 SCC setup                      ...        0 min,  0.001 sec (  2.960%)
 Dispersion                     ...        0 min,  0.000 sec (  1.581%)
 classical contributions        ...        0 min,  0.000 sec (  0.669%)
 integral evaluation            ...        0 min,  0.002 sec (  6.696%)
 iterations                     ...        0 min,  0.018 sec ( 69.997%)
 molecular gradient             ...        0 min,  0.004 sec ( 16.869%)
 printout                       ...        0 min,  0.000 sec (  0.687%)

         :::::::::::::::::::::::::::::::::::::::::::::::::::::
         ::                     SUMMARY                     ::
         :::::::::::::::::::::::::::::::::::::::::::::::::::::
         :: total energy             -21.224014717165 Eh    ::
         :: gradient norm              0.027719516529 Eh/a0 ::
         :: HOMO-LUMO gap              7.078659620398 eV    ::
         ::.................................................::
         :: SCC energy               -21.474185823992 Eh    ::
         :: -> isotropic ES            0.134325424851 Eh    ::
         :: -> anisotropic ES         -0.008741884256 Eh    ::
         :: -> anisotropic XC          0.010088062399 Eh    ::
         :: -> dispersion             -0.008134359042 Eh    ::
         :: repulsion energy           0.250158372562 Eh    ::
         :: add. restraining           0.000000000000 Eh    ::
         :: total charge               1.000000000000 e     ::
         :::::::::::::::::::::::::::::::::::::::::::::::::::::

      ----------------------------------------------------------- 
     |                   =====================                   |
     |                        A N C O P T                        |
     |                   =====================                   |
     |               Approximate Normal Coordinate               |
     |                Rational Function Optimizer                |
      ----------------------------------------------------------- 

          ...................................................
          :                      SETUP                      :
          :.................................................:
          :   optimization level            normal          :
          :   max. optcycles                   200          :
          :   ANC micro-cycles                  20          :
          :   degrees of freedom                48          :
          :.................................................:
          :   RF solver                   davidson          :
          :   write xtbopt.log                true          :
          :   linear?                        false          :
          :   energy convergence         0.5000000E-05 Eh   :
          :   grad. convergence          0.1000000E-02 Eh/α :
          :   maximium RF displ.         1.0000000          :
          :   Hlow (freq-cutoff)         0.1000000E-01      :
          :   Hmax (freq-cutoff)         5.0000000          :
          :   S6 in model hess.         20.0000000          :
          ...................................................

generating ANC from model Hessian ...
Using Lindh-Hessian (1995)
 Shifting diagonal of input Hessian by    7.3948731799561192E-003
 Lowest  eigenvalues of input Hessian
    0.000000    0.000000    0.000000    0.000000    0.000000    0.000000
    0.010000    0.010305    0.011736    0.015110    0.020734    0.022479
    0.025378    0.027951    0.050751    0.054806    0.059686    0.062148
 Highest eigenvalues
    1.249810    1.272354    1.398405    1.404958    1.443847    1.447554


........................................................................
.............................. CYCLE    1 ..............................
........................................................................
   1    -21.4741858 -0.214742E+02  0.497E-05    7.08       0.0  T
   2    -21.4741858 -0.440892E-11  0.312E-05    7.08     754.9  T
   3    -21.4741858 -0.106937E-11  0.117E-05    7.08    2012.0  T
     SCC iter.                  ...        0 min,  0.005 sec
     gradient                   ...        0 min,  0.003 sec
 * total energy  :   -21.2240147 Eh     change       -0.4685674E-10 Eh
   gradient norm :     0.0277197 Eh/α   predicted     0.0000000E+00 (-100.00%)
   displ. norm   :     0.1943198 α      lambda       -0.2825833E-02
   maximum displ.:     0.0895924 α      in ANC's #16, #8, #12, ...

........................................................................
.............................. CYCLE    2 ..............................
........................................................................
   1    -21.4782983 -0.214783E+02  0.160E-01    6.98       0.0  T
   2    -21.4783118 -0.135583E-04  0.923E-02    7.00       1.0  T
   3    -21.4783130 -0.116063E-05  0.145E-02    7.02       1.6  T
   4    -21.4783134 -0.353695E-06  0.435E-03    7.02       5.4  T
   5    -21.4783134 -0.225144E-07  0.188E-03    7.02      12.5  T
   6    -21.4783134 -0.562897E-08  0.530E-04    7.02      44.4  T
   7    -21.4783134 -0.553307E-09  0.212E-04    7.02     111.2  T
     SCC iter.                  ...        0 min,  0.011 sec
     gradient                   ...        0 min,  0.003 sec
 * total energy  :   -21.2257801 Eh     change       -0.1765397E-02 Eh
   gradient norm :     0.0132387 Eh/α   predicted    -0.1466270E-02 ( -16.94%)
   displ. norm   :     0.1008979 α      lambda       -0.5016406E-03
   maximum displ.:     0.0459223 α      in ANC's #3, #8, #12, ...

........................................................................
.............................. CYCLE    3 ..............................
........................................................................
   1    -21.4797711 -0.214798E+02  0.592E-02    6.97       0.0  T
   2    -21.4797756 -0.455163E-05  0.339E-02    6.98       1.0  T
   3    -21.4797758 -0.166832E-06  0.100E-02    6.99       2.4  T
   4    -21.4797760 -0.234381E-06  0.191E-03    7.00      12.3  T
   5    -21.4797760 -0.520001E-08  0.854E-04    6.99      27.6  T
   6    -21.4797760 -0.575813E-09  0.237E-04    6.99      99.5  T
     SCC iter.                  ...        0 min,  0.011 sec
     gradient                   ...        0 min,  0.002 sec
 * total energy  :   -21.2260791 Eh     change       -0.2989973E-03 Eh
   gradient norm :     0.0048927 Eh/α   predicted    -0.2533736E-03 ( -15.26%)
   displ. norm   :     0.0550039 α      lambda       -0.6916717E-04
   maximum displ.:     0.0338830 α      in ANC's #1, #3, #2, ...

........................................................................
.............................. CYCLE    4 ..............................
........................................................................
   1    -21.4802512 -0.214803E+02  0.210E-02    6.99       0.0  T
   2    -21.4802519 -0.746937E-06  0.120E-02    6.99       2.0  T
   3    -21.4802520 -0.250019E-07  0.411E-03    6.99       5.7  T
   4    -21.4802520 -0.363404E-07  0.661E-04    6.99      35.7  T
   5    -21.4802520 -0.703288E-09  0.272E-04    6.99      86.7  T
     SCC iter.                  ...        0 min,  0.008 sec
     gradient                   ...        0 min,  0.003 sec
 * total energy  :   -21.2261259 Eh     change       -0.4681636E-04 Eh
   gradient norm :     0.0016287 Eh/α   predicted    -0.3468684E-04 ( -25.91%)
   displ. norm   :     0.0886447 α      lambda       -0.2905739E-04
   maximum displ.:     0.0600745 α      in ANC's #1, #2, #3, ...

........................................................................
.............................. CYCLE    5 ..............................
........................................................................
   1    -21.4804353 -0.214804E+02  0.260E-02    6.99       0.0  T
   2    -21.4804358 -0.544253E-06  0.152E-02    6.99       1.5  T
   3    -21.4804359 -0.437471E-08  0.345E-03    7.00       6.8  T
   4    -21.4804359 -0.455891E-07  0.625E-04    7.00      37.7  T
   5    -21.4804359 -0.732580E-09  0.266E-04    7.00      88.7  T
     SCC iter.                  ...        0 min,  0.007 sec
     gradient                   ...        0 min,  0.003 sec
 * total energy  :   -21.2261502 Eh     change       -0.2427357E-04 Eh
   gradient norm :     0.0021179 Eh/α   predicted    -0.1457870E-04 ( -39.94%)
   displ. norm   :     0.0361804 α      lambda       -0.1189490E-04
   maximum displ.:     0.0250168 α      in ANC's #1, #2, #3, ...

........................................................................
.............................. CYCLE    6 ..............................
........................................................................
   1    -21.4803454 -0.214803E+02  0.102E-02    7.00       0.0  T
   2    -21.4803455 -0.202260E-07  0.601E-03    7.00       3.9  T
   3    -21.4803455 -0.768143E-09  0.663E-04    7.00      35.5  T
   4    -21.4803455 -0.306835E-08  0.212E-04    7.00     111.3  T
     SCC iter.                  ...        0 min,  0.005 sec
     gradient                   ...        0 min,  0.002 sec
 * total energy  :   -21.2261610 Eh     change       -0.1083846E-04 Eh
   gradient norm :     0.0017873 Eh/α   predicted    -0.5956615E-05 ( -45.04%)
   displ. norm   :     0.1088776 α      lambda       -0.2259476E-04
   maximum displ.:     0.0745426 α      in ANC's #1, #2, #3, ...

........................................................................
.............................. CYCLE    7 ..............................
........................................................................
   1    -21.4800338 -0.214800E+02  0.326E-02    7.00       0.0  T
   2    -21.4800341 -0.271604E-06  0.193E-02    7.00       1.2  T
   3    -21.4800341  0.327958E-08  0.259E-03    7.00       9.1  T
   4    -21.4800341 -0.461239E-07  0.668E-04    7.00      35.3  T
   5    -21.4800341 -0.406779E-09  0.203E-04    7.00     116.3  T
     SCC iter.                  ...        0 min,  0.006 sec
     gradient                   ...        0 min,  0.002 sec
 * total energy  :   -21.2261850 Eh     change       -0.2395109E-04 Eh
   gradient norm :     0.0008847 Eh/α   predicted    -0.1135695E-04 ( -52.58%)
   displ. norm   :     0.0888480 α      lambda       -0.1045853E-04
   maximum displ.:     0.0622089 α      in ANC's #1, #2, #3, ...

........................................................................
.............................. CYCLE    8 ..............................
........................................................................
   1    -21.4799982 -0.214800E+02  0.247E-02    7.01       0.0  T
   2    -21.4799983 -0.786564E-07  0.147E-02    7.01       1.6  T
   3    -21.4799983 -0.620837E-08  0.102E-03    7.01      23.1  T
   4    -21.4799983 -0.673345E-08  0.403E-04    7.01      58.5  T
   5    -21.4799983 -0.218900E-09  0.165E-04    7.01     142.6  T
     SCC iter.                  ...        0 min,  0.006 sec
     gradient                   ...        0 min,  0.002 sec
 * total energy  :   -21.2261978 Eh     change       -0.1276084E-04 Eh
   gradient norm :     0.0009299 Eh/α   predicted    -0.5246546E-05 ( -58.89%)
   displ. norm   :     0.0816402 α      lambda       -0.8241734E-05
   maximum displ.:     0.0574078 α      in ANC's #1, #2, #5, ...

........................................................................
.............................. CYCLE    9 ..............................
........................................................................
   1    -21.4801833 -0.214802E+02  0.218E-02    7.01       0.0  T
   2    -21.4801833 -0.593967E-07  0.129E-02    7.01       1.8  T
   3    -21.4801833 -0.698861E-08  0.713E-04    7.01      33.1  T
   4    -21.4801833 -0.183154E-08  0.329E-04    7.01      71.6  T
     SCC iter.                  ...        0 min,  0.005 sec
     gradient                   ...        0 min,  0.002 sec
 * total energy  :   -21.2262077 Eh     change       -0.9924384E-05 Eh
   gradient norm :     0.0006023 Eh/α   predicted    -0.4132186E-05 ( -58.36%)
   displ. norm   :     0.0794043 α      lambda       -0.5773146E-05
   maximum displ.:     0.0556886 α      in ANC's #2, #1, #3, ...

........................................................................
.............................. CYCLE   10 ..............................
........................................................................
   1    -21.4802240 -0.214802E+02  0.204E-02    7.02       0.0  T
   2    -21.4802240 -0.334833E-07  0.122E-02    7.02       1.9  T
   3    -21.4802240 -0.586796E-08  0.578E-04    7.02      40.8  T
   4    -21.4802240 -0.139674E-08  0.295E-04    7.02      79.9  T
     SCC iter.                  ...        0 min,  0.005 sec
     gradient                   ...        0 min,  0.002 sec
 * total energy  :   -21.2262141 Eh     change       -0.6447273E-05 Eh
   gradient norm :     0.0003729 Eh/α   predicted    -0.2894148E-05 ( -55.11%)
   displ. norm   :     0.0627036 α      lambda       -0.2885757E-05
   maximum displ.:     0.0439763 α      in ANC's #2, #1, #3, ...

........................................................................
.............................. CYCLE   11 ..............................
........................................................................
   1    -21.4802784 -0.214803E+02  0.157E-02    7.02       0.0  T
   2    -21.4802784 -0.135224E-07  0.938E-03    7.02       2.5  T
   3    -21.4802784 -0.451911E-08  0.467E-04    7.02      50.4  T
   4    -21.4802784 -0.675495E-09  0.254E-04    7.02      92.7  T
     SCC iter.                  ...        0 min,  0.005 sec
     gradient                   ...        0 min,  0.002 sec
 * total energy  :   -21.2262170 Eh     change       -0.2853299E-05 Eh
   gradient norm :     0.0002936 Eh/α   predicted    -0.1443439E-05 ( -49.41%)
   displ. norm   :     0.0366342 α      lambda       -0.1056317E-05
   maximum displ.:     0.0255318 α      in ANC's #2, #1, #5, ...

   *** GEOMETRY OPTIMIZATION CONVERGED AFTER 11 ITERATIONS ***

------------------------------------------------------------------------
 total energy gain   :        -0.0022023 Eh       -1.3819 kcal/mol
 total RMSD          :         0.1617308 a0        0.0856 Å
 total power (kW/mol):        -0.5256392 (step)  -42.7595 (real)
------------------------------------------------------------------------

 ANCopt (total)                0 d,  0 h,  0 min,  0.135 sec
 optimizer setup                ...        0 min,  0.000 sec (  0.072%)
 model hessian                  ...        0 min,  0.013 sec (  9.738%)
 ANC generation                 ...        0 min,  0.001 sec (  1.031%)
 coordinate transformation      ...        0 min,  0.000 sec (  0.130%)
 single point calculation       ...        0 min,  0.114 sec ( 84.201%)
 optimization log               ...        0 min,  0.001 sec (  0.789%)
 hessian update                 ...        0 min,  0.003 sec (  1.931%)
 rational function              ...        0 min,  0.002 sec (  1.383%)

================
 final structure:
================
18
 xtb: 6.5.1 (fef0646)
N            0.89097622799546       -0.06085805685159        0.07344821280942
C            2.38868411497067       -0.03061392863656        0.10276468973339
C            2.93367803123879       -0.04108163184316       -1.31584527729052
C            4.46388705607483       -0.06506577680884       -1.34466213589803
C            4.93424425235925       -0.30188009949588       -2.78853252369204
O            4.43965357641128       -1.51713335048635       -3.29412181104000
H            0.49052138712608       -0.05063940922757        1.01990804813568
H            0.57426648346366       -0.90961147292207       -0.41516202752354
H            0.53898458998891        0.75409690229737       -0.44686041032276
H            2.73957385757649       -0.90340491478575        0.65514647776067
H            2.70753483974805        0.86879969062944        0.63146792683382
H            2.58952529467358        0.84135991669218       -1.85812123423636
H            2.58778758277301       -0.92844243171323       -1.85102037749446
H            4.83183999865941       -0.87381259815007       -0.71042633191433
H            4.87501798331860        0.87452930057838       -0.97893247595461
H            6.02622550258173       -0.25911289267148       -2.83506735859698
H            4.53150290528232        0.48011287652911       -3.43744353110611
H            5.01008631575786       -2.24241212313400       -3.01897986020327

 Bond Distances (Angstroems)
 ---------------------------
N1-C2=1.4983         N1-H7=1.0277         N1-H8=1.0293         N1-H9=1.0290         C2-N1=1.4983         C2-C3=1.5197         
C2-H10=1.0909        C2-H11=1.0909        C3-C2=1.5197         C3-C4=1.5307         C3-H12=1.0914        C3-H13=1.0925        
C4-C3=1.5307         C4-C5=1.5369         C4-H14=1.0917        C4-H15=1.0889        C5-C4=1.5369         C5-O6=1.4061         
C5-H16=1.0938        C5-H17=1.0931        O6-C5=1.4061         O6-H18=0.9629        H7-N1=1.0277         H8-N1=1.0293         
H9-N1=1.0290         H10-C2=1.0909        H11-C2=1.0909        H12-C3=1.0914        H13-C3=1.0925        H14-C4=1.0917        
H15-C4=1.0889        H16-C5=1.0938        H17-C5=1.0931        H18-O6=0.9629        
 C  H  Rav=1.0916 sigma=0.0014  Rmin=1.0889  Rmax=1.0938     8
 C  C  Rav=1.5291 sigma=0.0071  Rmin=1.5197  Rmax=1.5369     3
 N  H  Rav=1.0287 sigma=0.0007  Rmin=1.0277  Rmax=1.0293     3
 N  C  Rav=1.4983 sigma=0.0000  Rmin=1.4983  Rmax=1.4983     1
 O  H  Rav=0.9629 sigma=0.0000  Rmin=0.9629  Rmax=0.9629     1
 O  C  Rav=1.4061 sigma=0.0000  Rmin=1.4061  Rmax=1.4061     1

 selected bond angles (degree)
 --------------------
H7-N1-C2=111.79                H8-N1-C2=109.48                H8-N1-H7=108.99                H9-N1-C2=109.62                
H9-N1-H7=108.94                H9-N1-H8=107.93                C3-C2-N1=109.88                H10-C2-N1=108.38               
H10-C2-C3=110.60               H11-C2-N1=108.56               H11-C2-C3=110.69               H11-C2-H10=108.68              
C4-C3-C2=112.10                H12-C3-C2=110.19               H12-C3-C4=108.57               H13-C3-C2=110.45               
H13-C3-C4=107.13               H13-C3-H12=108.27              C5-C4-C3=109.03                H14-C4-C3=109.73               
H14-C4-C5=109.18               H15-C4-C3=110.95               H15-C4-C5=109.45               H15-C4-H14=108.47              
O6-C5-C4=111.30                H16-C5-C4=109.84               H16-C5-O6=111.69               H17-C5-C4=109.56               
H17-C5-O6=105.98               H17-C5-H16=108.34              H18-O6-C5=109.87               

 selected dihedral angles (degree)
 ---------------------------------
C3-C2-N1-H7=180.24            C3-C2-N1-H8= 59.36            C3-C2-N1-H9=301.14            H10-C2-N1-H7= 59.28           
H10-C2-N1-H8=298.40           H10-C2-N1-H9=180.19           H11-C2-N1-H7=301.41           H11-C2-N1-H8=180.53           
H11-C2-N1-H9= 62.32           C4-C3-C2-N1=182.18            C4-C3-C2-H10=301.79           C4-C3-C2-H11= 62.29           
H12-C3-C2-N1= 61.14           H12-C3-C2-H10=180.75          H12-C3-C2-H11=301.25          H13-C3-C2-N1=301.57           
H13-C3-C2-H10= 61.18          H13-C3-C2-H11=181.68          C5-C4-C3-C2=170.99            C5-C4-C3-H12=292.96           
C5-C4-C3-H13= 49.68           H14-C4-C3-C2= 51.46           H14-C4-C3-H12=173.43          H14-C4-C3-H13=290.15          
H15-C4-C3-C2=291.61           H15-C4-C3-H12= 53.57          H15-C4-C3-H13=170.29          O6-C5-C4-C3=300.71            
O6-C5-C4-H14= 60.58           O6-C5-C4-H15=179.18           H16-C5-C4-C3=176.48           H16-C5-C4-H14=296.35          
H16-C5-C4-H15= 54.95          H17-C5-C4-C3= 57.59           H17-C5-C4-H14=177.46          H17-C5-C4-H15=296.05          
H18-O6-C5-C4=276.20           H18-O6-C5-H16= 39.38          H18-O6-C5-H17=157.16          
           -------------------------------------------------
          |                Final Singlepoint                |
           -------------------------------------------------

          ...................................................
          :                      SETUP                      :
          :.................................................:
          :  # basis functions                  36          :
          :  # atomic orbitals                  36          :
          :  # shells                           24          :
          :  # electrons                        38          :
          :  max. iterations                   250          :
          :  Hamiltonian                  GFN2-xTB          :
          :  restarted?                      false          :
          :  GBSA solvation                  false          :
          :  PC potential                    false          :
          :  electronic temp.          300.0000000     K    :
          :  accuracy                    1.0000000          :
          :  -> integral cutoff          0.2500000E+02      :
          :  -> integral neglect         0.1000000E-07      :
          :  -> SCF convergence          0.1000000E-05 Eh   :
          :  -> wf. convergence          0.1000000E-03 e    :
          :  Broyden damping             0.4000000          :
          ...................................................

 iter      E             dE          RMSdq      gap      omega  full diag
   1    -21.4802784 -0.214803E+02  0.516E-05    7.02       0.0  T
   2    -21.4802784 -0.364153E-11  0.323E-05    7.02     729.6  T
   3    -21.4802784 -0.115463E-11  0.107E-05    7.02    2202.0  T

   *** convergence criteria satisfied after 3 iterations ***

         #    Occupation            Energy/Eh            Energy/eV
      -------------------------------------------------------------
         1        2.0000           -0.8975461             -24.4235
       ...           ...                  ...                  ...
        13        2.0000           -0.6481503             -17.6371
        14        2.0000           -0.6209536             -16.8970
        15        2.0000           -0.6139901             -16.7075
        16        2.0000           -0.6106978             -16.6179
        17        2.0000           -0.5772778             -15.7085
        18        2.0000           -0.5541194             -15.0784
        19        2.0000           -0.5252834             -14.2937 (HOMO)
        20                         -0.2673926              -7.2761 (LUMO)
        21                         -0.1637169              -4.4550
        22                         -0.1056608              -2.8752
        23                         -0.1040023              -2.8300
        24                         -0.0634637              -1.7269
       ...                                ...                  ...
        36                          0.1695069               4.6125
      -------------------------------------------------------------
                  HL-Gap            0.2578908 Eh            7.0176 eV
             Fermi-level           -0.3963380 Eh          -10.7849 eV

 SCC (total)                   0 d,  0 h,  0 min,  0.008 sec
 SCC setup                      ...        0 min,  0.001 sec ( 13.428%)
 Dispersion                     ...        0 min,  0.000 sec (  2.487%)
 classical contributions        ...        0 min,  0.000 sec (  1.538%)
 integral evaluation            ...        0 min,  0.001 sec (  8.681%)
 iterations                     ...        0 min,  0.004 sec ( 45.098%)
 molecular gradient             ...        0 min,  0.002 sec ( 26.935%)
 printout                       ...        0 min,  0.000 sec (  1.032%)

         :::::::::::::::::::::::::::::::::::::::::::::::::::::
         ::                     SUMMARY                     ::
         :::::::::::::::::::::::::::::::::::::::::::::::::::::
         :: total energy             -21.226216976506 Eh    ::
         :: gradient norm              0.000294202831 Eh/a0 ::
         :: HOMO-LUMO gap              7.017566893216 eV    ::
         ::.................................................::
         :: SCC energy               -21.480278375527 Eh    ::
         :: -> isotropic ES            0.132989748070 Eh    ::
         :: -> anisotropic ES         -0.009741476928 Eh    ::
         :: -> anisotropic XC          0.009860141204 Eh    ::
         :: -> dispersion             -0.008139027891 Eh    ::
         :: repulsion energy           0.254046794778 Eh    ::
         :: add. restraining           0.000000000000 Eh    ::
         :: total charge               1.000000000000 e     ::
         :::::::::::::::::::::::::::::::::::::::::::::::::::::

           -------------------------------------------------
          |                Property Printout                |
           -------------------------------------------------

    * Orbital Energies and Occupations

         #    Occupation            Energy/Eh            Energy/eV
      -------------------------------------------------------------
         1        2.0000           -0.8975461             -24.4235
       ...           ...                  ...                  ...
         7        2.0000           -0.7446539             -20.2631
         8        2.0000           -0.7277348             -19.8027
         9        2.0000           -0.7091865             -19.2979
        10        2.0000           -0.6901294             -18.7794
        11        2.0000           -0.6735870             -18.3292
        12        2.0000           -0.6576388             -17.8953
        13        2.0000           -0.6481503             -17.6371
        14        2.0000           -0.6209536             -16.8970
        15        2.0000           -0.6139901             -16.7075
        16        2.0000           -0.6106978             -16.6179
        17        2.0000           -0.5772778             -15.7085
        18        2.0000           -0.5541194             -15.0784
        19        2.0000           -0.5252834             -14.2937 (HOMO)
        20                         -0.2673926              -7.2761 (LUMO)
        21                         -0.1637169              -4.4550
        22                         -0.1056608              -2.8752
        23                         -0.1040023              -2.8300
        24                         -0.0634637              -1.7269
        25                         -0.0551745              -1.5014
        26                         -0.0266610              -0.7255
        27                         -0.0144155              -0.3923
        28                         -0.0038311              -0.1043
        29                          0.0165060               0.4492
        30                          0.0299158               0.8140
       ...                                ...                  ...
        36                          0.1695069               4.6125
      -------------------------------------------------------------
                  HL-Gap            0.2578908 Eh            7.0176 eV
             Fermi-level           -0.3963380 Eh          -10.7849 eV

     #   Z          covCN         q      C6AA      α(0)
     1   7 N        3.483    -0.128    23.767     7.241
     2   6 C        3.731    -0.034    21.273     6.584
     3   6 C        3.805    -0.084    22.104     6.693
     4   6 C        3.800    -0.077    21.972     6.674
     5   6 C        3.677     0.072    19.595     6.342
     6   8 O        1.656    -0.437    21.576     6.271
     7   1 H        0.859     0.270     0.811     1.411
     8   1 H        0.859     0.274     0.795     1.397
     9   1 H        0.859     0.273     0.799     1.400
    10   1 H        0.924     0.106     1.728     2.056
    11   1 H        0.924     0.106     1.731     2.058
    12   1 H        0.924     0.065     2.141     2.288
    13   1 H        0.924     0.084     1.938     2.177
    14   1 H        0.924     0.053     2.277     2.360
    15   1 H        0.925     0.054     2.265     2.353
    16   1 H        0.924     0.043     2.413     2.429
    17   1 H        0.924     0.060     2.198     2.318
    18   1 H        0.805     0.299     0.725     1.338

 Mol. C6AA /au·bohr⁶  :       1842.996142
 Mol. C8AA /au·bohr⁸  :      37992.098005
 Mol. α(0) /au        :         63.388508


Wiberg/Mayer (AO) data.
largest (>0.10) Wiberg bond orders for each atom

 ---------------------------------------------------------------------------
     #   Z sym  total        # sym  WBO       # sym  WBO       # sym  WBO
 ---------------------------------------------------------------------------
     1   7 N    3.675 --     2 C    0.921     7 H    0.913     9 H    0.909
                             8 H    0.909
     2   6 C    3.885 --     3 C    1.008    11 H    0.967    10 H    0.967
                             1 N    0.921
     3   6 C    3.978 --     2 C    1.008     4 C    0.998    12 H    0.972
                            13 H    0.966
     4   6 C    3.991 --     3 C    0.998     5 C    0.990    15 H    0.977
                            14 H    0.975
     5   6 C    3.957 --     6 O    1.008     4 C    0.990    16 H    0.972
                            17 H    0.970
     6   8 O    1.969 --     5 C    1.008    18 H    0.898
     7   1 H    0.927 --     1 N    0.913
     8   1 H    0.925 --     1 N    0.909
     9   1 H    0.925 --     1 N    0.909
    10   1 H    0.989 --     2 C    0.967
    11   1 H    0.989 --     2 C    0.967
    12   1 H    0.996 --     3 C    0.972
    13   1 H    0.993 --     3 C    0.966
    14   1 H    0.997 --     4 C    0.975
    15   1 H    0.997 --     4 C    0.977
    16   1 H    0.998 --     5 C    0.972
    17   1 H    0.996 --     5 C    0.970
    18   1 H    0.911 --     6 O    0.898
 ---------------------------------------------------------------------------

Topologies differ in total number of bonds
Writing topology from bond orders to xtbtopo.mol

molecular dipole:
                 x           y           z       tot (Debye)
 q only:        2.987      -0.146       0.036
   full:        2.895      -0.177       0.244       7.399
molecular quadrupole (traceless):
                xx          xy          yy          xz          yz          zz
 q only:       19.282      -2.786      -7.232      -4.260      -0.843     -12.050
  q+dip:       20.109      -4.604      -5.450      -3.077      -1.809     -14.658
   full:       20.693      -4.435      -5.873      -3.247      -1.485     -14.820

           -------------------------------------------------
          |                Geometry Summary                 |
           -------------------------------------------------

      molecular mass/u    :       90.1443407
   center of mass at/Å    :        3.3070973      -0.3634310      -1.4336852
  moments of inertia/u·Å² :        0.5975865E+02   0.3606397E+03   0.3907626E+03
rotational constants/cm⁻¹ :        0.2820953E+00   0.4674370E-01   0.4314034E-01

 * 17 selected distances

     #   Z          #   Z                                           value/Å
     1   7 N        2   6 C                                       1.4983002
     2   6 C        3   6 C                                       1.5197311
     3   6 C        4   6 C                                       1.5306684
     4   6 C        5   6 C                                       1.5369057 (max)
     5   6 C        6   8 O                                       1.4060872
     1   7 N        7   1 H                                       1.0277426
     1   7 N        8   1 H                                       1.0292850
     1   7 N        9   1 H                                       1.0289660
     2   6 C       10   1 H                                       1.0908774
     2   6 C       11   1 H                                       1.0909345
     3   6 C       12   1 H                                       1.0914246
     3   6 C       13   1 H                                       1.0924569
     4   6 C       14   1 H                                       1.0916575
     4   6 C       15   1 H                                       1.0888645
     5   6 C       16   1 H                                       1.0938088
     5   6 C       17   1 H                                       1.0930688
     6   8 O       18   1 H                                       0.9628739 (min)

 * 6 distinct bonds (by element types)

   Z      Z             #   av. dist./Å        max./Å        min./Å
   1 H    6 C           8     1.0916366     1.0938088     1.0888645
   6 C    6 C           3     1.5291017     1.5369057     1.5197311
   1 H    7 N           3     1.0286645     1.0292850     1.0277426
   6 C    7 N           1     1.4983002     1.4983002     1.4983002
   1 H    8 O           1     0.9628739     0.9628739     0.9628739
   6 C    8 O           1     1.4060872     1.4060872     1.4060872


optimized geometry written to: xtbopt.xyz


           -------------------------------------------------
          | TOTAL ENERGY              -21.226216976506 Eh   |
          | GRADIENT NORM               0.000294202831 Eh/α |
          | HOMO-LUMO GAP               7.017566893216 eV   |
           -------------------------------------------------

------------------------------------------------------------------------
 * finished run on 2023/01/23 at 20:53:13.928     
------------------------------------------------------------------------
 total:
 * wall-time:     0 d,  0 h,  0 min,  0.202 sec
 *  cpu-time:     0 d,  0 h,  0 min, 19.949 sec
 * ratio c/w:    98.631 speedup
 SCF:
 * wall-time:     0 d,  0 h,  0 min,  0.026 sec
 *  cpu-time:     0 d,  0 h,  0 min,  3.376 sec
 * ratio c/w:   127.957 speedup
 ANC optimizer:
 * wall-time:     0 d,  0 h,  0 min,  0.144 sec
 *  cpu-time:     0 d,  0 h,  0 min, 12.704 sec
 * ratio c/w:    87.955 speedup

