      -----------------------------------------------------------      
     |                   =====================                   |     
     |                           x T B                           |     
     |                   =====================                   |     
     |                         S. Grimme                         |     
     |          Mulliken Center for Theoretical Chemistry        |     
     |                    University of Bonn                     |     
      -----------------------------------------------------------      

   * xtb version 6.5.1 (fef0646) compiled by 'conda@b96dff2e9fd6' on 2023-01-04

   xtb is free software: you can redistribute it and/or modify it under
   the terms of the GNU Lesser General Public License as published by
   the Free Software Foundation, either version 3 of the License, or
   (at your option) any later version.
   
   xtb is distributed in the hope that it will be useful,
   but WITHOUT ANY WARRANTY; without even the implied warranty of
   MERCHANTABILITY or FITNESS FOR A PARTICULAR PURPOSE.  See the
   GNU Lesser General Public License for more details.
   
   Cite this work as:
   * C. Bannwarth, E. Caldeweyher, S. Ehlert, A. Hansen, P. Pracht,
     J. Seibert, S. Spicher, S. Grimme, WIREs Comput. Mol. Sci., 2020, 11,
     e01493. DOI: 10.1002/wcms.1493
   
   for GFN2-xTB:
   * C. Bannwarth, S. Ehlert and S. Grimme., J. Chem. Theory Comput., 2019,
     15, 1652-1671. DOI: 10.1021/acs.jctc.8b01176
   for GFN1-xTB:
   * S. Grimme, C. Bannwarth, P. Shushkov, J. Chem. Theory Comput., 2017,
     13, 1989-2009. DOI: 10.1021/acs.jctc.7b00118
   for GFN0-xTB:
   * P. Pracht, E. Caldeweyher, S. Ehlert, S. Grimme, ChemRxiv, 2019, preprint.
     DOI: 10.26434/chemrxiv.8326202.v1
   for GFN-FF:
   * S. Spicher and S. Grimme, Angew. Chem. Int. Ed., 2020, 59, 15665-15673.
     DOI: 10.1002/anie.202004239
   
   for ALPB and GBSA implicit solvation:
   * S. Ehlert, M. Stahn, S. Spicher, S. Grimme, J. Chem. Theory Comput.,
     2021, 17, 4250-4261. DOI: 10.1021/acs.jctc.1c00471
   
   for DFT-D4:
   * E. Caldeweyher, C. Bannwarth and S. Grimme, J. Chem. Phys., 2017,
     147, 034112. DOI: 10.1063/1.4993215
   * E. Caldeweyher, S. Ehlert, A. Hansen, H. Neugebauer, S. Spicher,
     C. Bannwarth and S. Grimme, J. Chem. Phys., 2019, 150, 154122.
     DOI: 10.1063/1.5090222
   * E. Caldeweyher, J.-M. Mewes, S. Ehlert and S. Grimme, Phys. Chem. Chem. Phys.
     2020, 22, 8499-8512. DOI: 10.1039/D0CP00502A
   
   for sTDA-xTB:
   * S. Grimme and C. Bannwarth, J. Chem. Phys., 2016, 145, 054103.
     DOI: 10.1063/1.4959605
   
   in the mass-spec context:
   * V. Asgeirsson, C. Bauer and S. Grimme, Chem. Sci., 2017, 8, 4879.
     DOI: 10.1039/c7sc00601b
   * J. Koopman and S. Grimme, ACS Omega 2019, 4, 12, 15120-15133.
     DOI: 10.1021/acsomega.9b02011
   
   for metadynamics refer to:
   * S. Grimme, J. Chem. Theory Comput., 2019, 155, 2847-2862
     DOI: 10.1021/acs.jctc.9b00143
   
   for SPH calculations refer to:
   * S. Spicher and S. Grimme, J. Chem. Theory Comput., 2021, 17, 1701-1714
     DOI: 10.1021/acs.jctc.0c01306
   
   with help from (in alphabetical order)
   P. Atkinson, C. Bannwarth, F. Bohle, G. Brandenburg, E. Caldeweyher
   M. Checinski, S. Dohm, S. Ehlert, S. Ehrlich, I. Gerasimov, C. Hölzer
   A. Katbashev, J. Koopman, C. Lavigne, S. Lehtola, F. März, M. Müller,
   F. Musil, H. Neugebauer, J. Pisarek, C. Plett, P. Pracht, F. Pultar,
   J. Seibert, P. Shushkov, S. Spicher, M. Stahn, M. Steiner, T. Strunk,
   J. Stückrath, T. Rose, and J. Unsleber
   
 * started run on 2023/01/24 at 14:57:47.202     

           -------------------------------------------------
          |                Calculation Setup                |
           -------------------------------------------------

          program call               : xtb init.xyz --opt -c 1 -u 0 -P 16 --alpb water
          hostname                   : gpg-woodward
          coordinate file            : init.xyz
          omp threads                :                    16

   ID    Z sym.   atoms
    1    7 N      1
    2    6 C      2-5
    3    8 O      6, 7
    4    1 H      8-17

           -------------------------------------------------
          |                 G F N 2 - x T B                 |
           -------------------------------------------------

        Reference                      10.1021/acs.jctc.8b01176
      * Hamiltonian:
        H0-scaling (s, p, d)           1.850000    2.230000    2.230000
        zeta-weighting                 0.500000
      * Dispersion:
        s8                             2.700000
        a1                             0.520000
        a2                             5.000000
        s9                             5.000000
      * Repulsion:
        kExp                           1.500000    1.000000
        rExp                           1.000000
      * Coulomb:
        alpha                          2.000000
        third order                    shell-resolved
        anisotropic                    true
        a3                             3.000000
        a5                             4.000000
        cn-shift                       1.200000
        cn-exp                         4.000000
        max-rad                        5.000000

      * Solvation model:               ALPB
        Solvent                        water
        Parameter file                 internal GFN2-xTB/ALPB
        Dielectric constant                8.0200E+01
        Reference state                gsolv [1 M gas/solution]
        Free energy shift                  1.0808E-03 Eh       6.7819E-01 kcal/mol
        Temperature                        2.9815E+02 K
        Density                            1.0000E+00 kg/L
        Solvent mass                       1.8000E+01 g/mol
        Interaction kernel             P16
        Born radius scaling (c1)           1.4744E+00
        Born radii integrator          GBOBC
        Born offset                        0.0000E+00 a0       0.0000E+00 AA
        H-bond correction              true
        Ion screening                  false
        Surface tension                    1.0000E-05 Eh       1.5569E+01 dyn/cm
        Grid points                               230 per atom

          ...................................................
          :                      SETUP                      :
          :.................................................:
          :  # basis functions                  38          :
          :  # atomic orbitals                  38          :
          :  # shells                           24          :
          :  # electrons                        42          :
          :  max. iterations                   250          :
          :  Hamiltonian                  GFN2-xTB          :
          :  restarted?                      false          :
          :  GBSA solvation                   true          :
          :  PC potential                    false          :
          :  electronic temp.          300.0000000     K    :
          :  accuracy                    1.0000000          :
          :  -> integral cutoff          0.2500000E+02      :
          :  -> integral neglect         0.1000000E-07      :
          :  -> SCF convergence          0.1000000E-05 Eh   :
          :  -> wf. convergence          0.1000000E-03 e    :
          :  Broyden damping             0.4000000          :
          ...................................................

 iter      E             dE          RMSdq      gap      omega  full diag
   1    -24.5677430 -0.245677E+02  0.474E+00    4.95       0.0  T
   2    -24.6546122 -0.868693E-01  0.234E+00    4.77       1.0  T
   3    -24.6586338 -0.402153E-02  0.121E+00    5.06       1.0  T
   4    -24.6593264 -0.692672E-03  0.316E-01    4.82       1.0  T
   5    -24.6599390 -0.612537E-03  0.910E-02    4.93       1.0  T
   6    -24.6599467 -0.777119E-05  0.372E-02    4.92       1.0  T
   7    -24.6599482 -0.150411E-05  0.832E-03    4.92       2.9  T
   8    -24.6599483 -0.727537E-07  0.352E-03    4.92       6.9  T
   9    -24.6599484 -0.351251E-07  0.120E-03    4.92      20.2  T
  10    -24.6599484 -0.258592E-08  0.606E-04    4.92      40.0  T
  11    -24.6599484 -0.263578E-08  0.144E-04    4.92     167.9  T

   *** convergence criteria satisfied after 11 iterations ***

         #    Occupation            Energy/Eh            Energy/eV
      -------------------------------------------------------------
         1        2.0000           -0.7415213             -20.1778
       ...           ...                  ...                  ...
        15        2.0000           -0.5109884             -13.9047
        16        2.0000           -0.4821786             -13.1207
        17        2.0000           -0.4810631             -13.0904
        18        2.0000           -0.4753580             -12.9352
        19        2.0000           -0.4706161             -12.8061
        20        2.0000           -0.4432349             -12.0610
        21        2.0000           -0.4244604             -11.5502 (HOMO)
        22                         -0.2437026              -6.6315 (LUMO)
        23                         -0.0600783              -1.6348
        24                          0.0400767               1.0905
        25                          0.0591109               1.6085
        26                          0.0715009               1.9456
       ...                                ...                  ...
        38                          0.5729176              15.5899
      -------------------------------------------------------------
                  HL-Gap            0.1807577 Eh            4.9187 eV
             Fermi-level           -0.3340815 Eh           -9.0908 eV

 SCC (total)                   0 d,  0 h,  0 min,  0.016 sec
 SCC setup                      ...        0 min,  0.000 sec (  1.839%)
 Dispersion                     ...        0 min,  0.000 sec (  1.752%)
 classical contributions        ...        0 min,  0.000 sec (  0.339%)
 integral evaluation            ...        0 min,  0.001 sec (  4.134%)
 iterations                     ...        0 min,  0.013 sec ( 79.884%)
 molecular gradient             ...        0 min,  0.002 sec (  9.654%)
 printout                       ...        0 min,  0.000 sec (  0.839%)

         :::::::::::::::::::::::::::::::::::::::::::::::::::::
         ::                     SUMMARY                     ::
         :::::::::::::::::::::::::::::::::::::::::::::::::::::
         :: total energy             -24.402864824661 Eh    ::
         :: total w/o Gsasa/hb       -24.387397033605 Eh    ::
         :: gradient norm              0.035117018620 Eh/a0 ::
         :: HOMO-LUMO gap              4.918668602143 eV    ::
         ::.................................................::
         :: SCC energy               -24.659948360732 Eh    ::
         :: -> isotropic ES            0.199605880015 Eh    ::
         :: -> anisotropic ES         -0.014780585123 Eh    ::
         :: -> anisotropic XC          0.008944009267 Eh    ::
         :: -> dispersion             -0.008118149525 Eh    ::
         :: -> Gsolv                  -0.143340799719 Eh    ::
         ::    -> Gelec               -0.127873008664 Eh    ::
         ::    -> Gsasa                0.002851211338 Eh    ::
         ::    -> Ghb                 -0.019399762091 Eh    ::
         ::    -> Gshift               0.001080759698 Eh    ::
         :: repulsion energy           0.257088243783 Eh    ::
         :: add. restraining           0.000000000000 Eh    ::
         :: total charge               1.000000000000 e     ::
         :::::::::::::::::::::::::::::::::::::::::::::::::::::

      ----------------------------------------------------------- 
     |                   =====================                   |
     |                        A N C O P T                        |
     |                   =====================                   |
     |               Approximate Normal Coordinate               |
     |                Rational Function Optimizer                |
      ----------------------------------------------------------- 

          ...................................................
          :                      SETUP                      :
          :.................................................:
          :   optimization level            normal          :
          :   max. optcycles                   200          :
          :   ANC micro-cycles                  20          :
          :   degrees of freedom                45          :
          :.................................................:
          :   RF solver                   davidson          :
          :   write xtbopt.log                true          :
          :   linear?                        false          :
          :   energy convergence         0.5000000E-05 Eh   :
          :   grad. convergence          0.1000000E-02 Eh/α :
          :   maximium RF displ.         1.0000000          :
          :   Hlow (freq-cutoff)         0.1000000E-01      :
          :   Hmax (freq-cutoff)         5.0000000          :
          :   S6 in model hess.         20.0000000          :
          ...................................................

generating ANC from model Hessian ...
Using Lindh-Hessian (1995)
 Shifting diagonal of input Hessian by    7.3660086219002694E-003
 Lowest  eigenvalues of input Hessian
    0.000000    0.000000    0.000000    0.000000    0.000000    0.000000
    0.010000    0.011103    0.011297    0.016112    0.022206    0.023263
    0.025305    0.043839    0.050373    0.050668    0.059376    0.062598
 Highest eigenvalues
    1.320179    1.393803    1.396522    1.453162    1.714922    2.259393


........................................................................
.............................. CYCLE    1 ..............................
........................................................................
   1    -24.6599484 -0.246599E+02  0.522E-05    4.92       0.0  T
   2    -24.6599484 -0.289901E-11  0.351E-05    4.92     691.2  T
   3    -24.6599484 -0.202860E-11  0.808E-06    4.92    3002.8  T
     SCC iter.                  ...        0 min,  0.003 sec
     gradient                   ...        0 min,  0.001 sec
 * total energy  :   -24.4028648 Eh     change       -0.4842704E-10 Eh
   gradient norm :     0.0351174 Eh/α   predicted     0.0000000E+00 (-100.00%)
   displ. norm   :     0.1239791 α      lambda       -0.3083738E-02
   maximum displ.:     0.0703111 α      in ANC's #15, #29, #7, ...

........................................................................
.............................. CYCLE    2 ..............................
........................................................................
   1    -24.6695692 -0.246696E+02  0.174E-01    5.06       0.0  T
   2    -24.6695874 -0.181550E-04  0.103E-01    5.05       1.0  T
   3    -24.6695869  0.509917E-06  0.237E-02    5.06       1.0  T
   4    -24.6695899 -0.303045E-05  0.557E-03    5.05       4.4  T
   5    -24.6695900 -0.563745E-07  0.323E-03    5.05       7.5  T
   6    -24.6695900 -0.105685E-07  0.744E-04    5.05      32.6  T
   7    -24.6695900 -0.107483E-08  0.269E-04    5.05      90.2  T
     SCC iter.                  ...        0 min,  0.007 sec
     gradient                   ...        0 min,  0.001 sec
 * total energy  :   -24.4047945 Eh     change       -0.1929629E-02 Eh
   gradient norm :     0.0117703 Eh/α   predicted    -0.1565569E-02 ( -18.87%)
   displ. norm   :     0.0771879 α      lambda       -0.4941429E-03
   maximum displ.:     0.0607668 α      in ANC's #7, #29, #28, ...

........................................................................
.............................. CYCLE    3 ..............................
........................................................................
   1    -24.6720099 -0.246720E+02  0.683E-02    5.09       0.0  T
   2    -24.6720155 -0.553548E-05  0.395E-02    5.08       1.0  T
   3    -24.6720157 -0.218720E-06  0.112E-02    5.09       2.2  T
   4    -24.6720159 -0.161741E-06  0.275E-03    5.08       8.8  T
   5    -24.6720159 -0.336078E-07  0.127E-03    5.08      19.1  T
   6    -24.6720159 -0.138851E-08  0.497E-04    5.08      48.8  T
   7    -24.6720159 -0.261991E-09  0.110E-04    5.08     221.1  T
     SCC iter.                  ...        0 min,  0.007 sec
     gradient                   ...        0 min,  0.001 sec
 * total energy  :   -24.4050682 Eh     change       -0.2737124E-03 Eh
   gradient norm :     0.0055577 Eh/α   predicted    -0.2485439E-03 (  -9.20%)
   displ. norm   :     0.0149670 α      lambda       -0.2889242E-04
   maximum displ.:     0.0092044 α      in ANC's #7, #19, #2, ...

........................................................................
.............................. CYCLE    4 ..............................
........................................................................
   1    -24.6717410 -0.246717E+02  0.138E-02    5.07       0.0  T
   2    -24.6717417 -0.759916E-06  0.735E-03    5.07       3.3  T
   3    -24.6717418 -0.300901E-07  0.349E-03    5.07       6.9  T
   4    -24.6717418 -0.555265E-08  0.886E-04    5.07      27.4  T
   5    -24.6717418 -0.258424E-08  0.280E-04    5.07      86.7  T
     SCC iter.                  ...        0 min,  0.005 sec
     gradient                   ...        0 min,  0.001 sec
 * total energy  :   -24.4050862 Eh     change       -0.1807050E-04 Eh
   gradient norm :     0.0019348 Eh/α   predicted    -0.1445094E-04 ( -20.03%)
   displ. norm   :     0.0111880 α      lambda       -0.4599724E-05
   maximum displ.:     0.0071652 α      in ANC's #2, #7, #15, ...

........................................................................
.............................. CYCLE    5 ..............................
........................................................................
   1    -24.6713846 -0.246714E+02  0.823E-03    5.07       0.0  T
   2    -24.6713848 -0.243214E-06  0.455E-03    5.07       5.3  T
   3    -24.6713848 -0.101705E-07  0.207E-03    5.07      11.7  T
   4    -24.6713848 -0.356092E-08  0.532E-04    5.07      45.6  T
   5    -24.6713848 -0.892069E-09  0.196E-04    5.07     123.8  T
     SCC iter.                  ...        0 min,  0.005 sec
     gradient                   ...        0 min,  0.001 sec
 * total energy  :   -24.4050888 Eh     change       -0.2567886E-05 Eh
   gradient norm :     0.0008109 Eh/α   predicted    -0.2301121E-05 ( -10.39%)
   displ. norm   :     0.0034092 α      lambda       -0.5678224E-06
   maximum displ.:     0.0018040 α      in ANC's #7, #2, #4, ...

   *** GEOMETRY OPTIMIZATION CONVERGED AFTER 5 ITERATIONS ***

------------------------------------------------------------------------
 total energy gain   :        -0.0022240 Eh       -1.3956 kcal/mol
 total RMSD          :         0.0475283 a0        0.0252 Å
 total power (kW/mol):        -1.1678116 (step) -118.7458 (real)
------------------------------------------------------------------------

 ANCopt (total)                0 d,  0 h,  0 min,  0.049 sec
 optimizer setup                ...        0 min,  0.000 sec (  0.318%)
 model hessian                  ...        0 min,  0.005 sec ( 10.347%)
 ANC generation                 ...        0 min,  0.001 sec (  1.962%)
 coordinate transformation      ...        0 min,  0.000 sec (  0.330%)
 single point calculation       ...        0 min,  0.040 sec ( 81.704%)
 optimization log               ...        0 min,  0.001 sec (  1.213%)
 hessian update                 ...        0 min,  0.000 sec (  0.313%)
 rational function              ...        0 min,  0.001 sec (  1.967%)

================
 final structure:
================
17
 xtb: 6.5.1 (fef0646)
N            1.02856544514889        0.06413196793964       -0.02096273799348
C            2.50977377728111        0.06583333082185       -0.04121483831859
C            3.01969971982249        0.40845813355195       -1.43739824875575
C            4.54736575222653        0.41696970103591       -1.47562560308813
C            5.05617682662030        0.75476679111124       -2.85732217577253
O            6.37979172981915        0.79080586766823       -3.00464923821150
O            4.33238625997266        0.98498302437935       -3.79913238383172
H            0.67602732759804       -0.16414146730436        0.91573674170667
H            0.66620345609126       -0.62737187674394       -0.68819470671830
H            0.66941868054863        0.98702353754113       -0.29323249027146
H            2.87136387346522       -0.91950558505574        0.25281344423346
H            2.87544783917300        0.80044127706747        0.67619089211707
H            2.66536237081838        1.39110215412810       -1.75124038224879
H            2.66410632996928       -0.31644100114986       -2.17069162454085
H            4.94280827042322       -0.56271758556114       -1.19841362638654
H            4.94406928291809        1.15699859701591       -0.77699581878593
H            6.87875305810373        0.59356313355426       -2.19137720313362

 Bond Distances (Angstroems)
 ---------------------------
N1-C2=1.4813         N1-H8=1.0265         N1-H9=1.0270         N1-H10=1.0271        C2-N1=1.4813         C2-C3=1.5254         
C2-H11=1.0900        C2-H12=1.0900        C3-C2=1.5254         C3-C4=1.5282         C3-H13=1.0907        C3-H14=1.0907        
C4-C3=1.5282         C4-C5=1.5107         C4-H15=1.0922        C4-H16=1.0923        C5-C4=1.5107         C5-O6=1.3323         
C5-O7=1.2099         O6-C5=1.3323         O6-H17=0.9743        O7-C5=1.2099         H8-N1=1.0265         H9-N1=1.0270         
H10-N1=1.0271        H11-C2=1.0900        H12-C2=1.0900        H13-C3=1.0907        H14-C3=1.0907        H15-C4=1.0922        
H16-C4=1.0923        H17-O6=0.9743        
 C  H  Rav=1.0910 sigma=0.0010  Rmin=1.0900  Rmax=1.0923     6
 C  C  Rav=1.5214 sigma=0.0077  Rmin=1.5107  Rmax=1.5282     3
 N  H  Rav=1.0269 sigma=0.0002  Rmin=1.0265  Rmax=1.0271     3
 N  C  Rav=1.4813 sigma=0.0000  Rmin=1.4813  Rmax=1.4813     1
 O  H  Rav=0.9743 sigma=0.0000  Rmin=0.9743  Rmax=0.9743     1
 O  C  Rav=1.2711 sigma=0.0612  Rmin=1.2099  Rmax=1.3323     2

 selected bond angles (degree)
 --------------------
H8-N1-C2=110.86                H9-N1-C2=110.16                H9-N1-H8=108.78                H10-N1-C2=110.18               
H10-N1-H8=108.76               H10-N1-H9=108.02               C3-C2-N1=110.31                H11-C2-N1=109.09               
H11-C2-C3=109.82               H12-C2-N1=109.10               H12-C2-C3=109.81               H12-C2-H11=108.69              
C4-C3-C2=111.00                H13-C3-C2=110.92               H13-C3-C4=108.21               H14-C3-C2=110.92               
H14-C3-C4=108.23               H14-C3-H13=107.42              C5-C4-C3=111.15                H15-C4-C3=110.52               
H15-C4-C5=108.10               H16-C4-C3=110.54               H16-C4-C5=108.13               H16-C4-H15=108.29              
O6-C5-C4=116.22                O7-C5-C4=123.57                O7-C5-O6=120.21                H17-O6-C5=114.27               

 selected dihedral angles (degree)
 ---------------------------------
C3-C2-N1-H8=180.09            C3-C2-N1-H9= 59.63            C3-C2-N1-H10=300.54           H11-C2-N1-H8= 59.39           
H11-C2-N1-H9=298.93           H11-C2-N1-H10=179.84          H12-C2-N1-H8=300.79           H12-C2-N1-H9=180.33           
H12-C2-N1-H10= 61.24          C4-C3-C2-N1=179.90            C4-C3-C2-H11=300.17           C4-C3-C2-H12= 59.63           
H13-C3-C2-N1= 59.56           H13-C3-C2-H11=179.82          H13-C3-C2-H12=299.28          H14-C3-C2-N1=300.26           
H14-C3-C2-H11= 60.53          H14-C3-C2-H12=179.99          C5-C4-C3-C2=179.95            C5-C4-C3-H13=301.89           
C5-C4-C3-H14= 58.00           H15-C4-C3-C2= 59.91           H15-C4-C3-H13=181.85          H15-C4-C3-H14=297.96          
H16-C4-C3-C2=300.03           H16-C4-C3-H13= 61.97          H16-C4-C3-H14=178.09          O6-C5-C4-C3=179.97            
O6-C5-C4-H15=301.43           O6-C5-C4-H16= 58.47           O7-C5-C4-C3=359.97            O7-C5-C4-H15=121.43           
O7-C5-C4-H16=238.46           H17-O6-C5-C4=359.90           H17-O6-C5-O7=179.90           
           -------------------------------------------------
          |                Final Singlepoint                |
           -------------------------------------------------

          ...................................................
          :                      SETUP                      :
          :.................................................:
          :  # basis functions                  38          :
          :  # atomic orbitals                  38          :
          :  # shells                           24          :
          :  # electrons                        42          :
          :  max. iterations                   250          :
          :  Hamiltonian                  GFN2-xTB          :
          :  restarted?                      false          :
          :  GBSA solvation                   true          :
          :  PC potential                    false          :
          :  electronic temp.          300.0000000     K    :
          :  accuracy                    1.0000000          :
          :  -> integral cutoff          0.2500000E+02      :
          :  -> integral neglect         0.1000000E-07      :
          :  -> SCF convergence          0.1000000E-05 Eh   :
          :  -> wf. convergence          0.1000000E-03 e    :
          :  Broyden damping             0.4000000          :
          ...................................................

 iter      E             dE          RMSdq      gap      omega  full diag
   1    -24.6713848 -0.246714E+02  0.889E-05    5.07       0.0  T
   2    -24.6713848 -0.556000E-11  0.579E-05    5.07     419.0  T
   3    -24.6713848 -0.154188E-11  0.136E-05    5.07    1788.3  T

   *** convergence criteria satisfied after 3 iterations ***

         #    Occupation            Energy/Eh            Energy/eV
      -------------------------------------------------------------
         1        2.0000           -0.7459095             -20.2972
       ...           ...                  ...                  ...
        15        2.0000           -0.5097421             -13.8708
        16        2.0000           -0.4831023             -13.1459
        17        2.0000           -0.4829603             -13.1420
        18        2.0000           -0.4756178             -12.9422
        19        2.0000           -0.4702332             -12.7957
        20        2.0000           -0.4443450             -12.0912
        21        2.0000           -0.4251119             -11.5679 (HOMO)
        22                         -0.2389356              -6.5018 (LUMO)
        23                         -0.0542055              -1.4750
        24                          0.0415020               1.1293
        25                          0.0645769               1.7572
        26                          0.0712419               1.9386
       ...                                ...                  ...
        38                          0.6001868              16.3319
      -------------------------------------------------------------
                  HL-Gap            0.1861763 Eh            5.0661 eV
             Fermi-level           -0.3320238 Eh           -9.0348 eV

 SCC (total)                   0 d,  0 h,  0 min,  0.006 sec
 SCC setup                      ...        0 min,  0.000 sec (  3.520%)
 Dispersion                     ...        0 min,  0.000 sec (  3.048%)
 classical contributions        ...        0 min,  0.000 sec (  0.707%)
 integral evaluation            ...        0 min,  0.001 sec (  9.692%)
 iterations                     ...        0 min,  0.003 sec ( 53.383%)
 molecular gradient             ...        0 min,  0.001 sec ( 23.889%)
 printout                       ...        0 min,  0.000 sec (  2.112%)

         :::::::::::::::::::::::::::::::::::::::::::::::::::::
         ::                     SUMMARY                     ::
         :::::::::::::::::::::::::::::::::::::::::::::::::::::
         :: total energy             -24.405088804531 Eh    ::
         :: total w/o Gsasa/hb       -24.389609009328 Eh    ::
         :: gradient norm              0.000811291665 Eh/a0 ::
         :: HOMO-LUMO gap              5.066115445857 eV    ::
         ::.................................................::
         :: SCC energy               -24.671384819748 Eh    ::
         :: -> isotropic ES            0.199779381826 Eh    ::
         :: -> anisotropic ES         -0.015507514575 Eh    ::
         :: -> anisotropic XC          0.008568197944 Eh    ::
         :: -> dispersion             -0.008139997003 Eh    ::
         :: -> Gsolv                  -0.143521206169 Eh    ::
         ::    -> Gelec               -0.128041410966 Eh    ::
         ::    -> Gsasa                0.002827994525 Eh    ::
         ::    -> Ghb                 -0.019388549427 Eh    ::
         ::    -> Gshift               0.001080759698 Eh    ::
         :: repulsion energy           0.266301598328 Eh    ::
         :: add. restraining           0.000000000000 Eh    ::
         :: total charge               1.000000000000 e     ::
         :::::::::::::::::::::::::::::::::::::::::::::::::::::

           -------------------------------------------------
          |                Property Printout                |
           -------------------------------------------------

    * Orbital Energies and Occupations

         #    Occupation            Energy/Eh            Energy/eV
      -------------------------------------------------------------
         1        2.0000           -0.7459095             -20.2972
       ...           ...                  ...                  ...
         9        2.0000           -0.5898080             -16.0495
        10        2.0000           -0.5824676             -15.8497
        11        2.0000           -0.5687500             -15.4765
        12        2.0000           -0.5533363             -15.0570
        13        2.0000           -0.5479755             -14.9112
        14        2.0000           -0.5232128             -14.2373
        15        2.0000           -0.5097421             -13.8708
        16        2.0000           -0.4831023             -13.1459
        17        2.0000           -0.4829603             -13.1420
        18        2.0000           -0.4756178             -12.9422
        19        2.0000           -0.4702332             -12.7957
        20        2.0000           -0.4443450             -12.0912
        21        2.0000           -0.4251119             -11.5679 (HOMO)
        22                         -0.2389356              -6.5018 (LUMO)
        23                         -0.0542055              -1.4750
        24                          0.0415020               1.1293
        25                          0.0645769               1.7572
        26                          0.0712419               1.9386
        27                          0.0989336               2.6921
        28                          0.1181110               3.2140
        29                          0.1334448               3.6312
        30                          0.1441705               3.9231
        31                          0.1607958               4.3755
        32                          0.1626790               4.4267
       ...                                ...                  ...
        38                          0.6001868              16.3319
      -------------------------------------------------------------
                  HL-Gap            0.1861763 Eh            5.0661 eV
             Fermi-level           -0.3320238 Eh           -9.0348 eV

     #   Z          covCN         q      C6AA      α(0)
     1   7 N        3.485    -0.161    24.480     7.349
     2   6 C        3.733    -0.041    21.405     6.604
     3   6 C        3.804    -0.082    22.057     6.686
     4   6 C        3.803    -0.120    22.786     6.796
     5   6 C        2.689     0.371    20.714     7.448
     6   8 O        1.659    -0.437    21.570     6.270
     7   8 O        0.856    -0.468    23.093     6.443
     8   1 H        0.859     0.320     0.657     1.270
     9   1 H        0.859     0.309     0.687     1.299
    10   1 H        0.859     0.309     0.687     1.298
    11   1 H        0.925     0.116     1.644     2.005
    12   1 H        0.925     0.116     1.645     2.006
    13   1 H        0.924     0.077     2.015     2.220
    14   1 H        0.924     0.077     2.015     2.220
    15   1 H        0.924     0.100     1.787     2.091
    16   1 H        0.924     0.100     1.788     2.091
    17   1 H        0.804     0.415     0.457     1.062

 Mol. C6AA /au·bohr⁶  :       1949.457325
 Mol. C8AA /au·bohr⁸  :      41825.213640
 Mol. α(0) /au        :         65.156994


Wiberg/Mayer (AO) data.
largest (>0.10) Wiberg bond orders for each atom

 ---------------------------------------------------------------------------
     #   Z sym  total        # sym  WBO       # sym  WBO       # sym  WBO
 ---------------------------------------------------------------------------
     1   7 N    3.652 --     2 C    0.970     9 H    0.890    10 H    0.889
                             8 H    0.885
     2   6 C    3.926 --     3 C    1.011     1 N    0.970    12 H    0.964
                            11 H    0.964
     3   6 C    3.986 --     2 C    1.011     4 C    1.005    14 H    0.971
                            13 H    0.971
     4   6 C    3.989 --     3 C    1.005     5 C    0.983    16 H    0.945
                            15 H    0.945
     5   6 C    3.895 --     7 O    1.722     6 O    1.153     4 C    0.983
     6   8 O    2.167 --     5 C    1.153    17 H    0.806     7 O    0.157
     7   8 O    1.994 --     5 C    1.722     6 O    0.157
     8   1 H    0.897 --     1 N    0.885
     9   1 H    0.905 --     1 N    0.890
    10   1 H    0.904 --     1 N    0.889
    11   1 H    0.987 --     2 C    0.964
    12   1 H    0.987 --     2 C    0.964
    13   1 H    0.994 --     3 C    0.971
    14   1 H    0.994 --     3 C    0.971
    15   1 H    0.990 --     4 C    0.945
    16   1 H    0.990 --     4 C    0.945
    17   1 H    0.828 --     6 O    0.806
 ---------------------------------------------------------------------------

Topologies differ in total number of bonds
Writing topology from bond orders to xtbtopo.mol

molecular dipole:
                 x           y           z       tot (Debye)
 q only:        2.924      -0.359       1.928
   full:        2.967      -0.395       2.078       9.261
molecular quadrupole (traceless):
                xx          xy          yy          xz          yz          zz
 q only:       33.442      -4.943      -2.454      22.261       7.750     -30.987
  q+dip:       34.212      -5.445      -0.311      24.373       9.093     -33.901
   full:       35.017      -5.398      -0.655      24.172       9.124     -34.362

           -------------------------------------------------
          |                Geometry Summary                 |
           -------------------------------------------------

      molecular mass/u    :      104.1278642
   center of mass at/Å    :        3.8188107       0.4939828      -1.7885126
  moments of inertia/u·Å² :        0.6385101E+02   0.4860767E+03   0.5377048E+03
rotational constants/cm⁻¹ :        0.2640151E+00   0.3468102E-01   0.3135109E-01

 * 15 selected distances

     #   Z          #   Z                                           value/Å
     1   7 N        2   6 C                                       1.4813479
     2   6 C        3   6 C                                       1.5253671
     3   6 C        4   6 C                                       1.5281681 (max)
     5   6 C        6   8 O                                       1.3322766
     5   6 C        7   8 O                                       1.2099087
     1   7 N        8   1 H                                       1.0265466
     1   7 N        9   1 H                                       1.0269773
     1   7 N       10   1 H                                       1.0270571
     2   6 C       11   1 H                                       1.0899968
     2   6 C       12   1 H                                       1.0899714
     3   6 C       13   1 H                                       1.0907068
     3   6 C       14   1 H                                       1.0907084
     4   6 C       15   1 H                                       1.0922494
     4   6 C       16   1 H                                       1.0922913
     6   8 O       17   1 H                                       0.9743093 (min)

 * 6 distinct bonds (by element types)

   Z      Z             #   av. dist./Å        max./Å        min./Å
   1 H    6 C           6     1.0909873     1.0922913     1.0899714
   6 C    6 C           2     1.5267676     1.5281681     1.5253671
   1 H    7 N           3     1.0268604     1.0270571     1.0265466
   6 C    7 N           1     1.4813479     1.4813479     1.4813479
   1 H    8 O           1     0.9743093     0.9743093     0.9743093
   6 C    8 O           2     1.2710926     1.3322766     1.2099087


optimized geometry written to: xtbopt.xyz


           -------------------------------------------------
          | TOTAL ENERGY              -24.405088804531 Eh   |
          | GRADIENT NORM               0.000811291665 Eh/α |
          | HOMO-LUMO GAP               5.066115445857 eV   |
           -------------------------------------------------

------------------------------------------------------------------------
 * finished run on 2023/01/24 at 14:57:47.294     
------------------------------------------------------------------------
 total:
 * wall-time:     0 d,  0 h,  0 min,  0.092 sec
 *  cpu-time:     0 d,  0 h,  0 min, 12.890 sec
 * ratio c/w:   140.046 speedup
 SCF:
 * wall-time:     0 d,  0 h,  0 min,  0.016 sec
 *  cpu-time:     0 d,  0 h,  0 min,  2.258 sec
 * ratio c/w:   140.676 speedup
 ANC optimizer:
 * wall-time:     0 d,  0 h,  0 min,  0.056 sec
 *  cpu-time:     0 d,  0 h,  0 min,  7.977 sec
 * ratio c/w:   142.009 speedup

