 Entering Gaussian System
 *********************************************
 Gaussian 98:
 frequency output generated by the xtb code
 *********************************************
                         Standard orientation:
 --------------------------------------------------------------------
  Center     Atomic     Atomic              Coordinates (Angstroms)
  Number     Number      Type              X           Y           Z
 --------------------------------------------------------------------
    1          7             0       -1.795016    1.305978   -0.890346
    2          6             0       -2.441802    1.192324    0.439226
    3          6             0       -1.666154    2.028381    1.445562
    4          8             0       -0.260906    1.867064    1.273738
    5          6             0        0.212458    0.560911    1.415988
    6          6             0       -0.340754   -0.378894    2.271152
    7          6             0        0.160089   -1.675127    2.342683
    8          6             0        1.217625   -2.061854    1.566279
    9          6             0        1.827577   -1.149118    0.681866
   10          6             0        2.915012   -1.512786   -0.142288
   11          6             0        3.478014   -0.604380   -0.993111
   12          6             0        2.987170    0.702323   -1.058642
   13          6             0        1.935975    1.084539   -0.272219
   14          6             0        1.332683    0.173834    0.611975
   15         17             0       -3.056846   -0.948220   -3.182168
   16          1             0       -1.874213    2.268828   -1.262878
   17          1             0       -2.186832    0.649409   -1.588634
   18          1             0       -0.786417    1.107013   -0.782529
   19          1             0       -2.441357    0.140534    0.747888
   20          1             0       -3.494931    1.493499    0.391370
   21          1             0       -1.935062    1.809345    2.484374
   22          1             0       -1.866679    3.094322    1.288781
   23          1             0       -1.164500   -0.096209    2.902165
   24          1             0       -0.293312   -2.382593    3.018995
   25          1             0        1.597500   -3.068436    1.623730
   26          1             0        3.294157   -2.519888   -0.091897
   27          1             0        4.308210   -0.894195   -1.618054
   28          1             0        3.443402    1.411919   -1.730695
   29          1             0        1.562920    2.094861   -0.306729
 --------------------------------------------------------------------
     1 basis functions        1 primitive gaussians
     1 alpha electrons        1 beta electrons

 Harmonic frequencies (cm**-1), IR intensities (km*mol⁻¹),
 Raman scattering activities (A**4/amu), Raman depolarization ratios,
 reduced masses (AMU), force constants (mDyne/A) and normal coordinates:
                      1                      2                      3
                        a                      a                      a 
 Frequencies --  -125.6659                16.9596                35.2618
 Red. masses --    25.4627                17.4640                15.3326
 Frc consts  --     0.0000                 0.0000                 0.0000
 IR Inten    --   128.8038                 0.8939                 0.3839
 Raman Activ --     0.0000                 0.0000                 0.0000
 Depolar     --     0.0000                 0.0000                 0.0000
 Atom AN      X      Y      Z        X      Y      Z        X      Y      Z
   1   7     0.17   0.36   0.20    -0.20  -0.09   0.01     0.15  -0.17   0.10
   2   6     0.06   0.17   0.12    -0.09   0.04   0.07     0.08   0.03   0.09
   3   6     0.07   0.06   0.20     0.05   0.05  -0.04     0.06   0.12   0.03
   4   8     0.06   0.04   0.14     0.03  -0.01  -0.17     0.08   0.13   0.11
   5   6     0.03   0.01   0.07     0.01  -0.01  -0.12     0.01   0.08   0.01
   6   6     0.03  -0.00   0.05    -0.07  -0.03  -0.19    -0.06   0.06  -0.05
   7   6     0.01  -0.01   0.02    -0.08  -0.03  -0.17    -0.21  -0.01  -0.21
   8   6     0.00  -0.00   0.00    -0.00  -0.02  -0.08    -0.29  -0.04  -0.30
   9   6    -0.00   0.00   0.01     0.09   0.00   0.01    -0.18  -0.00  -0.18
  10   6    -0.01   0.00  -0.01     0.19   0.02   0.13    -0.21  -0.02  -0.21
  11   6    -0.02   0.01  -0.01     0.30   0.05   0.23    -0.07   0.04  -0.06
  12   6    -0.03   0.00  -0.01     0.32   0.06   0.22     0.12   0.12   0.14
  13   6    -0.01   0.01   0.01     0.22   0.04   0.10     0.13   0.13   0.15
  14   6     0.00   0.01   0.03     0.10   0.01  -0.01    -0.01   0.07  -0.01
  15  17    -0.26  -0.46  -0.56    -0.52  -0.04   0.00     0.22  -0.31   0.21
  16   1     0.02   0.10   0.07    -0.03  -0.02   0.00     0.06  -0.06  -0.00
  17   1     0.09   0.11   0.05    -0.10  -0.01   0.02     0.03  -0.06   0.05
  18   1     0.05   0.13   0.08    -0.06  -0.06  -0.02     0.03  -0.07   0.04
  19   1     0.01   0.04   0.00    -0.04   0.02   0.04     0.01   0.02   0.06
  20   1     0.02   0.05   0.03    -0.02   0.03   0.04     0.03   0.02   0.00
  21   1     0.03  -0.01   0.05     0.04   0.04  -0.00     0.01   0.06   0.01
  22   1     0.02   0.02   0.09     0.03   0.01  -0.03     0.02   0.03  -0.02
  23   1     0.01  -0.00   0.02    -0.04  -0.01  -0.08    -0.00   0.03  -0.00
  24   1     0.00  -0.01   0.00    -0.04  -0.01  -0.07    -0.08  -0.01  -0.08
  25   1     0.00  -0.00  -0.00    -0.00  -0.01  -0.02    -0.12  -0.03  -0.13
  26   1    -0.00   0.00  -0.00     0.05   0.01   0.04    -0.10  -0.02  -0.10
  27   1    -0.01   0.00  -0.01     0.11   0.02   0.09    -0.02   0.01  -0.02
  28   1    -0.01   0.00  -0.00     0.12   0.02   0.09     0.07   0.05   0.08
  29   1     0.00   0.00   0.01     0.06   0.01   0.02     0.07   0.05   0.09
                      4                      5                      6
                        a                      a                      a 
 Frequencies --    64.6272               106.6490               116.3725
 Red. masses --    16.6783                11.8254                13.7529
 Frc consts  --     0.0000                 0.0000                 0.0000
 IR Inten    --    23.9226                13.0371                21.7996
 Raman Activ --     0.0000                 0.0000                 0.0000
 Depolar     --     0.0000                 0.0000                 0.0000
 Atom AN      X      Y      Z        X      Y      Z        X      Y      Z
   1   7     0.26  -0.43  -0.05    -0.44   0.06   0.04    -0.14  -0.36   0.34
   2   6     0.16  -0.26  -0.07    -0.13  -0.14   0.15    -0.09  -0.01   0.37
   3   6    -0.02  -0.07  -0.10    -0.04  -0.06   0.02     0.07   0.13   0.14
   4   8     0.03   0.07   0.11    -0.05   0.01  -0.18     0.05   0.09  -0.03
   5   6     0.07   0.09   0.12     0.07   0.06   0.00    -0.01   0.06  -0.07
   6   6     0.11   0.11   0.17     0.15   0.13   0.13    -0.02   0.08  -0.05
   7   6     0.07   0.09   0.14     0.14   0.13   0.19    -0.08   0.06  -0.05
   8   6    -0.01   0.05   0.05    -0.01   0.03   0.03    -0.04   0.04   0.00
   9   6    -0.03   0.04   0.02    -0.05  -0.03  -0.05    -0.01   0.02   0.01
  10   6    -0.09   0.01  -0.05    -0.18  -0.13  -0.18     0.08   0.01   0.12
  11   6    -0.08   0.01  -0.04    -0.07  -0.14  -0.11     0.07  -0.04   0.06
  12   6     0.00   0.05   0.05     0.19  -0.03   0.12    -0.07  -0.10  -0.17
  13   6     0.05   0.07   0.10     0.23   0.04   0.15    -0.12  -0.08  -0.24
  14   6     0.03   0.06   0.08     0.08   0.02   0.02    -0.05   0.00  -0.11
  15  17    -0.37   0.15  -0.31     0.14   0.03  -0.23     0.23   0.10  -0.28
  16   1     0.20  -0.08   0.03    -0.25  -0.00  -0.01     0.06  -0.09   0.09
  17   1    -0.04  -0.02  -0.05    -0.04  -0.05   0.03    -0.10  -0.05   0.08
  18   1     0.04  -0.27  -0.04    -0.09   0.16  -0.01    -0.06  -0.20   0.07
  19   1     0.05  -0.06   0.02     0.03  -0.04   0.03    -0.06   0.02   0.17
  20   1     0.04  -0.09  -0.06    -0.06  -0.09   0.11    -0.01   0.03   0.10
  21   1    -0.03   0.00  -0.03     0.03  -0.01   0.02     0.06   0.08   0.06
  22   1    -0.03  -0.03  -0.07    -0.03  -0.02  -0.00     0.02   0.03   0.00
  23   1     0.05   0.04   0.07     0.06   0.05   0.05     0.00   0.03  -0.01
  24   1     0.03   0.03   0.05     0.06   0.06   0.09    -0.04   0.02  -0.02
  25   1    -0.02   0.01   0.00    -0.02   0.00   0.00    -0.01   0.01   0.01
  26   1    -0.04  -0.01  -0.03    -0.10  -0.06  -0.09     0.05   0.01   0.08
  27   1    -0.04  -0.00  -0.03    -0.05  -0.06  -0.06     0.04  -0.01   0.05
  28   1     0.01   0.02   0.02     0.10  -0.00   0.07    -0.04  -0.05  -0.08
  29   1     0.03   0.03   0.05     0.11   0.03   0.08    -0.06  -0.03  -0.11
                      7                      8                      9
                        a                      a                      a 
 Frequencies --   155.3421               173.3027               196.1479
 Red. masses --     9.5358                 9.0237                10.4092
 Frc consts  --     0.0000                 0.0000                 0.0000
 IR Inten    --     1.6508                 1.7062                15.8373
 Raman Activ --     0.0000                 0.0000                 0.0000
 Depolar     --     0.0000                 0.0000                 0.0000
 Atom AN      X      Y      Z        X      Y      Z        X      Y      Z
   1   7    -0.03  -0.15   0.03     0.08  -0.09   0.02    -0.29  -0.07  -0.21
   2   6    -0.13   0.24   0.01    -0.19   0.34  -0.07     0.14   0.09   0.02
   3   6     0.06   0.13  -0.03     0.00   0.11  -0.01     0.28   0.23  -0.20
   4   8     0.03  -0.07  -0.08    -0.05  -0.11  -0.09     0.30  -0.05   0.02
   5   6    -0.02  -0.06   0.01    -0.11  -0.13  -0.08     0.06  -0.08   0.17
   6   6    -0.21  -0.15  -0.21     0.10  -0.05   0.14     0.07  -0.04   0.21
   7   6     0.00  -0.07  -0.03     0.26   0.02   0.25    -0.02  -0.10   0.01
   8   6     0.23   0.04   0.22     0.08  -0.05   0.03    -0.08  -0.13  -0.07
   9   6     0.17   0.04   0.17    -0.13  -0.11  -0.19     0.01  -0.09   0.03
  10   6    -0.03   0.00  -0.08    -0.09  -0.04  -0.18     0.06   0.08   0.01
  11   6    -0.26  -0.05  -0.29     0.09   0.11   0.09    -0.05   0.19   0.05
  12   6    -0.09   0.03  -0.03     0.11   0.12   0.20    -0.22   0.13   0.03
  13   6     0.15   0.08   0.26    -0.12  -0.04  -0.03    -0.21  -0.01   0.09
  14   6     0.15   0.03   0.21    -0.18  -0.14  -0.18    -0.01  -0.11   0.11
  15  17     0.04  -0.02  -0.06     0.04  -0.01  -0.00    -0.00  -0.05  -0.11
  16   1     0.09  -0.05  -0.02     0.18  -0.02  -0.01    -0.18  -0.05  -0.12
  17   1    -0.05  -0.03   0.02    -0.05   0.02   0.00    -0.08  -0.10   0.01
  18   1    -0.03  -0.13   0.03    -0.01  -0.17   0.04    -0.06   0.06  -0.12
  19   1    -0.14   0.08   0.04    -0.20   0.11   0.01     0.09   0.04   0.04
  20   1    -0.01   0.16  -0.02    -0.02   0.22  -0.08     0.03   0.00   0.08
  21   1     0.02   0.05  -0.00    -0.00   0.01  -0.01     0.04   0.16  -0.05
  22   1     0.06   0.05  -0.01     0.05   0.05   0.03     0.14   0.06  -0.15
  23   1    -0.14  -0.09  -0.14     0.06   0.00   0.08     0.04  -0.00   0.08
  24   1    -0.02  -0.03  -0.03     0.15   0.03   0.15    -0.01  -0.04  -0.01
  25   1     0.10   0.03   0.10     0.05  -0.00   0.03    -0.05  -0.05  -0.05
  26   1    -0.02  -0.01  -0.05    -0.03  -0.01  -0.08     0.06   0.04  -0.01
  27   1    -0.15  -0.04  -0.17     0.06   0.06   0.06    -0.00   0.09   0.02
  28   1    -0.05   0.01  -0.02     0.08   0.07   0.13    -0.10   0.05  -0.00
  29   1     0.07   0.03   0.12    -0.05  -0.02   0.00    -0.10  -0.02   0.05
                     10                     11                     12
                        a                      a                      a 
 Frequencies --   242.4058               273.4545               291.0310
 Red. masses --     9.1577                 7.8747                 9.2597
 Frc consts  --     0.0000                 0.0000                 0.0000
 IR Inten    --     7.1405                26.4854                17.5436
 Raman Activ --     0.0000                 0.0000                 0.0000
 Depolar     --     0.0000                 0.0000                 0.0000
 Atom AN      X      Y      Z        X      Y      Z        X      Y      Z
   1   7     0.13   0.04   0.11     0.30  -0.16   0.21    -0.05  -0.22  -0.12
   2   6     0.28  -0.25   0.15    -0.10   0.01   0.01    -0.03   0.13  -0.06
   3   6     0.13   0.10  -0.06    -0.02   0.00  -0.04    -0.11   0.14   0.01
   4   8     0.12   0.01  -0.10    -0.09  -0.10  -0.43    -0.04   0.11   0.55
   5   6    -0.15  -0.08  -0.18     0.01  -0.03  -0.00    -0.03   0.03   0.05
   6   6    -0.27  -0.08  -0.25     0.06   0.05   0.10    -0.01  -0.09  -0.05
   7   6     0.01   0.05   0.09    -0.01   0.01   0.01     0.08  -0.06  -0.03
   8   6     0.15   0.08   0.26    -0.09  -0.06  -0.07     0.16   0.07   0.03
   9   6    -0.08  -0.05  -0.04     0.04  -0.03   0.04    -0.01   0.09  -0.05
  10   6    -0.12  -0.02  -0.12     0.08   0.05   0.06    -0.05  -0.04  -0.04
  11   6    -0.04   0.08   0.04    -0.03   0.06   0.00     0.10  -0.11   0.00
  12   6     0.04   0.12   0.16    -0.09   0.04  -0.02     0.14  -0.10  -0.00
  13   6    -0.13  -0.01  -0.02    -0.02   0.01   0.08     0.04  -0.03  -0.14
  14   6    -0.16  -0.10  -0.15     0.05  -0.03   0.07    -0.05   0.08  -0.07
  15  17    -0.02   0.04   0.01    -0.09   0.11  -0.01    -0.07   0.03  -0.07
  16   1    -0.09   0.00   0.04    -0.18  -0.14  -0.14    -0.26  -0.16  -0.24
  17   1     0.09  -0.03   0.04     0.37  -0.27   0.12     0.17  -0.30   0.08
  18   1     0.06   0.14   0.01     0.14   0.33   0.25     0.04   0.24   0.05
  19   1     0.22  -0.07   0.05    -0.08   0.02   0.04    -0.04   0.05   0.03
  20   1     0.04  -0.20   0.07    -0.01   0.04  -0.06    -0.00   0.05  -0.04
  21   1     0.05   0.11   0.01     0.06   0.00   0.00    -0.13   0.05  -0.02
  22   1     0.02   0.01  -0.11    -0.00   0.00  -0.00     0.01   0.04  -0.02
  23   1    -0.10  -0.03  -0.10     0.02   0.02   0.04    -0.01  -0.04  -0.02
  24   1     0.03   0.03   0.07    -0.02   0.00  -0.01     0.04  -0.03  -0.01
  25   1     0.12   0.06   0.17    -0.07  -0.04  -0.06     0.09   0.04   0.03
  26   1    -0.04  -0.01  -0.07     0.04   0.02   0.01    -0.05  -0.03  -0.00
  27   1    -0.00   0.04   0.02    -0.01   0.02  -0.01     0.04  -0.04   0.02
  28   1     0.06   0.06   0.10    -0.05   0.01  -0.02     0.06  -0.03   0.01
  29   1    -0.05  -0.01   0.00    -0.01   0.00   0.04     0.03  -0.00  -0.08
                     13                     14                     15
                        a                      a                      a 
 Frequencies --   353.1610               387.1367               426.3915
 Red. masses --     8.1925                 9.2987                 9.6631
 Frc consts  --     0.0000                 0.0000                 0.0000
 IR Inten    --     5.5633                 0.3005                 0.3379
 Raman Activ --     0.0000                 0.0000                 0.0000
 Depolar     --     0.0000                 0.0000                 0.0000
 Atom AN      X      Y      Z        X      Y      Z        X      Y      Z
   1   7     0.06   0.13   0.17    -0.02  -0.06  -0.09    -0.01   0.00  -0.00
   2   6    -0.05  -0.09   0.07     0.11   0.04  -0.00    -0.02   0.01  -0.01
   3   6    -0.23   0.39  -0.28     0.08  -0.08   0.14    -0.05   0.01   0.01
   4   8    -0.22  -0.01   0.05     0.08   0.00   0.12    -0.02   0.06   0.06
   5   6    -0.15  -0.05  -0.01    -0.14  -0.09  -0.25    -0.04  -0.00  -0.10
   6   6     0.08  -0.10   0.10    -0.04   0.02  -0.07     0.18   0.17   0.21
   7   6     0.16  -0.10  -0.00     0.06   0.08   0.15    -0.24  -0.02  -0.25
   8   6     0.05  -0.08  -0.16    -0.12  -0.01  -0.05     0.08   0.01   0.15
   9   6     0.03   0.02  -0.06    -0.17  -0.07  -0.16     0.24  -0.04   0.19
  10   6     0.14   0.01   0.09     0.23   0.12   0.30     0.18   0.02   0.03
  11   6     0.02  -0.10  -0.10    -0.14  -0.03  -0.11    -0.17  -0.04  -0.28
  12   6    -0.01  -0.11  -0.04    -0.10  -0.01  -0.12     0.18   0.12   0.23
  13   6     0.12  -0.02   0.11     0.24   0.14   0.25    -0.09  -0.11  -0.04
  14   6    -0.07   0.00   0.00    -0.17  -0.08  -0.25    -0.20  -0.21  -0.24
  15  17     0.01   0.01   0.03    -0.01  -0.00  -0.02     0.00   0.00   0.00
  16   1     0.08   0.08   0.14    -0.05  -0.04  -0.07     0.00   0.00  -0.00
  17   1     0.00   0.12  -0.02    -0.02  -0.06   0.02     0.00  -0.00  -0.00
  18   1     0.00  -0.03   0.06     0.00   0.02  -0.06    -0.00  -0.00   0.00
  19   1     0.12  -0.01   0.07     0.02   0.01  -0.01    -0.01   0.00  -0.00
  20   1    -0.05  -0.15  -0.00     0.03   0.02   0.01    -0.01  -0.00  -0.01
  21   1    -0.13   0.33  -0.05     0.02  -0.10   0.02    -0.03  -0.01  -0.00
  22   1     0.01   0.09  -0.31     0.00  -0.02   0.12    -0.02   0.00   0.01
  23   1     0.04  -0.03   0.05     0.04   0.04   0.03     0.14   0.10   0.15
  24   1     0.08  -0.04   0.01     0.09   0.07   0.13    -0.15  -0.03  -0.15
  25   1     0.01  -0.03  -0.08    -0.01   0.01   0.03    -0.00  -0.01   0.07
  26   1     0.06   0.02   0.08     0.19   0.09   0.22     0.07   0.01  -0.01
  27   1    -0.01  -0.03  -0.04    -0.05  -0.01  -0.04    -0.13  -0.03  -0.17
  28   1    -0.02  -0.03  -0.02    -0.02  -0.01  -0.03     0.13   0.09   0.17
  29   1     0.09   0.01   0.06     0.17   0.08   0.21    -0.02  -0.03   0.03
                     16                     17                     18
                        a                      a                      a 
 Frequencies --   434.4919               461.4260               495.9151
 Red. masses --    10.9403                11.0642                11.2985
 Frc consts  --     0.0000                 0.0000                 0.0000
 IR Inten    --     0.6360                 5.9368                 0.3947
 Raman Activ --     0.0000                 0.0000                 0.0000
 Depolar     --     0.0000                 0.0000                 0.0000
 Atom AN      X      Y      Z        X      Y      Z        X      Y      Z
   1   7    -0.01  -0.00   0.01     0.00  -0.05  -0.10    -0.00   0.02   0.06
   2   6    -0.08  -0.02  -0.03     0.16   0.06   0.02    -0.12  -0.04  -0.03
   3   6    -0.15   0.02   0.02    -0.02   0.08   0.16    -0.08   0.01  -0.10
   4   8    -0.06   0.25   0.17    -0.08   0.34  -0.24     0.02   0.16   0.11
   5   6     0.05   0.16   0.00    -0.12   0.22   0.01     0.23   0.12  -0.20
   6   6    -0.13   0.20  -0.14     0.14  -0.04  -0.09     0.36  -0.02  -0.30
   7   6     0.03   0.27  -0.01     0.27  -0.04  -0.24     0.03  -0.15   0.00
   8   6    -0.02  -0.11   0.05     0.24  -0.13  -0.17     0.04  -0.36   0.16
   9   6     0.11  -0.35  -0.14     0.01   0.06  -0.02    -0.15  -0.18   0.16
  10   6     0.22  -0.09  -0.22    -0.03  -0.13   0.10    -0.18  -0.00   0.15
  11   6     0.19   0.13  -0.06    -0.10  -0.13   0.11    -0.25   0.11   0.21
  12   6    -0.14  -0.00  -0.04    -0.17  -0.16   0.24    -0.02   0.17  -0.08
  13   6    -0.03  -0.24   0.20    -0.17  -0.02   0.15     0.03   0.12  -0.05
  14   6     0.09  -0.28   0.16    -0.16   0.02   0.09     0.14  -0.03  -0.12
  15  17    -0.00   0.00   0.00     0.00  -0.00  -0.01    -0.00   0.00   0.00
  16   1    -0.01  -0.00   0.00    -0.01  -0.03  -0.06     0.01   0.01   0.03
  17   1     0.02  -0.00  -0.00    -0.06  -0.03   0.02     0.04   0.02  -0.01
  18   1    -0.00   0.01   0.02     0.00  -0.03  -0.09    -0.00   0.02   0.06
  19   1    -0.02  -0.01  -0.01     0.10   0.02   0.02    -0.06  -0.01  -0.01
  20   1    -0.02  -0.01  -0.02     0.03  -0.04   0.00    -0.03   0.01  -0.02
  21   1    -0.06  -0.00  -0.00     0.07  -0.13   0.03    -0.04   0.05  -0.02
  22   1    -0.07  -0.00   0.01    -0.10   0.02   0.18    -0.02  -0.00  -0.08
  23   1    -0.06   0.03  -0.06     0.03  -0.12   0.02     0.11   0.03  -0.09
  24   1     0.01   0.12   0.04     0.07  -0.01  -0.07    -0.07   0.04   0.04
  25   1    -0.07  -0.05   0.11     0.09  -0.03  -0.07     0.04  -0.09   0.04
  26   1     0.12  -0.01  -0.10    -0.04  -0.04   0.06    -0.00   0.02   0.00
  27   1     0.09   0.10  -0.00    -0.03  -0.00   0.01    -0.06  -0.00   0.08
  28   1    -0.12   0.04  -0.02    -0.04  -0.05   0.07     0.03   0.01  -0.04
  29   1    -0.05  -0.08   0.10    -0.03   0.00   0.03    -0.03   0.02   0.04
                     19                     20                     21
                        a                      a                      a 
 Frequencies --   518.2484               542.5762               578.5535
 Red. masses --     9.7821                10.5785                10.6722
 Frc consts  --     0.0000                 0.0000                 0.0000
 IR Inten    --     6.0056                 3.1481                 1.4733
 Raman Activ --     0.0000                 0.0000                 0.0000
 Depolar     --     0.0000                 0.0000                 0.0000
 Atom AN      X      Y      Z        X      Y      Z        X      Y      Z
   1   7    -0.02   0.05   0.12     0.01  -0.03  -0.07     0.02  -0.01  -0.06
   2   6    -0.23  -0.11  -0.05     0.11   0.07   0.02     0.12   0.09   0.04
   3   6     0.11  -0.18  -0.22    -0.07   0.11   0.11    -0.10   0.10   0.13
   4   8     0.20   0.01   0.02    -0.14   0.08  -0.22    -0.17  -0.24   0.04
   5   6     0.20   0.08   0.25     0.02   0.10   0.23    -0.06  -0.18  -0.30
   6   6    -0.00   0.04   0.06     0.06  -0.07   0.16     0.17   0.12   0.11
   7   6    -0.06   0.02  -0.24    -0.20  -0.23  -0.08    -0.16   0.03  -0.16
   8   6     0.23   0.21   0.07     0.14  -0.08   0.29     0.09   0.17   0.11
   9   6    -0.14   0.01  -0.30    -0.26  -0.08  -0.08     0.13  -0.03  -0.05
  10   6     0.02  -0.13   0.02    -0.13   0.22  -0.09    -0.04  -0.30  -0.15
  11   6    -0.02  -0.07   0.10     0.20   0.10  -0.05     0.05   0.04   0.28
  12   6    -0.19  -0.12   0.06     0.07   0.01  -0.30    -0.25  -0.06  -0.07
  13   6    -0.03   0.13   0.14     0.24  -0.14   0.05     0.06   0.26   0.15
  14   6    -0.16  -0.01  -0.14    -0.13  -0.04  -0.03     0.15   0.02  -0.06
  15  17    -0.00   0.00   0.01     0.00  -0.00  -0.00     0.00  -0.00  -0.00
  16   1     0.01   0.03   0.08     0.01  -0.02  -0.04    -0.00  -0.02  -0.05
  17   1     0.08   0.04  -0.04    -0.05  -0.02   0.02    -0.05  -0.03   0.03
  18   1    -0.01   0.04   0.12     0.00  -0.03  -0.06     0.01  -0.02  -0.07
  19   1    -0.18  -0.04  -0.05     0.11   0.02   0.03     0.12   0.03   0.04
  20   1    -0.03   0.09  -0.00     0.01  -0.06  -0.01     0.01  -0.07  -0.01
  21   1     0.03   0.03  -0.05     0.02  -0.04   0.03    -0.07   0.04   0.03
  22   1     0.03  -0.06  -0.14    -0.05   0.04   0.10     0.04   0.04   0.03
  23   1    -0.00  -0.00   0.02     0.01  -0.04   0.05     0.11   0.12   0.07
  24   1    -0.02  -0.03  -0.10    -0.10  -0.07  -0.06    -0.06  -0.00  -0.07
  25   1     0.14   0.09   0.10     0.11   0.01   0.13     0.02   0.05   0.06
  26   1     0.06  -0.01   0.12     0.02   0.09   0.03    -0.03  -0.09  -0.10
  27   1     0.06   0.05   0.09     0.12  -0.01   0.09     0.04   0.08   0.08
  28   1    -0.01  -0.04   0.05     0.00   0.04  -0.06    -0.09  -0.08  -0.10
  29   1     0.09   0.07   0.12     0.13  -0.01   0.08    -0.01   0.06   0.04
                     22                     23                     24
                        a                      a                      a 
 Frequencies --   623.3948               711.5917               715.3443
 Red. masses --    10.6061                11.4721                10.3004
 Frc consts  --     0.0000                 0.0000                 0.0000
 IR Inten    --     2.2670                23.6847                 7.7938
 Raman Activ --     0.0000                 0.0000                 0.0000
 Depolar     --     0.0000                 0.0000                 0.0000
 Atom AN      X      Y      Z        X      Y      Z        X      Y      Z
   1   7     0.02  -0.02  -0.07    -0.03  -0.01   0.02    -0.02  -0.01   0.02
   2   6     0.10   0.11   0.03    -0.06  -0.03  -0.04    -0.04  -0.02  -0.02
   3   6    -0.16   0.14   0.15    -0.04   0.06  -0.06    -0.00   0.03  -0.04
   4   8    -0.23  -0.22  -0.09     0.08   0.40  -0.07     0.06   0.24  -0.03
   5   6     0.39   0.08   0.33     0.02   0.02   0.12    -0.16  -0.08  -0.16
   6   6    -0.06  -0.02  -0.11    -0.11  -0.21   0.05     0.05  -0.08   0.13
   7   6    -0.01   0.03   0.09    -0.09  -0.26   0.33    -0.21  -0.23   0.01
   8   6    -0.06   0.06   0.01    -0.15   0.02   0.02    -0.01   0.05   0.10
   9   6    -0.05  -0.13  -0.21     0.29   0.01   0.13    -0.22  -0.14  -0.35
  10   6     0.20  -0.16   0.10     0.15  -0.27  -0.17     0.24  -0.06   0.09
  11   6    -0.21  -0.05  -0.06     0.09   0.02   0.06    -0.05  -0.05  -0.12
  12   6     0.06   0.08   0.13    -0.08   0.00  -0.08     0.11   0.05   0.16
  13   6    -0.15   0.13  -0.18     0.05   0.28  -0.02    -0.09   0.09  -0.11
  14   6     0.13  -0.00  -0.11    -0.11  -0.01  -0.28     0.31   0.17   0.30
  15  17     0.00  -0.00  -0.00    -0.00   0.00   0.00    -0.00   0.00   0.00
  16   1     0.01  -0.02  -0.07     0.01   0.01   0.02     0.00   0.01   0.02
  17   1    -0.06  -0.03   0.04     0.02   0.01  -0.02     0.02   0.01  -0.02
  18   1     0.00  -0.03  -0.07    -0.01  -0.00   0.05    -0.01   0.00   0.04
  19   1     0.15   0.04   0.04     0.01  -0.01  -0.00    -0.01  -0.00   0.00
  20   1    -0.00  -0.10  -0.02    -0.02  -0.03  -0.00    -0.01  -0.01  -0.00
  21   1    -0.07   0.05   0.04     0.06  -0.10  -0.02     0.04  -0.07  -0.02
  22   1     0.03   0.05   0.03    -0.13   0.01   0.09    -0.08   0.00   0.05
  23   1    -0.11  -0.01  -0.15    -0.03  -0.05   0.02     0.08   0.02   0.11
  24   1    -0.03  -0.00  -0.00    -0.04  -0.12   0.04     0.08  -0.02   0.14
  25   1    -0.03   0.01   0.01    -0.06  -0.01  -0.06     0.14   0.07   0.16
  26   1     0.16  -0.00   0.10     0.05  -0.08  -0.10     0.04  -0.03  -0.03
  27   1    -0.02   0.04   0.00     0.02   0.07  -0.03    -0.06   0.01  -0.10
  28   1     0.13   0.02   0.10     0.03  -0.03  -0.02    -0.06  -0.04  -0.08
  29   1     0.00   0.06   0.03     0.05   0.09   0.01    -0.12  -0.01  -0.16
                     25                     26                     27
                        a                      a                      a 
 Frequencies --   756.1175               775.0047               804.4140
 Red. masses --     4.6714                10.6753                 3.8278
 Frc consts  --     0.0000                 0.0000                 0.0000
 IR Inten    --     0.8000                 0.5172                53.9610
 Raman Activ --     0.0000                 0.0000                 0.0000
 Depolar     --     0.0000                 0.0000                 0.0000
 Atom AN      X      Y      Z        X      Y      Z        X      Y      Z
   1   7     0.00   0.01   0.01    -0.01  -0.00   0.01    -0.02  -0.01   0.01
   2   6     0.01  -0.03   0.00    -0.02  -0.02  -0.01    -0.04   0.04  -0.02
   3   6     0.03  -0.02  -0.02     0.01   0.01  -0.03    -0.02   0.02  -0.03
   4   8     0.03   0.08   0.04     0.04   0.08   0.01     0.02  -0.02  -0.02
   5   6    -0.16  -0.06  -0.22    -0.21  -0.08   0.09     0.07  -0.01   0.05
   6   6     0.14   0.01   0.08    -0.31   0.06   0.30    -0.15  -0.07  -0.16
   7   6    -0.00  -0.04   0.11     0.17   0.18  -0.22    -0.09  -0.04  -0.12
   8   6     0.06   0.06   0.13     0.16  -0.12  -0.05    -0.11  -0.04  -0.15
   9   6    -0.01   0.01  -0.01     0.05  -0.15  -0.01     0.14   0.07   0.17
  10   6    -0.07  -0.03  -0.14    -0.03  -0.22   0.08    -0.11  -0.01  -0.09
  11   6    -0.03  -0.06  -0.15    -0.31   0.07   0.21    -0.05  -0.02  -0.05
  12   6    -0.09  -0.07  -0.02     0.19   0.25  -0.28    -0.07  -0.03  -0.08
  13   6    -0.15  -0.03  -0.12     0.14   0.03  -0.17    -0.08  -0.06  -0.08
  14   6     0.15   0.09   0.19     0.09  -0.03   0.03     0.09   0.03   0.11
  15  17    -0.00  -0.00   0.00    -0.00   0.00   0.00    -0.00   0.00   0.00
  16   1    -0.01   0.00   0.01     0.00   0.00   0.01     0.03  -0.00  -0.01
  17   1    -0.01   0.00   0.01     0.01   0.00  -0.01     0.02  -0.00  -0.01
  18   1     0.00   0.01  -0.02    -0.00   0.00   0.02    -0.01  -0.01   0.05
  19   1    -0.05  -0.01  -0.02     0.00  -0.00  -0.00     0.08   0.02   0.03
  20   1     0.01   0.04  -0.00    -0.01  -0.01   0.00    -0.03  -0.07   0.01
  21   1     0.02  -0.00  -0.00     0.03  -0.04  -0.01    -0.02  -0.05  -0.02
  22   1    -0.02  -0.01  -0.01    -0.04   0.00   0.03     0.01   0.02   0.05
  23   1    -0.13  -0.06  -0.17    -0.12  -0.11   0.10     0.32   0.17   0.35
  24   1    -0.16  -0.07  -0.14     0.08  -0.01  -0.10     0.25   0.11   0.28
  25   1    -0.19  -0.08  -0.22    -0.04  -0.06   0.00     0.22   0.10   0.23
  26   1     0.23   0.10   0.26     0.09  -0.02   0.01     0.09   0.05   0.12
  27   1     0.26   0.12   0.25    -0.05  -0.02   0.13     0.15   0.06   0.18
  28   1     0.21   0.09   0.27     0.16   0.00  -0.08     0.18   0.08   0.21
  29   1     0.18   0.08   0.21     0.03   0.01   0.01     0.13   0.05   0.16
                     28                     29                     30
                        a                      a                      a 
 Frequencies --   824.7134               857.8433               868.1149
 Red. masses --     4.4317                 9.9621                 3.6358
 Frc consts  --     0.0000                 0.0000                 0.0000
 IR Inten    --    14.8684                 1.9031                 0.0604
 Raman Activ --     0.0000                 0.0000                 0.0000
 Depolar     --     0.0000                 0.0000                 0.0000
 Atom AN      X      Y      Z        X      Y      Z        X      Y      Z
   1   7     0.10   0.02  -0.07     0.04  -0.01  -0.03     0.01  -0.00  -0.00
   2   6     0.20  -0.14   0.13     0.03  -0.06   0.03     0.03  -0.01   0.01
   3   6     0.06  -0.11   0.14    -0.08   0.04   0.07    -0.00  -0.01  -0.00
   4   8    -0.22   0.05  -0.06    -0.01   0.14  -0.04    -0.03   0.01  -0.02
   5   6    -0.08   0.09   0.05     0.10  -0.04  -0.06     0.04   0.02   0.05
   6   6    -0.03   0.01   0.03     0.13  -0.11  -0.05    -0.17  -0.08  -0.18
   7   6    -0.04  -0.04  -0.02    -0.05  -0.15   0.09     0.04   0.01   0.05
   8   6    -0.04  -0.18  -0.00    -0.07   0.49  -0.16     0.13   0.06   0.13
   9   6     0.04  -0.04   0.05     0.07   0.10  -0.08    -0.01  -0.01  -0.02
  10   6     0.06  -0.08  -0.05    -0.04  -0.08   0.07    -0.12  -0.06  -0.14
  11   6     0.04  -0.02  -0.03    -0.24   0.09   0.17    -0.09  -0.03  -0.08
  12   6    -0.00  -0.01  -0.02     0.05   0.15  -0.11     0.11   0.05   0.12
  13   6    -0.01   0.14  -0.06     0.08  -0.44   0.09     0.13   0.03   0.14
  14   6    -0.03   0.08   0.01     0.05  -0.19   0.03    -0.02  -0.01  -0.01
  15  17     0.00  -0.00  -0.00     0.00  -0.00   0.00     0.00  -0.00   0.00
  16   1    -0.18   0.02   0.07    -0.07   0.01   0.04    -0.03   0.01   0.02
  17   1    -0.11   0.03   0.04    -0.04   0.02  -0.00    -0.01   0.01  -0.00
  18   1     0.07   0.09  -0.32     0.03   0.04  -0.12     0.01   0.02  -0.04
  19   1    -0.39  -0.05  -0.04    -0.12  -0.01   0.00    -0.04   0.00   0.02
  20   1     0.18   0.38  -0.07     0.04   0.09  -0.06     0.02   0.05  -0.02
  21   1    -0.00   0.26   0.10     0.01   0.07   0.04    -0.02   0.01  -0.00
  22   1    -0.00  -0.07  -0.27    -0.06  -0.01  -0.05     0.00  -0.00  -0.02
  23   1     0.02   0.00   0.04     0.01   0.02  -0.06     0.29   0.15   0.31
  24   1     0.05   0.05   0.10     0.08  -0.13  -0.01    -0.07  -0.04  -0.08
  25   1     0.07  -0.01   0.13     0.08   0.17  -0.08    -0.21  -0.09  -0.25
  26   1     0.03  -0.02  -0.03    -0.01  -0.02  -0.01     0.27   0.11   0.30
  27   1     0.03   0.03  -0.01    -0.06  -0.02   0.07     0.08   0.04   0.10
  28   1     0.05  -0.01   0.02    -0.01   0.08   0.00    -0.15  -0.06  -0.17
  29   1     0.04   0.06  -0.01    -0.06  -0.15   0.12    -0.26  -0.11  -0.31
                     31                     32                     33
                        a                      a                      a 
 Frequencies --   877.0406               911.9770               914.7278
 Red. masses --     4.0739                 5.6163                 6.5259
 Frc consts  --     0.0000                 0.0000                 0.0000
 IR Inten    --     0.3949                 2.2380                 0.7456
 Raman Activ --     0.0000                 0.0000                 0.0000
 Depolar     --     0.0000                 0.0000                 0.0000
 Atom AN      X      Y      Z        X      Y      Z        X      Y      Z
   1   7     0.00   0.00   0.01    -0.03   0.04   0.27    -0.04   0.02   0.33
   2   6     0.03  -0.00   0.01     0.20   0.12  -0.04     0.24   0.14  -0.06
   3   6    -0.00  -0.01  -0.02     0.02  -0.13  -0.29     0.01  -0.12  -0.36
   4   8    -0.03   0.01  -0.01    -0.12  -0.01   0.02    -0.13  -0.02   0.04
   5   6     0.02  -0.00   0.02    -0.03   0.03  -0.00    -0.02   0.05   0.01
   6   6    -0.17  -0.08  -0.17    -0.00  -0.01  -0.04     0.06   0.01   0.00
   7   6     0.04   0.01   0.04     0.10   0.04   0.13    -0.05  -0.02  -0.04
   8   6     0.17   0.07   0.18    -0.07  -0.02  -0.07    -0.01   0.03   0.00
   9   6    -0.10  -0.04  -0.11    -0.02  -0.01  -0.04     0.03   0.01   0.03
  10   6     0.13   0.06   0.16     0.13   0.02   0.12    -0.09  -0.08  -0.12
  11   6     0.08   0.03   0.09    -0.12  -0.04  -0.10     0.08   0.05   0.11
  12   6    -0.05  -0.02  -0.07    -0.09  -0.02  -0.12     0.12   0.06   0.10
  13   6    -0.13  -0.06  -0.15     0.11   0.02   0.12    -0.09  -0.07  -0.11
  14   6     0.05   0.02   0.06    -0.01   0.01   0.02    -0.02   0.00   0.01
  15  17     0.00  -0.00   0.00     0.00   0.00  -0.00     0.01   0.00  -0.00
  16   1    -0.02   0.01   0.03    -0.06  -0.03  -0.02    -0.09  -0.03   0.03
  17   1    -0.02   0.01   0.01    -0.14  -0.05   0.21    -0.16  -0.03   0.22
  18   1     0.01   0.01  -0.04     0.00  -0.02  -0.07     0.01  -0.00  -0.10
  19   1    -0.03   0.01   0.02     0.04   0.04   0.02     0.03   0.05   0.05
  20   1     0.02   0.04  -0.01     0.06   0.07   0.02     0.08   0.08   0.01
  21   1    -0.02  -0.01  -0.01    -0.09  -0.16  -0.13    -0.11  -0.22  -0.17
  22   1    -0.00  -0.00  -0.01    -0.01  -0.02   0.03    -0.01  -0.01   0.07
  23   1     0.28   0.15   0.30     0.06   0.02   0.06    -0.04  -0.04  -0.06
  24   1    -0.07  -0.04  -0.09    -0.22  -0.09  -0.24     0.08   0.04   0.10
  25   1    -0.25  -0.11  -0.30     0.12   0.06   0.14    -0.01   0.01  -0.01
  26   1    -0.25  -0.11  -0.28    -0.16  -0.08  -0.20     0.18   0.06   0.18
  27   1    -0.12  -0.06  -0.13     0.17   0.08   0.19    -0.16  -0.07  -0.18
  28   1     0.05   0.02   0.06     0.17   0.08   0.19    -0.18  -0.07  -0.22
  29   1     0.24   0.10   0.30    -0.17  -0.08  -0.21     0.16   0.06   0.21
                     34                     35                     36
                        a                      a                      a 
 Frequencies --   918.3693               926.3996               928.7982
 Red. masses --     3.6852                 3.4227                 3.3658
 Frc consts  --     0.0000                 0.0000                 0.0000
 IR Inten    --     2.7664                26.1445                 0.1962
 Raman Activ --     0.0000                 0.0000                 0.0000
 Depolar     --     0.0000                 0.0000                 0.0000
 Atom AN      X      Y      Z        X      Y      Z        X      Y      Z
   1   7     0.01  -0.05  -0.07     0.00  -0.18   0.06     0.00   0.01  -0.01
   2   6    -0.05  -0.05   0.00     0.02  -0.07  -0.08    -0.00   0.00   0.01
   3   6    -0.02   0.09   0.07    -0.11   0.26  -0.07     0.01  -0.02   0.01
   4   8     0.05  -0.01  -0.01     0.12  -0.10   0.02    -0.01   0.01  -0.00
   5   6    -0.01  -0.05  -0.04     0.07  -0.08   0.02    -0.01   0.00  -0.01
   6   6    -0.06  -0.01  -0.03     0.00   0.02   0.03    -0.02  -0.01  -0.02
   7   6     0.21   0.10   0.21    -0.02   0.04  -0.07     0.04   0.01   0.05
   8   6    -0.13  -0.08  -0.16     0.02  -0.02   0.03    -0.02  -0.01  -0.02
   9   6    -0.01  -0.00   0.00    -0.02  -0.01   0.01    -0.05  -0.02  -0.06
  10   6    -0.07   0.01  -0.06    -0.02   0.08   0.02    -0.08  -0.04  -0.10
  11   6     0.04   0.00   0.02     0.03  -0.01  -0.02     0.20   0.09   0.23
  12   6     0.09   0.02   0.12    -0.06  -0.06  -0.01    -0.16  -0.07  -0.18
  13   6    -0.10  -0.01  -0.10     0.02   0.06   0.04     0.05   0.01   0.05
  14   6     0.06   0.01   0.04     0.03  -0.02  -0.04     0.05   0.03   0.07
  15  17    -0.00  -0.00   0.00    -0.00  -0.01   0.01    -0.00   0.00  -0.00
  16   1    -0.04   0.03   0.09    -0.27   0.10   0.44     0.02  -0.01  -0.03
  17   1     0.05   0.05  -0.11     0.03   0.17  -0.21     0.01  -0.01   0.01
  18   1     0.02   0.05  -0.03     0.07   0.18  -0.22    -0.01  -0.01   0.02
  19   1    -0.04   0.00   0.05    -0.11   0.07   0.26     0.01  -0.01  -0.02
  20   1    -0.01  -0.01  -0.06     0.03   0.03  -0.28    -0.00   0.00   0.02
  21   1     0.02   0.01   0.02    -0.01  -0.21  -0.07     0.00   0.02   0.01
  22   1    -0.00   0.03   0.04    -0.02   0.11   0.28     0.00  -0.01  -0.02
  23   1     0.10   0.06   0.12    -0.05  -0.02  -0.05     0.04   0.02   0.04
  24   1    -0.37  -0.17  -0.44     0.06   0.05   0.06    -0.08  -0.04  -0.10
  25   1     0.27   0.11   0.31    -0.05  -0.03  -0.03     0.04   0.02   0.05
  26   1     0.06   0.04   0.09    -0.04   0.01  -0.01     0.20   0.08   0.22
  27   1    -0.03  -0.02  -0.03     0.00  -0.01  -0.01    -0.39  -0.17  -0.44
  28   1    -0.17  -0.08  -0.19     0.07   0.02   0.10     0.31   0.14   0.36
  29   1     0.15   0.07   0.19    -0.06  -0.01  -0.08    -0.13  -0.05  -0.16
                     37                     38                     39
                        a                      a                      a 
 Frequencies --   962.2034              1014.3918              1061.2321
 Red. masses --     7.7982                 9.0245                 9.8128
 Frc consts  --     0.0000                 0.0000                 0.0000
 IR Inten    --    62.5108                73.1142                 5.6329
 Raman Activ --     0.0000                 0.0000                 0.0000
 Depolar     --     0.0000                 0.0000                 0.0000
 Atom AN      X      Y      Z        X      Y      Z        X      Y      Z
   1   7     0.11   0.13   0.15    -0.13  -0.04  -0.05    -0.31  -0.09   0.34
   2   6    -0.10  -0.02  -0.06     0.28   0.04   0.05     0.26  -0.02  -0.59
   3   6    -0.38   0.01   0.07    -0.06  -0.01  -0.04     0.04   0.06   0.32
   4   8     0.40   0.07  -0.06    -0.20   0.23  -0.03     0.05  -0.00  -0.06
   5   6     0.12  -0.17  -0.05     0.24  -0.28  -0.06    -0.03   0.02   0.00
   6   6    -0.13   0.01   0.11    -0.17   0.01   0.16    -0.00   0.01  -0.01
   7   6     0.03   0.03  -0.03     0.04   0.02  -0.05    -0.00  -0.02   0.02
   8   6     0.04  -0.03  -0.02     0.04   0.03  -0.05     0.02  -0.03  -0.00
   9   6    -0.01  -0.02   0.02     0.03  -0.08   0.01    -0.00   0.02  -0.00
  10   6    -0.10   0.16   0.02    -0.17   0.28   0.04     0.02  -0.03  -0.01
  11   6     0.05  -0.04  -0.03     0.04  -0.04  -0.03    -0.02   0.02   0.01
  12   6    -0.04  -0.08   0.07    -0.07  -0.13   0.11     0.00   0.00  -0.00
  13   6    -0.03   0.09  -0.00    -0.04   0.10   0.01     0.01  -0.03  -0.00
  14   6     0.12  -0.07  -0.07     0.25  -0.18  -0.16    -0.04   0.03   0.02
  15  17     0.01   0.01  -0.01    -0.00  -0.00   0.00    -0.00  -0.00  -0.00
  16   1    -0.06  -0.07  -0.20     0.08   0.02   0.04    -0.01   0.00   0.13
  17   1    -0.28  -0.10   0.35     0.13   0.02  -0.13     0.03  -0.00   0.00
  18   1     0.03  -0.06  -0.25    -0.05   0.01   0.22    -0.08  -0.00   0.22
  19   1    -0.02  -0.03  -0.08    -0.05  -0.01  -0.05     0.02  -0.03  -0.22
  20   1    -0.05  -0.09  -0.22     0.12   0.20   0.22     0.07  -0.02  -0.22
  21   1     0.04   0.08   0.06    -0.12  -0.02  -0.04    -0.05   0.18   0.10
  22   1    -0.16  -0.02  -0.07    -0.13  -0.02  -0.03     0.08   0.01  -0.09
  23   1    -0.03   0.03   0.02    -0.07   0.06  -0.01     0.01   0.05  -0.01
  24   1     0.05  -0.04  -0.02     0.12  -0.10  -0.05    -0.02   0.01   0.01
  25   1     0.00  -0.01  -0.01     0.00   0.00  -0.01     0.02  -0.00  -0.02
  26   1    -0.05   0.04   0.04    -0.08   0.07   0.05     0.02  -0.00  -0.02
  27   1     0.00  -0.05  -0.01     0.01  -0.09   0.04    -0.00   0.03  -0.01
  28   1    -0.01  -0.03   0.01     0.01  -0.06   0.02    -0.00   0.01   0.00
  29   1    -0.03   0.02   0.00    -0.08  -0.00   0.05     0.04   0.00  -0.03
                     40                     41                     42
                        a                      a                      a 
 Frequencies --  1075.8410              1085.4353              1123.9216
 Red. masses --     9.4932                 6.5338                 6.3964
 Frc consts  --     0.0000                 0.0000                 0.0000
 IR Inten    --    63.7276                 0.4239                 3.9385
 Raman Activ --     0.0000                 0.0000                 0.0000
 Depolar     --     0.0000                 0.0000                 0.0000
 Atom AN      X      Y      Z        X      Y      Z        X      Y      Z
   1   7    -0.11   0.00  -0.07     0.02  -0.00  -0.02    -0.03   0.09   0.03
   2   6     0.28   0.00   0.14    -0.02   0.01   0.03     0.01  -0.22  -0.07
   3   6    -0.51   0.07  -0.04     0.00  -0.02  -0.01     0.12   0.27  -0.03
   4   8     0.40  -0.22  -0.07     0.00  -0.00   0.00    -0.11  -0.05   0.05
   5   6    -0.09   0.05   0.05    -0.00   0.02  -0.01    -0.05  -0.06   0.09
   6   6     0.09  -0.02  -0.08    -0.05   0.03   0.03     0.22  -0.24  -0.12
   7   6    -0.01   0.03  -0.00    -0.02  -0.03   0.03     0.07   0.16  -0.13
   8   6    -0.02  -0.03   0.02     0.01  -0.03  -0.00    -0.17   0.23   0.06
   9   6    -0.03   0.06  -0.00     0.06  -0.04  -0.04     0.04  -0.12   0.01
  10   6     0.07  -0.12  -0.02     0.00   0.21  -0.08    -0.04   0.12  -0.01
  11   6    -0.02   0.03   0.01    -0.29   0.26   0.17    -0.01   0.02   0.00
  12   6     0.02   0.05  -0.04    -0.06  -0.38   0.20     0.01  -0.07   0.01
  13   6     0.02  -0.05  -0.01     0.14  -0.18  -0.07    -0.02   0.08  -0.01
  14   6    -0.13   0.09   0.08     0.02   0.08  -0.05     0.01  -0.05   0.02
  15  17    -0.00  -0.00  -0.00     0.00   0.00   0.00     0.00   0.00  -0.00
  16   1     0.11   0.01  -0.02    -0.00   0.00  -0.00     0.05  -0.02  -0.11
  17   1     0.12  -0.01  -0.09    -0.01   0.00   0.00    -0.03  -0.05   0.09
  18   1    -0.04  -0.01   0.17     0.01   0.01  -0.02    -0.03  -0.05   0.05
  19   1    -0.11  -0.02  -0.05     0.01   0.01   0.02    -0.13  -0.09  -0.12
  20   1     0.13   0.24   0.22    -0.01  -0.01   0.01     0.03   0.06  -0.02
  21   1    -0.09  -0.06  -0.03    -0.02  -0.01  -0.01     0.21  -0.07   0.01
  22   1    -0.24  -0.01  -0.01     0.01  -0.00   0.00    -0.14   0.05   0.08
  23   1     0.03  -0.03  -0.00    -0.02   0.04  -0.01     0.09  -0.32   0.11
  24   1    -0.09   0.10   0.03     0.01  -0.02   0.00     0.02   0.05  -0.04
  25   1    -0.01  -0.01   0.02     0.03   0.00  -0.03    -0.33  -0.02   0.31
  26   1     0.03  -0.03  -0.01     0.27   0.15  -0.31     0.04   0.05  -0.05
  27   1     0.00   0.07  -0.02    -0.09   0.23  -0.02    -0.01  -0.07   0.03
  28   1    -0.01   0.04   0.00     0.08  -0.22   0.01     0.07  -0.10  -0.03
  29   1     0.08   0.01  -0.06     0.33   0.04  -0.27     0.02   0.03  -0.03
                     43                     44                     45
                        a                      a                      a 
 Frequencies --  1140.4378              1162.8361              1177.4308
 Red. masses --     6.5681                 3.6888                 1.8485
 Frc consts  --     0.0000                 0.0000                 0.0000
 IR Inten    --     3.8079                11.3845                 1.5364
 Raman Activ --     0.0000                 0.0000                 0.0000
 Depolar     --     0.0000                 0.0000                 0.0000
 Atom AN      X      Y      Z        X      Y      Z        X      Y      Z
   1   7     0.01  -0.13  -0.01    -0.01   0.02   0.01     0.01   0.01  -0.01
   2   6     0.02   0.34   0.03     0.01  -0.04  -0.01    -0.01  -0.04   0.01
   3   6    -0.17  -0.38   0.07    -0.03   0.03  -0.00     0.02   0.03  -0.00
   4   8     0.14   0.11  -0.08     0.06  -0.11   0.01    -0.01   0.01  -0.01
   5   6    -0.05   0.08  -0.03    -0.13   0.17   0.03     0.08  -0.03  -0.04
   6   6     0.10  -0.16  -0.03     0.02   0.09  -0.05    -0.00  -0.03   0.02
   7   6     0.04   0.05  -0.05    -0.06  -0.06   0.08    -0.01   0.03  -0.01
   8   6    -0.10   0.17   0.03     0.03   0.05  -0.04     0.03   0.03  -0.04
   9   6     0.02  -0.12   0.03     0.05  -0.08  -0.02    -0.01  -0.12   0.05
  10   6    -0.02   0.08  -0.01     0.02   0.16  -0.08     0.01  -0.04   0.01
  11   6     0.01  -0.02  -0.00     0.01  -0.09   0.03     0.02  -0.10   0.02
  12   6     0.01  -0.01  -0.01     0.07  -0.03  -0.05    -0.05   0.09   0.01
  13   6    -0.03   0.10  -0.01    -0.14   0.18   0.06    -0.02   0.04  -0.00
  14   6    -0.04  -0.05   0.06    -0.03  -0.14   0.09    -0.09   0.09   0.04
  15  17    -0.00  -0.00   0.00    -0.00  -0.00  -0.00     0.00   0.00   0.00
  16   1    -0.07   0.03   0.16     0.01  -0.00  -0.02     0.01  -0.00  -0.02
  17   1     0.04   0.07  -0.13     0.03  -0.01  -0.00    -0.02  -0.01   0.02
  18   1     0.03   0.08  -0.04    -0.01  -0.02   0.01    -0.00  -0.00   0.00
  19   1     0.19   0.13   0.16    -0.02  -0.01  -0.01    -0.02  -0.01  -0.01
  20   1    -0.04  -0.10  -0.01     0.01   0.02   0.02     0.00   0.01   0.00
  21   1    -0.17   0.14   0.03     0.00  -0.02  -0.00    -0.04  -0.02  -0.02
  22   1     0.16  -0.10  -0.24     0.03   0.02   0.03     0.01   0.01   0.04
  23   1     0.03  -0.26   0.09     0.00   0.02  -0.00    -0.00   0.12  -0.06
  24   1     0.09  -0.07  -0.06    -0.09   0.06   0.05     0.10  -0.10  -0.05
  25   1    -0.23  -0.02   0.20     0.23   0.08  -0.24    -0.01   0.00   0.01
  26   1     0.03   0.03  -0.04     0.25   0.12  -0.27     0.25   0.07  -0.25
  27   1    -0.00  -0.11   0.04    -0.01  -0.40   0.17    -0.01  -0.52   0.21
  28   1     0.06  -0.06  -0.03     0.29  -0.30  -0.14    -0.36   0.40   0.16
  29   1     0.02   0.04  -0.03    -0.24  -0.02   0.20     0.24   0.09  -0.24
                     46                     47                     48
                        a                      a                      a 
 Frequencies --  1189.8656              1210.9689              1217.3378
 Red. masses --     2.9699                 4.1148                 4.9327
 Frc consts  --     0.0000                 0.0000                 0.0000
 IR Inten    --    14.2526                14.0785                27.2446
 Raman Activ --     0.0000                 0.0000                 0.0000
 Depolar     --     0.0000                 0.0000                 0.0000
 Atom AN      X      Y      Z        X      Y      Z        X      Y      Z
   1   7    -0.01  -0.05  -0.00     0.02  -0.11   0.02     0.06   0.03  -0.02
   2   6     0.01   0.13  -0.01    -0.00   0.22  -0.02    -0.09  -0.14   0.02
   3   6     0.01  -0.07  -0.02     0.03  -0.07  -0.08     0.06   0.05   0.12
   4   8    -0.09   0.09   0.03    -0.07   0.03   0.05     0.04   0.22  -0.14
   5   6     0.07  -0.23   0.04     0.02  -0.24   0.09     0.07  -0.30   0.05
   6   6     0.01  -0.12   0.02     0.07  -0.04  -0.04     0.07  -0.16   0.01
   7   6    -0.03   0.15  -0.03     0.00  -0.01  -0.00    -0.01   0.07  -0.02
   8   6    -0.00   0.01   0.00     0.08  -0.07  -0.05     0.07  -0.01  -0.06
   9   6    -0.05   0.07   0.02     0.10   0.09  -0.12     0.05   0.07  -0.07
  10   6     0.01  -0.02  -0.00     0.04   0.02  -0.04     0.04   0.03  -0.05
  11   6    -0.00  -0.03   0.01    -0.05   0.02   0.04    -0.04   0.00   0.03
  12   6    -0.04  -0.01   0.03     0.04   0.03  -0.05     0.01   0.05  -0.03
  13   6     0.04  -0.04  -0.02    -0.05  -0.02   0.05    -0.02  -0.00   0.02
  14   6     0.10  -0.02  -0.08    -0.19   0.08   0.12    -0.16  -0.00   0.14
  15  17     0.00  -0.00   0.00     0.00  -0.00   0.00     0.00   0.00   0.00
  16   1    -0.02   0.01   0.05    -0.05   0.00   0.09    -0.01  -0.01  -0.04
  17   1    -0.01   0.02  -0.03    -0.03   0.06  -0.06    -0.06  -0.00   0.06
  18   1     0.01   0.03   0.00     0.03   0.07  -0.04     0.01  -0.01  -0.03
  19   1     0.07   0.04   0.03     0.11   0.04  -0.08    -0.06  -0.05  -0.05
  20   1    -0.01  -0.04  -0.05    -0.03  -0.05   0.03    -0.02   0.01   0.09
  21   1     0.18   0.06   0.05     0.34   0.09   0.09    -0.55  -0.06  -0.13
  22   1    -0.15  -0.06  -0.11    -0.38  -0.09  -0.07     0.27   0.07   0.08
  23   1     0.02  -0.35   0.16     0.02   0.44  -0.22     0.01   0.13  -0.10
  24   1    -0.41   0.47   0.17    -0.07   0.08   0.03    -0.24   0.28   0.10
  25   1     0.23   0.08  -0.24    -0.17  -0.08   0.18    -0.09  -0.04   0.09
  26   1     0.08   0.02  -0.08    -0.02  -0.00   0.02    -0.05  -0.01   0.05
  27   1    -0.00  -0.03   0.01    -0.02  -0.13   0.07    -0.01  -0.07   0.04
  28   1    -0.13   0.13   0.07     0.12  -0.12  -0.07     0.11  -0.11  -0.06
  29   1     0.02  -0.01  -0.02     0.00   0.00  -0.00     0.06   0.02  -0.06
                     49                     50                     51
                        a                      a                      a 
 Frequencies --  1225.8617              1231.7884              1247.2087
 Red. masses --     8.3102                 3.5252                 4.7391
 Frc consts  --     0.0000                 0.0000                 0.0000
 IR Inten    --    12.4226                58.1987                 3.4235
 Raman Activ --     0.0000                 0.0000                 0.0000
 Depolar     --     0.0000                 0.0000                 0.0000
 Atom AN      X      Y      Z        X      Y      Z        X      Y      Z
   1   7     0.02  -0.03   0.00    -0.20   0.21  -0.09    -0.00  -0.01   0.00
   2   6    -0.02   0.02  -0.01     0.17  -0.09   0.16     0.01   0.01  -0.00
   3   6     0.03   0.03  -0.00     0.00  -0.13  -0.05     0.01   0.01  -0.02
   4   8    -0.04   0.06  -0.01    -0.03   0.06   0.01    -0.04  -0.04   0.03
   5   6     0.20  -0.16  -0.09     0.05  -0.08  -0.01     0.00   0.08  -0.03
   6   6     0.05  -0.16   0.02     0.01  -0.04   0.01     0.03   0.01  -0.04
   7   6     0.01   0.22  -0.09    -0.01   0.02  -0.00    -0.06   0.03   0.05
   8   6    -0.00   0.11  -0.04     0.04  -0.01  -0.03     0.01   0.11  -0.06
   9   6    -0.40  -0.08   0.38    -0.02   0.02   0.01     0.08  -0.27   0.04
  10   6     0.08  -0.10  -0.03     0.03  -0.00  -0.02     0.00   0.07  -0.03
  11   6     0.11  -0.15  -0.04    -0.00  -0.01   0.01     0.01   0.04  -0.02
  12   6    -0.01   0.10  -0.03     0.00   0.03  -0.01    -0.05   0.15  -0.01
  13   6     0.06   0.07  -0.07    -0.00  -0.00   0.00    -0.04   0.14  -0.02
  14   6    -0.23  -0.01   0.20    -0.09   0.02   0.07    -0.09  -0.34   0.21
  15  17     0.00   0.00   0.00    -0.00   0.00  -0.00     0.00  -0.00  -0.00
  16   1    -0.01  -0.00   0.02     0.19   0.02  -0.17     0.00  -0.00   0.00
  17   1    -0.02   0.01  -0.00     0.12  -0.11   0.03    -0.01   0.01  -0.00
  18   1     0.01   0.02  -0.01    -0.10  -0.10   0.20     0.00   0.01  -0.00
  19   1     0.01  -0.01  -0.06    -0.10   0.11   0.49     0.00  -0.00  -0.01
  20   1    -0.01  -0.01   0.04     0.07  -0.03  -0.59     0.00  -0.00  -0.00
  21   1    -0.00   0.01  -0.00     0.05   0.01   0.01     0.09   0.00   0.02
  22   1    -0.08  -0.01   0.00     0.02  -0.03  -0.03    -0.05  -0.01  -0.00
  23   1     0.01   0.08  -0.06    -0.01   0.09  -0.06     0.01  -0.01   0.00
  24   1     0.17  -0.11  -0.10    -0.02   0.02   0.01    -0.00  -0.01   0.00
  25   1     0.12   0.07  -0.13    -0.03  -0.01   0.03     0.20   0.09  -0.21
  26   1     0.22   0.03  -0.21     0.01  -0.00  -0.00    -0.30  -0.08   0.30
  27   1     0.04   0.29  -0.15    -0.00  -0.01   0.00     0.00  -0.02   0.01
  28   1     0.11  -0.09  -0.06     0.05  -0.05  -0.03     0.11  -0.10  -0.07
  29   1    -0.05  -0.00   0.04     0.01   0.00  -0.01     0.39   0.17  -0.39
                     52                     53                     54
                        a                      a                      a 
 Frequencies --  1301.4860              1318.8816              1330.0416
 Red. masses --     4.2211                 5.5205                 6.9408
 Frc consts  --     0.0000                 0.0000                 0.0000
 IR Inten    --     5.3277                15.6641                 1.7850
 Raman Activ --     0.0000                 0.0000                 0.0000
 Depolar     --     0.0000                 0.0000                 0.0000
 Atom AN      X      Y      Z        X      Y      Z        X      Y      Z
   1   7     0.06   0.04  -0.03    -0.09  -0.07   0.08     0.04   0.04  -0.01
   2   6     0.03  -0.14  -0.25     0.08   0.11   0.31    -0.07  -0.04  -0.16
   3   6    -0.29  -0.07  -0.07    -0.11   0.01  -0.13     0.18   0.09   0.12
   4   8    -0.05   0.07   0.04    -0.05   0.00   0.03     0.00  -0.13   0.01
   5   6     0.14   0.00  -0.11     0.21   0.09  -0.20     0.27   0.14  -0.27
   6   6    -0.05  -0.07   0.07    -0.09  -0.06   0.10    -0.11   0.01   0.09
   7   6    -0.06   0.02   0.04    -0.11   0.02   0.09    -0.15   0.03   0.12
   8   6     0.09  -0.03  -0.07     0.12  -0.06  -0.08     0.12  -0.12  -0.06
   9   6    -0.02   0.04  -0.00    -0.02   0.07  -0.01    -0.04   0.13  -0.02
  10   6     0.06   0.03  -0.06     0.11   0.04  -0.11     0.18   0.04  -0.17
  11   6    -0.03  -0.03   0.04    -0.05  -0.04   0.06    -0.06  -0.02   0.06
  12   6    -0.05   0.04   0.03    -0.09   0.06   0.06    -0.13   0.09   0.08
  13   6     0.04  -0.03  -0.02     0.07  -0.07  -0.04     0.07  -0.11  -0.02
  14   6    -0.07   0.03   0.05    -0.09   0.06   0.05    -0.11   0.10   0.05
  15  17     0.00   0.00  -0.00    -0.00  -0.00   0.00     0.00   0.00   0.00
  16   1    -0.03   0.02   0.03     0.04  -0.03  -0.03    -0.03   0.01   0.00
  17   1    -0.09  -0.03   0.10     0.16   0.02  -0.14    -0.02  -0.01   0.04
  18   1     0.00  -0.01   0.06    -0.00  -0.00  -0.12    -0.00  -0.03   0.01
  19   1     0.00   0.06   0.26    -0.02  -0.15  -0.52     0.02   0.07   0.23
  20   1     0.04   0.15   0.34     0.01  -0.07  -0.29    -0.02   0.03   0.12
  21   1     0.43   0.10   0.14     0.13  -0.05  -0.00    -0.18  -0.04  -0.04
  22   1     0.46   0.11   0.14     0.24   0.07   0.07    -0.39  -0.08  -0.13
  23   1    -0.02  -0.01   0.01    -0.02  -0.13   0.09    -0.04  -0.26   0.14
  24   1    -0.04   0.04   0.03    -0.02  -0.01   0.02     0.04  -0.08   0.00
  25   1    -0.06  -0.04   0.06    -0.07  -0.05   0.08    -0.06  -0.07   0.08
  26   1    -0.02  -0.00   0.02    -0.05  -0.01   0.05    -0.08  -0.03   0.08
  27   1    -0.01  -0.04   0.02    -0.02  -0.09   0.05    -0.02  -0.16   0.08
  28   1     0.02  -0.03  -0.01     0.04  -0.06  -0.01     0.08  -0.11  -0.03
  29   1    -0.01  -0.01   0.01    -0.02  -0.03   0.03    -0.02  -0.04   0.03
                     55                     56                     57
                        a                      a                      a 
 Frequencies --  1356.3971              1368.4054              1390.1032
 Red. masses --     4.7370                 6.1738                 1.8317
 Frc consts  --     0.0000                 0.0000                 0.0000
 IR Inten    --    36.7636               110.0543                84.8238
 Raman Activ --     0.0000                 0.0000                 0.0000
 Depolar     --     0.0000                 0.0000                 0.0000
 Atom AN      X      Y      Z        X      Y      Z        X      Y      Z
   1   7     0.06  -0.11  -0.18     0.06  -0.09  -0.14     0.06  -0.04   0.23
   2   6     0.04   0.01   0.10     0.02   0.01   0.07     0.02  -0.06  -0.03
   3   6    -0.03   0.00  -0.03     0.05   0.01  -0.00    -0.02   0.00   0.01
   4   8    -0.02   0.05   0.01     0.03  -0.10   0.01    -0.00   0.01  -0.00
   5   6     0.07  -0.18   0.01    -0.07   0.27  -0.06     0.00  -0.01   0.00
   6   6     0.02   0.17  -0.09    -0.04  -0.13   0.09    -0.00   0.00  -0.00
   7   6     0.02   0.03  -0.02    -0.05  -0.07   0.07     0.01  -0.00  -0.01
   8   6    -0.14  -0.12   0.17     0.19   0.11  -0.21    -0.01  -0.01   0.01
   9   6    -0.03   0.15  -0.04     0.04  -0.16   0.02    -0.01   0.02   0.01
  10   6     0.06  -0.11  -0.01    -0.05   0.15  -0.01     0.01  -0.01   0.00
  11   6     0.03   0.13  -0.07    -0.04  -0.19   0.11     0.01   0.01  -0.01
  12   6     0.00   0.04  -0.02    -0.01  -0.04   0.02    -0.01   0.01   0.00
  13   6    -0.12  -0.10   0.15     0.15   0.12  -0.18    -0.01  -0.01   0.01
  14   6    -0.02   0.11  -0.03    -0.01  -0.13   0.06     0.01   0.00  -0.01
  15  17     0.01  -0.00  -0.00     0.01  -0.00  -0.00     0.00  -0.01   0.01
  16   1     0.05   0.04   0.10     0.00   0.02   0.05    -0.19  -0.26  -0.58
  17   1    -0.45   0.09   0.13    -0.39   0.11   0.09    -0.14   0.55  -0.39
  18   1     0.03   0.31   0.38     0.02   0.25   0.35     0.01   0.03   0.06
  19   1    -0.04  -0.04  -0.10    -0.03  -0.02  -0.04     0.02   0.02   0.11
  20   1     0.00  -0.04  -0.11    -0.00  -0.03  -0.10     0.03   0.06  -0.01
  21   1     0.02  -0.02  -0.00    -0.04  -0.01  -0.02     0.02  -0.03   0.00
  22   1     0.08   0.02   0.00    -0.06  -0.01  -0.00     0.02  -0.00  -0.02
  23   1     0.01  -0.16   0.07    -0.01   0.12  -0.04    -0.00   0.00  -0.00
  24   1     0.14  -0.13  -0.06    -0.14   0.11   0.08     0.00  -0.01  -0.01
  25   1     0.07   0.00  -0.07    -0.10  -0.02   0.10    -0.00  -0.00  -0.01
  26   1     0.00  -0.04   0.01    -0.01   0.05  -0.01     0.00  -0.00  -0.01
  27   1     0.00  -0.15   0.05    -0.01   0.16  -0.06     0.00  -0.01   0.00
  28   1     0.12  -0.12  -0.06    -0.13   0.13   0.07     0.01  -0.01  -0.00
  29   1     0.07   0.00  -0.06    -0.11  -0.02   0.10     0.01   0.00  -0.00
                     58                     59                     60
                        a                      a                      a 
 Frequencies --  1407.4152              1417.6289              1444.1475
 Red. masses --    10.6295                 9.1508                 9.5735
 Frc consts  --     0.0000                 0.0000                 0.0000
 IR Inten    --     0.2223                 7.6742                26.0191
 Raman Activ --     0.0000                 0.0000                 0.0000
 Depolar     --     0.0000                 0.0000                 0.0000
 Atom AN      X      Y      Z        X      Y      Z        X      Y      Z
   1   7    -0.01   0.00   0.00    -0.01  -0.00   0.01     0.02   0.00  -0.02
   2   6    -0.00  -0.00  -0.00    -0.01  -0.01  -0.01    -0.00   0.00   0.01
   3   6     0.01  -0.00  -0.00     0.01   0.03   0.01     0.02  -0.02  -0.01
   4   8    -0.02   0.01   0.01    -0.03  -0.03   0.02     0.02  -0.06   0.00
   5   6    -0.09  -0.00   0.07     0.23   0.02  -0.19    -0.06   0.24  -0.05
   6   6    -0.03   0.21  -0.06    -0.12   0.17   0.03    -0.11  -0.21   0.18
   7   6     0.14  -0.21  -0.04    -0.00  -0.20   0.08     0.17  -0.10  -0.11
   8   6    -0.03  -0.03   0.04     0.15   0.05  -0.15     0.04   0.16  -0.09
   9   6    -0.22   0.49   0.01     0.13  -0.02  -0.10    -0.23  -0.11   0.25
  10   6     0.09   0.01  -0.09    -0.32  -0.09   0.32     0.01  -0.17   0.05
  11   6     0.03  -0.26   0.07     0.14  -0.09  -0.09     0.13   0.19  -0.19
  12   6    -0.17   0.23   0.06     0.17   0.08  -0.18    -0.17   0.14   0.10
  13   6     0.07   0.03  -0.08    -0.29   0.00   0.26    -0.08  -0.19   0.14
  14   6     0.19  -0.48   0.03    -0.10   0.03   0.07     0.26   0.14  -0.27
  15  17    -0.00   0.00  -0.00    -0.00   0.00   0.00     0.00  -0.00  -0.00
  16   1     0.01   0.00   0.00     0.03  -0.00  -0.01    -0.04   0.01   0.03
  17   1     0.01  -0.01   0.00     0.01  -0.00  -0.00    -0.02  -0.01   0.02
  18   1     0.00  -0.00  -0.02     0.00   0.02  -0.03    -0.01  -0.02   0.05
  19   1     0.00  -0.00  -0.00     0.01  -0.00   0.00     0.01  -0.00  -0.01
  20   1     0.00   0.00   0.00     0.00   0.02   0.00     0.00   0.00  -0.02
  21   1     0.01   0.00   0.00     0.01  -0.03  -0.00    -0.02   0.04   0.00
  22   1     0.00   0.00   0.00    -0.03  -0.00  -0.03    -0.03  -0.00   0.05
  23   1    -0.01  -0.00   0.01    -0.04  -0.15   0.10    -0.03   0.19  -0.05
  24   1    -0.04   0.02   0.03    -0.11   0.05   0.07    -0.13   0.17   0.05
  25   1    -0.15  -0.05   0.14    -0.11  -0.04   0.12    -0.08   0.02   0.06
  26   1     0.13   0.04  -0.12     0.18   0.06  -0.19     0.01  -0.05   0.01
  27   1     0.01   0.02  -0.02     0.05   0.20  -0.12     0.03  -0.16   0.03
  28   1     0.04  -0.03  -0.02     0.08  -0.01  -0.07     0.16  -0.18  -0.07
  29   1     0.14   0.04  -0.14     0.12   0.07  -0.13     0.11  -0.01  -0.08
                     61                     62                     63
                        a                      a                      a 
 Frequencies --  1450.5909              1473.3883              1485.9772
 Red. masses --     2.0994                 1.8404                 1.9223
 Frc consts  --     0.0000                 0.0000                 0.0000
 IR Inten    --    74.5891                10.4870                 7.8177
 Raman Activ --     0.0000                 0.0000                 0.0000
 Depolar     --     0.0000                 0.0000                 0.0000
 Atom AN      X      Y      Z        X      Y      Z        X      Y      Z
   1   7    -0.18  -0.12   0.12    -0.04  -0.02   0.04    -0.00  -0.00   0.02
   2   6    -0.09  -0.09  -0.05     0.21   0.14  -0.07     0.06   0.02  -0.01
   3   6     0.02  -0.00   0.01    -0.01   0.03   0.03     0.07  -0.17  -0.19
   4   8     0.00  -0.00   0.00    -0.01   0.00   0.00     0.02  -0.02  -0.01
   5   6    -0.02   0.02   0.00    -0.00   0.01   0.00     0.02   0.02  -0.03
   6   6    -0.00  -0.03   0.02    -0.01  -0.01   0.01    -0.00   0.01  -0.01
   7   6     0.01   0.00  -0.01    -0.00  -0.00   0.00    -0.01   0.00   0.01
   8   6    -0.00   0.01  -0.00     0.01   0.01  -0.02    -0.02  -0.01   0.02
   9   6    -0.02  -0.02   0.02    -0.01  -0.01   0.01     0.02   0.02  -0.03
  10   6     0.01  -0.00  -0.01    -0.00  -0.00   0.01    -0.01   0.01   0.00
  11   6    -0.00   0.02  -0.01     0.01   0.00  -0.01    -0.01  -0.02   0.01
  12   6    -0.02  -0.00   0.02    -0.01   0.01   0.01     0.01  -0.00  -0.01
  13   6     0.01  -0.01  -0.01    -0.00  -0.01   0.01    -0.01   0.01   0.00
  14   6     0.02   0.01  -0.02     0.02   0.01  -0.02    -0.02  -0.00   0.02
  15  17    -0.00  -0.00   0.00     0.00  -0.00   0.00     0.00  -0.00   0.00
  16   1     0.64   0.00  -0.12     0.17  -0.01  -0.07     0.00  -0.02  -0.04
  17   1    -0.01   0.01  -0.02     0.01   0.02  -0.03    -0.00   0.03  -0.02
  18   1     0.13   0.55  -0.32     0.04   0.13  -0.11     0.00   0.01  -0.00
  19   1     0.17   0.01   0.08    -0.64   0.04   0.08    -0.14  -0.00  -0.00
  20   1     0.04   0.17   0.01    -0.17  -0.58   0.22    -0.03  -0.12   0.03
  21   1    -0.02   0.03   0.00     0.05  -0.12  -0.02    -0.18   0.64   0.09
  22   1    -0.01   0.00   0.03     0.04  -0.01  -0.13    -0.18   0.05   0.62
  23   1    -0.00   0.02  -0.01    -0.00   0.02  -0.01     0.00  -0.09   0.05
  24   1    -0.01   0.01   0.00    -0.01   0.01   0.00     0.00  -0.01  -0.00
  25   1     0.00   0.00  -0.00    -0.01  -0.00   0.01     0.00  -0.00  -0.00
  26   1    -0.01  -0.01   0.01     0.00  -0.00  -0.00     0.00   0.00  -0.01
  27   1    -0.00  -0.02   0.01     0.00  -0.00  -0.00    -0.00   0.01  -0.00
  28   1    -0.00  -0.00   0.00     0.01  -0.01  -0.00    -0.00   0.01   0.00
  29   1    -0.01  -0.01   0.01     0.00  -0.00  -0.00    -0.00   0.00   0.00
                     64                     65                     66
                        a                      a                      a 
 Frequencies --  1517.7505              1568.1762              1585.0223
 Red. masses --    10.8890                11.5972                11.4883
 Frc consts  --     0.0000                 0.0000                 0.0000
 IR Inten    --    11.0015                24.4968                 3.0930
 Raman Activ --     0.0000                 0.0000                 0.0000
 Depolar     --     0.0000                 0.0000                 0.0000
 Atom AN      X      Y      Z        X      Y      Z        X      Y      Z
   1   7     0.00  -0.00  -0.00    -0.00  -0.00  -0.00    -0.00   0.00   0.00
   2   6    -0.00  -0.00   0.00     0.00   0.00   0.00    -0.00  -0.00   0.00
   3   6     0.00  -0.01   0.00     0.01   0.01   0.00    -0.00  -0.01  -0.00
   4   8     0.02  -0.00  -0.01    -0.01  -0.04   0.01     0.01   0.03  -0.01
   5   6    -0.13   0.10   0.06     0.13   0.28  -0.22    -0.17  -0.08   0.17
   6   6     0.10  -0.33   0.04    -0.05  -0.41   0.21     0.14   0.02  -0.13
   7   6    -0.23   0.36   0.06     0.02   0.17  -0.09    -0.40   0.24   0.26
   8   6     0.00  -0.18   0.07    -0.14  -0.12   0.17     0.42  -0.05  -0.34
   9   6     0.21   0.06  -0.21    -0.02   0.36  -0.12    -0.21   0.12   0.14
  10   6    -0.14   0.12   0.08     0.00  -0.10   0.04     0.01  -0.12   0.04
  11   6     0.07  -0.37   0.08    -0.05   0.22  -0.04    -0.00   0.22  -0.08
  12   6    -0.16   0.32   0.02     0.25  -0.25  -0.12     0.12  -0.15  -0.05
  13   6    -0.05  -0.17   0.11    -0.16   0.14   0.09    -0.10   0.05   0.07
  14   6     0.17   0.09  -0.18     0.02  -0.31   0.10     0.18  -0.16  -0.09
  15  17     0.00  -0.00  -0.00     0.00  -0.00  -0.00     0.00  -0.00   0.00
  16   1     0.00   0.00   0.00     0.00   0.00   0.01     0.00  -0.00  -0.00
  17   1    -0.01   0.00  -0.00    -0.01  -0.00   0.00     0.00   0.00  -0.00
  18   1     0.00   0.01   0.01     0.00   0.01   0.01     0.00  -0.00  -0.00
  19   1     0.01   0.00   0.00    -0.01  -0.00  -0.00     0.01   0.00   0.00
  20   1     0.00   0.01  -0.01    -0.00  -0.01  -0.00     0.00   0.00  -0.00
  21   1    -0.01  -0.00  -0.00     0.01  -0.02  -0.00    -0.01   0.02   0.00
  22   1     0.01  -0.00  -0.01    -0.02  -0.00  -0.01     0.01   0.00   0.01
  23   1     0.03   0.06  -0.05    -0.01   0.13  -0.05     0.03  -0.08   0.01
  24   1     0.10  -0.08  -0.06     0.02   0.03  -0.03     0.05  -0.11  -0.00
  25   1     0.09  -0.02  -0.07     0.04  -0.00  -0.04    -0.06  -0.08   0.09
  26   1     0.06   0.07  -0.08     0.02  -0.02  -0.02     0.01  -0.03   0.00
  27   1     0.03   0.11  -0.07    -0.01  -0.02   0.02    -0.00  -0.04   0.02
  28   1     0.09  -0.06  -0.06    -0.05   0.07   0.02    -0.02   0.01   0.01
  29   1     0.09  -0.01  -0.07     0.00   0.05  -0.02     0.02   0.03  -0.03
                     67                     68                     69
                        a                      a                      a 
 Frequencies --  1611.0741              2841.4033              2932.6454
 Red. masses --    11.4492                 2.0509                 1.9440
 Frc consts  --     0.0000                 0.0000                 0.0000
 IR Inten    --     0.6490              2047.8499                 5.2605
 Raman Activ --     0.0000                 0.0000                 0.0000
 Depolar     --     0.0000                 0.0000                 0.0000
 Atom AN      X      Y      Z        X      Y      Z        X      Y      Z
   1   7     0.00   0.00   0.00    -0.12  -0.18  -0.18     0.00   0.00   0.00
   2   6     0.00   0.00   0.00     0.00   0.00  -0.00    -0.01   0.02  -0.00
   3   6    -0.00  -0.00  -0.00    -0.00  -0.00   0.01    -0.02  -0.19   0.22
   4   8     0.00   0.00  -0.00     0.00  -0.00   0.00    -0.01  -0.00   0.00
   5   6    -0.01   0.00   0.00    -0.00   0.00  -0.00    -0.00  -0.00   0.00
   6   6    -0.02   0.02   0.01     0.00  -0.00   0.00     0.00  -0.00  -0.00
   7   6     0.06  -0.05  -0.03    -0.00  -0.00   0.00     0.00   0.00   0.00
   8   6    -0.02   0.04  -0.00     0.00  -0.00   0.00     0.00  -0.00  -0.00
   9   6    -0.15  -0.06   0.16    -0.00   0.00  -0.00     0.00  -0.00   0.00
  10   6     0.30   0.22  -0.35     0.00  -0.00   0.00    -0.00   0.00  -0.00
  11   6    -0.17  -0.29   0.27     0.00  -0.00  -0.00    -0.00   0.00   0.00
  12   6     0.29  -0.07  -0.23     0.00   0.00  -0.00     0.00   0.00  -0.00
  13   6    -0.36  -0.04   0.33     0.00  -0.00   0.00    -0.00   0.00  -0.00
  14   6     0.12   0.13  -0.16     0.00  -0.00   0.00    -0.00   0.00   0.00
  15  17    -0.00   0.00   0.00     0.01   0.01   0.01    -0.00   0.00  -0.00
  16   1    -0.00  -0.00  -0.00    -0.01   0.01  -0.02     0.00  -0.00  -0.00
  17   1     0.00  -0.00  -0.00     0.38   0.61   0.63    -0.01  -0.01  -0.01
  18   1    -0.00  -0.00  -0.00     0.05  -0.02  -0.01    -0.00  -0.00  -0.00
  19   1    -0.00   0.00   0.00     0.00  -0.01   0.00     0.00  -0.11   0.03
  20   1    -0.00  -0.00   0.00    -0.00   0.00  -0.00     0.03  -0.00   0.00
  21   1     0.00  -0.00  -0.00     0.01   0.01  -0.02     0.19   0.15  -0.74
  22   1     0.00  -0.00  -0.00     0.00  -0.00   0.00    -0.10   0.52  -0.06
  23   1    -0.01   0.01   0.00    -0.00   0.00   0.00    -0.01   0.00   0.01
  24   1    -0.01   0.02   0.00     0.00   0.00  -0.00     0.00   0.00  -0.00
  25   1    -0.01   0.01   0.01    -0.00   0.00  -0.00    -0.00   0.00  -0.00
  26   1    -0.09   0.01   0.07    -0.00   0.00  -0.00     0.00  -0.00   0.00
  27   1    -0.04   0.11  -0.01    -0.00   0.00   0.00     0.00   0.00  -0.00
  28   1    -0.03   0.10  -0.01    -0.00  -0.00   0.00     0.00   0.00   0.00
  29   1     0.06   0.05  -0.07    -0.00   0.00  -0.00     0.00  -0.00  -0.00
                     70                     71                     72
                        a                      a                      a 
 Frequencies --  2958.9071              2967.9972              2987.5764
 Red. masses --     1.6790                 1.8014                 1.5402
 Frc consts  --     0.0000                 0.0000                 0.0000
 IR Inten    --    16.7621                18.3323                 2.6478
 Raman Activ --     0.0000                 0.0000                 0.0000
 Depolar     --     0.0000                 0.0000                 0.0000
 Atom AN      X      Y      Z        X      Y      Z        X      Y      Z
   1   7    -0.00   0.00  -0.00     0.00  -0.00   0.00    -0.00   0.00  -0.00
   2   6     0.12  -0.14   0.04    -0.16   0.16  -0.04    -0.15  -0.15   0.05
   3   6    -0.05   0.12   0.09    -0.04   0.13   0.05    -0.00  -0.03   0.01
   4   8    -0.01   0.00   0.00    -0.01   0.00   0.00     0.00  -0.00   0.00
   5   6     0.00  -0.00  -0.00     0.00  -0.00   0.00    -0.00   0.00  -0.00
   6   6     0.00  -0.00  -0.00     0.00  -0.00  -0.00    -0.00  -0.00   0.00
   7   6    -0.00  -0.00   0.00     0.00   0.00   0.00    -0.00  -0.00   0.00
   8   6     0.00  -0.00  -0.00    -0.00   0.00  -0.00     0.00  -0.00  -0.00
   9   6     0.00  -0.00   0.00     0.00  -0.00   0.00     0.00  -0.00   0.00
  10   6    -0.00   0.00  -0.00    -0.00  -0.00   0.00     0.00   0.00  -0.00
  11   6    -0.00  -0.00   0.00    -0.00   0.00   0.00    -0.00  -0.00   0.00
  12   6    -0.00  -0.00   0.00    -0.00  -0.00   0.00     0.00   0.00  -0.00
  13   6     0.00   0.00  -0.00    -0.00   0.00  -0.00     0.00   0.00  -0.00
  14   6     0.00  -0.00   0.00     0.00  -0.00  -0.00    -0.00  -0.00   0.00
  15  17    -0.00  -0.00  -0.00     0.00  -0.00  -0.00     0.00   0.00  -0.00
  16   1     0.00  -0.02   0.01     0.00   0.01  -0.00     0.00  -0.03   0.01
  17   1    -0.00  -0.01  -0.01    -0.00  -0.00  -0.00     0.00   0.01   0.01
  18   1     0.02  -0.00   0.00    -0.02   0.00  -0.00    -0.02   0.00  -0.00
  19   1     0.01   0.40  -0.12    -0.01  -0.38   0.11    -0.03   0.74  -0.22
  20   1    -0.44   0.12  -0.02     0.58  -0.17   0.03     0.56  -0.19   0.03
  21   1     0.11   0.13  -0.44     0.07   0.09  -0.29     0.00   0.00  -0.02
  22   1     0.10  -0.56   0.11     0.10  -0.54   0.10    -0.02   0.09  -0.01
  23   1    -0.01   0.00   0.01    -0.01   0.00   0.00     0.00   0.00  -0.00
  24   1     0.00   0.00  -0.00    -0.00  -0.00   0.00     0.00   0.00  -0.00
  25   1    -0.00   0.00  -0.00    -0.00  -0.00  -0.00    -0.00   0.00  -0.00
  26   1     0.00  -0.00  -0.00    -0.00   0.00   0.00     0.00   0.00  -0.00
  27   1     0.00  -0.00  -0.00     0.00  -0.00  -0.00     0.00   0.00  -0.00
  28   1     0.00   0.00  -0.00     0.00   0.00  -0.00    -0.00  -0.00   0.00
  29   1     0.00  -0.00   0.00     0.00  -0.00   0.00     0.00  -0.00   0.00
                     73                     74                     75
                        a                      a                      a 
 Frequencies --  3094.8788              3098.9932              3102.8998
 Red. masses --     1.7632                 1.7906                 1.8165
 Frc consts  --     0.0000                 0.0000                 0.0000
 IR Inten    --     2.4689                11.5284                22.5084
 Raman Activ --     0.0000                 0.0000                 0.0000
 Depolar     --     0.0000                 0.0000                 0.0000
 Atom AN      X      Y      Z        X      Y      Z        X      Y      Z
   1   7    -0.00   0.00  -0.00    -0.00  -0.00  -0.00    -0.01   0.00  -0.00
   2   6    -0.00   0.00  -0.00    -0.00  -0.00   0.00    -0.00   0.00   0.00
   3   6     0.00   0.00   0.00    -0.00   0.00   0.00    -0.00   0.00   0.00
   4   8    -0.00   0.00  -0.00    -0.00   0.00  -0.00    -0.00   0.00  -0.00
   5   6     0.00  -0.00  -0.00    -0.00  -0.00   0.00     0.00  -0.00  -0.00
   6   6     0.00  -0.00  -0.00    -0.02   0.01   0.02     0.01  -0.00  -0.00
   7   6    -0.00  -0.00   0.00     0.10   0.16  -0.16    -0.01  -0.02   0.02
   8   6    -0.00   0.01   0.00     0.03  -0.08   0.00     0.00  -0.00  -0.00
   9   6     0.00  -0.00   0.00     0.00  -0.00  -0.00    -0.00   0.00  -0.00
  10   6     0.01  -0.04   0.00    -0.00   0.01  -0.00    -0.03   0.08  -0.00
  11   6    -0.14   0.05   0.11     0.01  -0.00  -0.01     0.13  -0.04  -0.10
  12   6     0.07   0.11  -0.11     0.01   0.02  -0.01     0.07   0.10  -0.10
  13   6     0.02  -0.05  -0.00     0.00  -0.01   0.00     0.04  -0.11   0.00
  14   6     0.00  -0.00  -0.00     0.00  -0.00   0.00     0.00  -0.00  -0.00
  15  17     0.00  -0.00   0.00    -0.00  -0.00   0.00    -0.00  -0.00   0.00
  16   1     0.00  -0.00   0.00    -0.00   0.00  -0.00    -0.00  -0.01   0.00
  17   1    -0.00  -0.00  -0.00     0.00   0.00   0.00    -0.00  -0.00  -0.00
  18   1     0.01  -0.00   0.00     0.00  -0.00   0.00     0.03  -0.01   0.00
  19   1    -0.00  -0.00   0.00     0.00   0.00  -0.00    -0.00  -0.00   0.00
  20   1     0.00  -0.00   0.00     0.00  -0.00   0.00     0.00  -0.00   0.00
  21   1     0.00   0.00  -0.00     0.00   0.00  -0.00     0.00   0.00  -0.00
  22   1     0.00  -0.00   0.00     0.00  -0.00   0.00     0.00  -0.00   0.00
  23   1    -0.00   0.00   0.00     0.11  -0.04  -0.08    -0.02   0.01   0.02
  24   1     0.01   0.02  -0.02    -0.37  -0.58   0.56     0.04   0.07  -0.07
  25   1     0.01  -0.02   0.00    -0.12   0.30  -0.02     0.00  -0.00   0.00
  26   1    -0.06   0.17  -0.01     0.02  -0.05   0.00     0.11  -0.29   0.01
  27   1     0.52  -0.18  -0.39    -0.02   0.01   0.02    -0.44   0.15   0.33
  28   1    -0.27  -0.42   0.39    -0.04  -0.05   0.05    -0.24  -0.37   0.35
  29   1    -0.07   0.19  -0.01    -0.01   0.04  -0.00    -0.15   0.40  -0.01
                     76                     77                     78
                        a                      a                      a 
 Frequencies --  3114.2288              3115.7670              3119.0455
 Red. masses --     1.8579                 1.8833                 1.8706
 Frc consts  --     0.0000                 0.0000                 0.0000
 IR Inten    --    27.8564                32.2971                33.0318
 Raman Activ --     0.0000                 0.0000                 0.0000
 Depolar     --     0.0000                 0.0000                 0.0000
 Atom AN      X      Y      Z        X      Y      Z        X      Y      Z
   1   7     0.01  -0.01   0.00    -0.00   0.00  -0.00     0.00  -0.00  -0.00
   2   6     0.00  -0.00  -0.00    -0.00   0.00   0.00    -0.00  -0.00   0.00
   3   6     0.00   0.00  -0.00     0.00   0.00  -0.00     0.00  -0.00   0.00
   4   8     0.00  -0.00   0.00    -0.00   0.00  -0.00    -0.00   0.00  -0.00
   5   6    -0.00   0.00  -0.00     0.00  -0.00  -0.00    -0.00   0.00   0.00
   6   6     0.01  -0.00  -0.01     0.02  -0.00  -0.01    -0.02   0.01   0.02
   7   6    -0.01  -0.02   0.02    -0.03  -0.05   0.05     0.02   0.03  -0.03
   8   6     0.02  -0.06   0.00     0.07  -0.18   0.01    -0.06   0.15  -0.01
   9   6     0.00   0.00  -0.00     0.00   0.00  -0.00    -0.00   0.01  -0.00
  10   6    -0.05   0.13  -0.01    -0.03   0.09  -0.01    -0.07   0.18  -0.01
  11   6    -0.01   0.00   0.01    -0.06   0.02   0.04    -0.07   0.02   0.05
  12   6     0.04   0.06  -0.06    -0.04  -0.06   0.05    -0.02  -0.04   0.03
  13   6    -0.07   0.19  -0.01     0.04  -0.10   0.00     0.02  -0.05   0.00
  14   6    -0.00   0.00   0.00     0.00  -0.00  -0.00     0.00  -0.00  -0.00
  15  17     0.00  -0.00   0.00    -0.00   0.00  -0.00     0.00  -0.00  -0.00
  16   1     0.00   0.01  -0.00    -0.00  -0.00   0.00    -0.00   0.00  -0.00
  17   1     0.00   0.00   0.00    -0.00  -0.00  -0.00     0.00   0.00   0.00
  18   1    -0.04   0.01  -0.00     0.02  -0.00   0.00    -0.00  -0.00   0.00
  19   1    -0.00  -0.00  -0.00    -0.00  -0.00   0.00     0.00   0.00   0.00
  20   1    -0.00   0.00  -0.00     0.00  -0.00  -0.00     0.00   0.00  -0.00
  21   1    -0.00  -0.00   0.00    -0.00  -0.00   0.00     0.00   0.00  -0.00
  22   1    -0.00  -0.00  -0.00    -0.00   0.00  -0.00    -0.00   0.00  -0.00
  23   1    -0.04   0.01   0.03    -0.06   0.02   0.05     0.08  -0.03  -0.06
  24   1     0.04   0.07  -0.06     0.10   0.15  -0.15    -0.07  -0.11   0.10
  25   1    -0.08   0.22  -0.01    -0.24   0.63  -0.04     0.19  -0.51   0.03
  26   1     0.17  -0.45   0.02     0.12  -0.32   0.02     0.24  -0.62   0.03
  27   1     0.04  -0.01  -0.03     0.19  -0.07  -0.14     0.22  -0.08  -0.16
  28   1    -0.13  -0.21   0.20     0.12   0.18  -0.17     0.07   0.12  -0.11
  29   1     0.25  -0.68   0.02    -0.13   0.36  -0.01    -0.06   0.16  -0.01
                     79                     80                     81
                        a                      a                      a 
 Frequencies --  3133.3071              3157.4448              3174.9906
 Red. masses --     1.8401                 2.0361                 1.4939
 Frc consts  --     0.0000                 0.0000                 0.0000
 IR Inten    --    26.4594               120.6192                29.4499
 Raman Activ --     0.0000                 0.0000                 0.0000
 Depolar     --     0.0000                 0.0000                 0.0000
 Atom AN      X      Y      Z        X      Y      Z        X      Y      Z
   1   7    -0.01   0.01  -0.00    -0.20   0.18  -0.07    -0.12  -0.14   0.06
   2   6    -0.00   0.00   0.00    -0.01   0.01  -0.00    -0.01  -0.01   0.01
   3   6    -0.00   0.00   0.00     0.00  -0.00  -0.00     0.00  -0.00   0.00
   4   8    -0.00  -0.00   0.00     0.00  -0.00   0.00    -0.00  -0.00  -0.00
   5   6    -0.00   0.01   0.00     0.00   0.00  -0.00     0.00  -0.00  -0.00
   6   6    -0.20   0.07   0.16     0.01  -0.00  -0.01     0.00  -0.00  -0.00
   7   6    -0.03  -0.04   0.04     0.00   0.00  -0.00     0.00   0.00  -0.00
   8   6     0.01  -0.02  -0.00    -0.00   0.00   0.00    -0.00   0.00   0.00
   9   6     0.00  -0.00  -0.00    -0.00   0.00  -0.00    -0.00   0.00  -0.00
  10   6     0.00  -0.01   0.00    -0.00   0.00  -0.00    -0.00   0.00  -0.00
  11   6     0.00  -0.00  -0.00    -0.00   0.00   0.00    -0.00  -0.00   0.00
  12   6     0.00   0.00  -0.00    -0.00  -0.00   0.00    -0.00   0.00   0.00
  13   6    -0.00   0.01   0.00    -0.00   0.01   0.00    -0.00   0.01   0.00
  14   6     0.00  -0.00  -0.00    -0.00   0.00   0.00    -0.00   0.00   0.00
  15  17     0.00  -0.00  -0.00    -0.00   0.00   0.00     0.00   0.00   0.00
  16   1     0.00  -0.02   0.01     0.04  -0.54   0.20    -0.09   0.72  -0.27
  17   1    -0.00  -0.00  -0.00    -0.03  -0.00  -0.03    -0.03  -0.05  -0.04
  18   1     0.05  -0.01   0.01     0.74  -0.14   0.08     0.57  -0.14   0.07
  19   1     0.00  -0.00   0.00     0.00  -0.02   0.00    -0.00   0.02  -0.01
  20   1    -0.00   0.00  -0.00     0.02  -0.01   0.00     0.02  -0.01  -0.00
  21   1     0.01   0.01  -0.02    -0.00  -0.00   0.00    -0.00   0.00  -0.00
  22   1     0.00  -0.00   0.00    -0.00   0.00  -0.00    -0.00   0.00   0.00
  23   1     0.72  -0.25  -0.55    -0.04   0.01   0.03    -0.01   0.00   0.01
  24   1     0.07   0.11  -0.11    -0.01  -0.01   0.01    -0.00  -0.00   0.00
  25   1    -0.03   0.08  -0.00     0.00  -0.01   0.00     0.00  -0.00   0.00
  26   1    -0.01   0.02  -0.00     0.00  -0.01   0.00     0.00  -0.00   0.00
  27   1    -0.01   0.00   0.01     0.01  -0.00  -0.01     0.00  -0.00  -0.00
  28   1    -0.01  -0.01   0.01     0.00   0.00  -0.00     0.00   0.00  -0.00
  29   1     0.01  -0.02   0.00     0.01  -0.04   0.00     0.01  -0.02   0.00
