11
 energy: -10.951242100732 gnorm: 0.000227442455 xtb: 6.5.1 (fef0646)
N            1.05676465882508        0.05565506414802       -0.04885099803977
C            2.54235255046669        0.06586277606727       -0.03476041065982
C            3.04690150332097        0.85167072285268        1.16329858350571
H            0.69911154920328       -0.46760141737357       -0.85568096044904
H            0.70047842405825        1.01787412428583       -0.09288295360727
H            0.70068041158682       -0.37748953137336        0.81164265124865
H            2.90281100743601        0.51961310528935       -0.95745118932333
H            2.90394359902381       -0.96087520920736        0.01252138851265
H            2.71606191461665        1.88599820724528        1.12444281212091
H            4.13243282099680        0.85305947902318        1.17220592594352
H            2.71000156046563        0.40853267904266        2.09647515074779
