      -----------------------------------------------------------      
     |                   =====================                   |     
     |                           x T B                           |     
     |                   =====================                   |     
     |                         S. Grimme                         |     
     |          Mulliken Center for Theoretical Chemistry        |     
     |                    University of Bonn                     |     
      -----------------------------------------------------------      

   * xtb version 6.5.1 (fef0646) compiled by 'conda@b96dff2e9fd6' on 2023-01-04

   xtb is free software: you can redistribute it and/or modify it under
   the terms of the GNU Lesser General Public License as published by
   the Free Software Foundation, either version 3 of the License, or
   (at your option) any later version.
   
   xtb is distributed in the hope that it will be useful,
   but WITHOUT ANY WARRANTY; without even the implied warranty of
   MERCHANTABILITY or FITNESS FOR A PARTICULAR PURPOSE.  See the
   GNU Lesser General Public License for more details.
   
   Cite this work as:
   * C. Bannwarth, E. Caldeweyher, S. Ehlert, A. Hansen, P. Pracht,
     J. Seibert, S. Spicher, S. Grimme, WIREs Comput. Mol. Sci., 2020, 11,
     e01493. DOI: 10.1002/wcms.1493
   
   for GFN2-xTB:
   * C. Bannwarth, S. Ehlert and S. Grimme., J. Chem. Theory Comput., 2019,
     15, 1652-1671. DOI: 10.1021/acs.jctc.8b01176
   for GFN1-xTB:
   * S. Grimme, C. Bannwarth, P. Shushkov, J. Chem. Theory Comput., 2017,
     13, 1989-2009. DOI: 10.1021/acs.jctc.7b00118
   for GFN0-xTB:
   * P. Pracht, E. Caldeweyher, S. Ehlert, S. Grimme, ChemRxiv, 2019, preprint.
     DOI: 10.26434/chemrxiv.8326202.v1
   for GFN-FF:
   * S. Spicher and S. Grimme, Angew. Chem. Int. Ed., 2020, 59, 15665-15673.
     DOI: 10.1002/anie.202004239
   
   for ALPB and GBSA implicit solvation:
   * S. Ehlert, M. Stahn, S. Spicher, S. Grimme, J. Chem. Theory Comput.,
     2021, 17, 4250-4261. DOI: 10.1021/acs.jctc.1c00471
   
   for DFT-D4:
   * E. Caldeweyher, C. Bannwarth and S. Grimme, J. Chem. Phys., 2017,
     147, 034112. DOI: 10.1063/1.4993215
   * E. Caldeweyher, S. Ehlert, A. Hansen, H. Neugebauer, S. Spicher,
     C. Bannwarth and S. Grimme, J. Chem. Phys., 2019, 150, 154122.
     DOI: 10.1063/1.5090222
   * E. Caldeweyher, J.-M. Mewes, S. Ehlert and S. Grimme, Phys. Chem. Chem. Phys.
     2020, 22, 8499-8512. DOI: 10.1039/D0CP00502A
   
   for sTDA-xTB:
   * S. Grimme and C. Bannwarth, J. Chem. Phys., 2016, 145, 054103.
     DOI: 10.1063/1.4959605
   
   in the mass-spec context:
   * V. Asgeirsson, C. Bauer and S. Grimme, Chem. Sci., 2017, 8, 4879.
     DOI: 10.1039/c7sc00601b
   * J. Koopman and S. Grimme, ACS Omega 2019, 4, 12, 15120-15133.
     DOI: 10.1021/acsomega.9b02011
   
   for metadynamics refer to:
   * S. Grimme, J. Chem. Theory Comput., 2019, 155, 2847-2862
     DOI: 10.1021/acs.jctc.9b00143
   
   for SPH calculations refer to:
   * S. Spicher and S. Grimme, J. Chem. Theory Comput., 2021, 17, 1701-1714
     DOI: 10.1021/acs.jctc.0c01306
   
   with help from (in alphabetical order)
   P. Atkinson, C. Bannwarth, F. Bohle, G. Brandenburg, E. Caldeweyher
   M. Checinski, S. Dohm, S. Ehlert, S. Ehrlich, I. Gerasimov, C. Hölzer
   A. Katbashev, J. Koopman, C. Lavigne, S. Lehtola, F. März, M. Müller,
   F. Musil, H. Neugebauer, J. Pisarek, C. Plett, P. Pracht, F. Pultar,
   J. Seibert, P. Shushkov, S. Spicher, M. Stahn, M. Steiner, T. Strunk,
   J. Stückrath, T. Rose, and J. Unsleber
   
 * started run on 2023/01/23 at 14:13:47.638     

           -------------------------------------------------
          |                Calculation Setup                |
           -------------------------------------------------

          program call               : xtb init.xyz --opt -c 0 -u 0 -P 16
          hostname                   : gpg-woodward
          coordinate file            : init.xyz
          omp threads                :                    16

   ID    Z sym.   atoms
    1    7 N      1
    2    6 C      2-5
    3   35 Br     6
    4   17 Cl     7
    5    1 H      8-18

molecular fragmentation (1/2 indicates fragments):
111111211111111111
# atoms in fragment 1/2:    17     1
 fragment masses (1/2) :      153.04       35.45
CMA distance (Bohr)    :  12.419
constraining FC (au)   :  0.0500

           -------------------------------------------------
          |                 G F N 2 - x T B                 |
           -------------------------------------------------

        Reference                      10.1021/acs.jctc.8b01176
      * Hamiltonian:
        H0-scaling (s, p, d)           1.850000    2.230000    2.230000
        zeta-weighting                 0.500000
      * Dispersion:
        s8                             2.700000
        a1                             0.520000
        a2                             5.000000
        s9                             5.000000
      * Repulsion:
        kExp                           1.500000    1.000000
        rExp                           1.000000
      * Coulomb:
        alpha                          2.000000
        third order                    shell-resolved
        anisotropic                    true
        a3                             3.000000
        a5                             4.000000
        cn-shift                       1.200000
        cn-exp                         4.000000
        max-rad                        5.000000


          ...................................................
          :                      SETUP                      :
          :.................................................:
          :  # basis functions                  51          :
          :  # atomic orbitals                  49          :
          :  # shells                           27          :
          :  # electrons                        46          :
          :  max. iterations                   250          :
          :  Hamiltonian                  GFN2-xTB          :
          :  restarted?                      false          :
          :  GBSA solvation                  false          :
          :  PC potential                    false          :
          :  electronic temp.          300.0000000     K    :
          :  accuracy                    1.0000000          :
          :  -> integral cutoff          0.2500000E+02      :
          :  -> integral neglect         0.1000000E-07      :
          :  -> SCF convergence          0.1000000E-05 Eh   :
          :  -> wf. convergence          0.1000000E-03 e    :
          :  Broyden damping             0.4000000          :
          ...................................................

 iter      E             dE          RMSdq      gap      omega  full diag
   1    -25.7858707 -0.257859E+02  0.505E+00    5.59       0.0  T
   2    -25.9170419 -0.131171E+00  0.329E+00    4.12       1.0  T
   3    -25.9222483 -0.520646E-02  0.142E+00    3.63       1.0  T
   4    -25.9241385 -0.189013E-02  0.797E-01    3.20       1.0  T
   5    -25.9254396 -0.130118E-02  0.449E-01    3.11       1.0  T
   6    -25.9261537 -0.714013E-03  0.252E-01    3.01       1.0  T
   7    -25.9264196 -0.265921E-03  0.854E-02    2.96       1.0  T
   8    -25.9264340 -0.144686E-04  0.243E-02    2.95       1.0  T
   9    -25.9264347 -0.693763E-06  0.127E-02    2.95       1.9  T
  10    -25.9264351 -0.330238E-06  0.783E-03    2.95       3.0  T
  11    -25.9264353 -0.246288E-06  0.346E-03    2.94       6.8  T
  12    -25.9264354 -0.590899E-07  0.138E-03    2.94      17.1  T
  13    -25.9264354 -0.271273E-08  0.236E-04    2.94      99.7  T
  14    -25.9264354 -0.139163E-09  0.138E-04    2.94     170.9  T

   *** convergence criteria satisfied after 14 iterations ***

         #    Occupation            Energy/Eh            Energy/eV
      -------------------------------------------------------------
         1        2.0000           -0.9483707             -25.8065
       ...           ...                  ...                  ...
        17        2.0000           -0.4969106             -13.5216
        18        2.0000           -0.4850940             -13.2001
        19        2.0000           -0.4242794             -11.5452
        20        2.0000           -0.4223480             -11.4927
        21        2.0000           -0.3475290              -9.4567
        22        2.0000           -0.3428686              -9.3299
        23        2.0000           -0.3411130              -9.2822 (HOMO)
        24                         -0.2328967              -6.3374 (LUMO)
        25                         -0.0998669              -2.7175
        26                         -0.0035261              -0.0959
        27                          0.0212830               0.5791
        28                          0.0259328               0.7057
       ...                                ...                  ...
        49                          0.3732573              10.1568
      -------------------------------------------------------------
                  HL-Gap            0.1082163 Eh            2.9447 eV
             Fermi-level           -0.2870049 Eh           -7.8098 eV

 SCC (total)                   0 d,  0 h,  0 min,  0.026 sec
 SCC setup                      ...        0 min,  0.000 sec (  0.721%)
 Dispersion                     ...        0 min,  0.000 sec (  0.936%)
 classical contributions        ...        0 min,  0.000 sec (  0.567%)
 integral evaluation            ...        0 min,  0.001 sec (  5.195%)
 iterations                     ...        0 min,  0.022 sec ( 83.469%)
 molecular gradient             ...        0 min,  0.002 sec (  7.364%)
 printout                       ...        0 min,  0.000 sec (  0.655%)

         :::::::::::::::::::::::::::::::::::::::::::::::::::::
         ::                     SUMMARY                     ::
         :::::::::::::::::::::::::::::::::::::::::::::::::::::
         :: total energy             -25.693611204646 Eh    ::
         :: gradient norm              0.030703146875 Eh/a0 ::
         :: HOMO-LUMO gap              2.944715152965 eV    ::
         ::.................................................::
         :: SCC energy               -25.926435382173 Eh    ::
         :: -> isotropic ES            0.107999954919 Eh    ::
         :: -> anisotropic ES         -0.023794258573 Eh    ::
         :: -> anisotropic XC         -0.001219469728 Eh    ::
         :: -> dispersion             -0.010594039006 Eh    ::
         :: repulsion energy           0.232863704646 Eh    ::
         :: add. restraining           0.000000000000 Eh    ::
         :: total charge               0.000000000000 e     ::
         :::::::::::::::::::::::::::::::::::::::::::::::::::::

      ----------------------------------------------------------- 
     |                   =====================                   |
     |                        A N C O P T                        |
     |                   =====================                   |
     |               Approximate Normal Coordinate               |
     |                Rational Function Optimizer                |
      ----------------------------------------------------------- 

          ...................................................
          :                      SETUP                      :
          :.................................................:
          :   optimization level            normal          :
          :   max. optcycles                   200          :
          :   ANC micro-cycles                  20          :
          :   degrees of freedom                48          :
          :.................................................:
          :   RF solver                   davidson          :
          :   write xtbopt.log                true          :
          :   linear?                        false          :
          :   energy convergence         0.5000000E-05 Eh   :
          :   grad. convergence          0.1000000E-02 Eh/α :
          :   maximium RF displ.         1.0000000          :
          :   Hlow (freq-cutoff)         0.1000000E-01      :
          :   Hmax (freq-cutoff)         5.0000000          :
          :   S6 in model hess.         20.0000000          :
          ...................................................

generating ANC from model Hessian ...
Using Lindh-Hessian (1995)
 Shifting diagonal of input Hessian by    8.9243297566746049E-003
 Lowest  eigenvalues of input Hessian
    0.000000    0.000000    0.000000    0.000000    0.000000    0.000000
    0.010000    0.010420    0.011833    0.012749    0.013222    0.016028
    0.018768    0.022442    0.024735    0.027670    0.031409    0.046034
 Highest eigenvalues
    1.180991    1.191299    1.223869    1.295176    1.458871    1.548598


........................................................................
.............................. CYCLE    1 ..............................
........................................................................
   1    -25.9264354 -0.259264E+02  0.648E-05    2.94       0.0  T
   2    -25.9264354 -0.414602E-11  0.510E-05    2.94     462.1  T
   3    -25.9264354 -0.505196E-11  0.233E-05    2.94    1013.3  T
     SCC iter.                  ...        0 min,  0.005 sec
     gradient                   ...        0 min,  0.002 sec
 * total energy  :   -25.6936112 Eh     change       -0.4746070E-10 Eh
   gradient norm :     0.0307032 Eh/α   predicted     0.0000000E+00 (-100.00%)
   displ. norm   :     0.5452020 α      lambda       -0.1167412E-01
   maximum displ.:     0.4554149 α      in ANC's #7, #10, #8, ...

........................................................................
.............................. CYCLE    2 ..............................
........................................................................
   1    -25.9252754 -0.259253E+02  0.527E-01    3.23       0.0  T
   2    -25.9257871 -0.511679E-03  0.311E-01    3.32       1.0  T
   3    -25.9258286 -0.415593E-04  0.860E-02    3.44       1.0  T
   4    -25.9258367 -0.808919E-05  0.330E-02    3.47       1.0  T
   5    -25.9258397 -0.299227E-05  0.228E-02    3.47       1.0  T
   6    -25.9258420 -0.235440E-05  0.139E-02    3.47       1.7  T
   7    -25.9258433 -0.129383E-05  0.376E-03    3.48       6.3  T
   8    -25.9258434 -0.681051E-07  0.177E-03    3.48      13.3  T
   9    -25.9258434 -0.774815E-08  0.557E-04    3.48      42.3  T
  10    -25.9258434 -0.544762E-09  0.382E-04    3.48      61.7  T
     SCC iter.                  ...        0 min,  0.014 sec
     gradient                   ...        0 min,  0.002 sec
 * total energy  :   -25.6925853 Eh     change        0.1025915E-02 Eh
   gradient norm :     0.0510364 Eh/α   predicted    -0.7572103E-02 (-838.08%)
   displ. norm   :     0.3421218 α      lambda       -0.1306248E-01
   maximum displ.:     0.2930516 α      in ANC's #7, #5, #2, ...

........................................................................
.............................. CYCLE    3 ..............................
........................................................................
   1    -25.9309662 -0.259310E+02  0.355E-01    3.27       0.0  T
   2    -25.9312034 -0.237193E-03  0.206E-01    3.21       1.0  T
   3    -25.9312261 -0.226691E-04  0.670E-02    3.14       1.0  T
   4    -25.9312321 -0.605156E-05  0.299E-02    3.13       1.0  T
   5    -25.9312345 -0.241816E-05  0.209E-02    3.13       1.1  T
   6    -25.9312367 -0.217149E-05  0.111E-02    3.13       2.1  T
   7    -25.9312374 -0.711868E-06  0.312E-03    3.13       7.6  T
   8    -25.9312375 -0.500163E-07  0.983E-04    3.13      24.0  T
   9    -25.9312375 -0.241951E-08  0.220E-04    3.13     107.3  T
     SCC iter.                  ...        0 min,  0.013 sec
     gradient                   ...        0 min,  0.002 sec
 * total energy  :   -25.6979798 Eh     change       -0.5394482E-02 Eh
   gradient norm :     0.0112255 Eh/α   predicted    -0.7295700E-02 (  35.24%)
   displ. norm   :     0.1876538 α      lambda       -0.1008011E-02
   maximum displ.:     0.1040567 α      in ANC's #2, #10, #5, ...

........................................................................
.............................. CYCLE    4 ..............................
........................................................................
   1    -25.9314538 -0.259315E+02  0.747E-02    3.13       0.0  T
   2    -25.9314703 -0.165259E-04  0.424E-02    3.15       1.0  T
   3    -25.9314713 -0.102781E-05  0.149E-02    3.17       1.6  T
   4    -25.9314715 -0.133151E-06  0.390E-03    3.18       6.0  T
   5    -25.9314715 -0.394574E-07  0.246E-03    3.18       9.6  T
   6    -25.9314715 -0.179621E-07  0.150E-03    3.18      15.7  T
   7    -25.9314715 -0.664755E-08  0.104E-03    3.18      22.7  T
   8    -25.9314715 -0.590464E-08  0.279E-04    3.18      84.3  T
   9    -25.9314715 -0.266073E-09  0.124E-04    3.18     190.1  T
     SCC iter.                  ...        0 min,  0.013 sec
     gradient                   ...        0 min,  0.002 sec
 * total energy  :   -25.6991456 Eh     change       -0.1165854E-02 Eh
   gradient norm :     0.0148734 Eh/α   predicted    -0.5217558E-03 ( -55.25%)
   displ. norm   :     0.2941695 α      lambda       -0.1965101E-02
   maximum displ.:     0.1731217 α      in ANC's #2, #10, #5, ...

........................................................................
.............................. CYCLE    5 ..............................
........................................................................
   1    -25.9325046 -0.259325E+02  0.114E-01    3.16       0.0  T
   2    -25.9325459 -0.413126E-04  0.656E-02    3.19       1.0  T
   3    -25.9325491 -0.325306E-05  0.244E-02    3.22       1.0  T
   4    -25.9325497 -0.569504E-06  0.888E-03    3.23       2.7  T
   5    -25.9325499 -0.210484E-06  0.640E-03    3.23       3.7  T
   6    -25.9325501 -0.164201E-06  0.365E-03    3.23       6.5  T
   7    -25.9325501 -0.567426E-07  0.204E-03    3.23      11.6  T
   8    -25.9325502 -0.247779E-07  0.416E-04    3.23      56.7  T
   9    -25.9325502 -0.563077E-09  0.214E-04    3.23     110.3  T
     SCC iter.                  ...        0 min,  0.013 sec
     gradient                   ...        0 min,  0.002 sec
 * total energy  :   -25.7015914 Eh     change       -0.2445751E-02 Eh
   gradient norm :     0.0235109 Eh/α   predicted    -0.1067575E-02 ( -56.35%)
   displ. norm   :     0.3861352 α      lambda       -0.3863824E-02
   maximum displ.:     0.2215704 α      in ANC's #2, #10, #5, ...

........................................................................
.............................. CYCLE    6 ..............................
........................................................................
   1    -25.9340934 -0.259341E+02  0.188E-01    3.22       0.0  T
   2    -25.9342105 -0.117108E-03  0.109E-01    3.27       1.0  T
   3    -25.9342218 -0.113409E-04  0.433E-02    3.32       1.0  T
   4    -25.9342249 -0.307144E-05  0.200E-02    3.35       1.2  T
   5    -25.9342260 -0.112703E-05  0.149E-02    3.35       1.6  T
   6    -25.9342273 -0.127268E-05  0.717E-03    3.35       3.3  T
   7    -25.9342276 -0.252844E-06  0.345E-03    3.35       6.8  T
   8    -25.9342276 -0.763673E-07  0.765E-04    3.35      30.8  T
   9    -25.9342276 -0.206456E-08  0.425E-04    3.35      55.5  T
     SCC iter.                  ...        0 min,  0.012 sec
     gradient                   ...        0 min,  0.001 sec
 * total energy  :   -25.7058223 Eh     change       -0.4230899E-02 Eh
   gradient norm :     0.0327654 Eh/α   predicted    -0.2219956E-02 ( -47.53%)
   displ. norm   :     0.3948143 α      lambda       -0.4820269E-02
   maximum displ.:     0.2226757 α      in ANC's #2, #10, #5, ...

........................................................................
.............................. CYCLE    7 ..............................
........................................................................
   1    -25.9357968 -0.259358E+02  0.228E-01    3.34       0.0  T
   2    -25.9359742 -0.177453E-03  0.133E-01    3.41       1.0  T
   3    -25.9359954 -0.211151E-04  0.577E-02    3.47       1.0  T
   4    -25.9360029 -0.756183E-05  0.314E-02    3.51       1.0  T
   5    -25.9360065 -0.356319E-05  0.218E-02    3.51       1.1  T
   6    -25.9360097 -0.323410E-05  0.911E-03    3.51       2.6  T
   7    -25.9360101 -0.400711E-06  0.407E-03    3.51       5.8  T
   8    -25.9360102 -0.109307E-06  0.119E-03    3.51      19.9  T
   9    -25.9360102 -0.556703E-08  0.709E-04    3.51      33.2  T
  10    -25.9360102 -0.224609E-08  0.444E-04    3.51      53.1  T
     SCC iter.                  ...        0 min,  0.013 sec
     gradient                   ...        0 min,  0.001 sec
 * total energy  :   -25.7103688 Eh     change       -0.4546542E-02 Eh
   gradient norm :     0.0387141 Eh/α   predicted    -0.2785814E-02 ( -38.73%)
   displ. norm   :     0.7398282 α      lambda       -0.1090736E-01
   maximum displ.:     0.4746849 α      in ANC's #10, #2, #5, ...

........................................................................
.............................. CYCLE    8 ..............................
........................................................................
   1    -25.9409391 -0.259409E+02  0.571E-01    3.56       0.0  T
   2    -25.9420510 -0.111189E-02  0.329E-01    3.77       1.0  T
   3    -25.9422036 -0.152625E-03  0.146E-01    3.97       1.0  T
   4    -25.9422604 -0.567312E-04  0.859E-02    4.06       1.0  T
   5    -25.9422914 -0.310397E-04  0.582E-02    4.07       1.0  T
   6    -25.9423190 -0.275808E-04  0.226E-02    4.07       1.0  T
   7    -25.9423222 -0.319062E-05  0.799E-03    4.07       2.9  T
   8    -25.9423226 -0.424072E-06  0.450E-03    4.07       5.2  T
   9    -25.9423227 -0.904208E-07  0.286E-03    4.07       8.2  T
  10    -25.9423228 -0.552179E-07  0.122E-03    4.07      19.3  T
  11    -25.9423228 -0.793218E-08  0.247E-04    4.07      95.6  T
  12    -25.9423228 -0.125112E-09  0.137E-04    4.07     172.5  T
     SCC iter.                  ...        0 min,  0.016 sec
     gradient                   ...        0 min,  0.001 sec
 * total energy  :   -25.7182121 Eh     change       -0.7843271E-02 Eh
   gradient norm :     0.0357198 Eh/α   predicted    -0.8438732E-02 (   7.59%)
   displ. norm   :     0.3629667 α      lambda       -0.4256153E-02
   maximum displ.:     0.2283370 α      in ANC's #10, #2, #5, ...

........................................................................
.............................. CYCLE    9 ..............................
........................................................................
   1    -25.9487393 -0.259487E+02  0.330E-01    4.13       0.0  T
   2    -25.9491402 -0.400960E-03  0.189E-01    4.27       1.0  T
   3    -25.9491911 -0.508790E-04  0.871E-02    4.41       1.0  T
   4    -25.9492117 -0.205549E-04  0.494E-02    4.47       1.0  T
   5    -25.9492219 -0.102277E-04  0.356E-02    4.48       1.0  T
   6    -25.9492334 -0.115263E-04  0.143E-02    4.47       1.6  T
   7    -25.9492352 -0.181535E-05  0.385E-03    4.47       6.1  T
   8    -25.9492353 -0.591257E-07  0.291E-03    4.47       8.1  T
   9    -25.9492353 -0.445462E-07  0.153E-03    4.47      15.4  T
  10    -25.9492353 -0.126269E-07  0.807E-04    4.47      29.2  T
  11    -25.9492354 -0.340679E-08  0.214E-04    4.47     110.1  T
     SCC iter.                  ...        0 min,  0.015 sec
     gradient                   ...        0 min,  0.001 sec
 * total energy  :   -25.7209459 Eh     change       -0.2733827E-02 Eh
   gradient norm :     0.0223313 Eh/α   predicted    -0.2408440E-02 ( -11.90%)
   displ. norm   :     0.3156037 α      lambda       -0.2069263E-02
   maximum displ.:     0.1675408 α      in ANC's #2, #10, #5, ...

........................................................................
.............................. CYCLE   10 ..............................
........................................................................
   1    -25.9478182 -0.259478E+02  0.187E-01    4.46       0.0  T
   2    -25.9478749 -0.566713E-04  0.109E-01    4.51       1.0  T
   3    -25.9478828 -0.787120E-05  0.301E-02    4.56       1.0  T
   4    -25.9478839 -0.113504E-05  0.137E-02    4.57       1.7  T
   5    -25.9478844 -0.476541E-06  0.897E-03    4.57       2.6  T
   6    -25.9478847 -0.325079E-06  0.570E-03    4.57       4.1  T
   7    -25.9478849 -0.171320E-06  0.151E-03    4.57      15.7  T
   8    -25.9478849 -0.142674E-07  0.358E-04    4.57      65.8  T
   9    -25.9478849 -0.140915E-09  0.151E-04    4.57     156.1  T
     SCC iter.                  ...        0 min,  0.012 sec
     gradient                   ...        0 min,  0.001 sec
 * total energy  :   -25.7221310 Eh     change       -0.1185048E-02 Eh
   gradient norm :     0.0207521 Eh/α   predicted    -0.1137686E-02 (  -4.00%)
   displ. norm   :     0.2580857 α      lambda       -0.2151503E-02
   maximum displ.:     0.1368092 α      in ANC's #4, #1, #7, ...

........................................................................
.............................. CYCLE   11 ..............................
........................................................................
   1    -25.9515328 -0.259515E+02  0.194E-01    4.63       0.0  T
   2    -25.9516318 -0.989576E-04  0.112E-01    4.71       1.0  T
   3    -25.9516482 -0.164038E-04  0.490E-02    4.80       1.0  T
   4    -25.9516554 -0.723425E-05  0.293E-02    4.83       1.0  T
   5    -25.9516600 -0.459421E-05  0.193E-02    4.83       1.2  T
   6    -25.9516635 -0.355244E-05  0.816E-03    4.82       2.9  T
   7    -25.9516641 -0.548122E-06  0.354E-03    4.82       6.7  T
   8    -25.9516642 -0.725744E-07  0.225E-03    4.82      10.5  T
   9    -25.9516642 -0.265827E-07  0.131E-03    4.82      17.9  T
  10    -25.9516642 -0.113620E-07  0.642E-04    4.82      36.7  T
  11    -25.9516642 -0.214752E-08  0.122E-04    4.82     193.5  T
     SCC iter.                  ...        0 min,  0.015 sec
     gradient                   ...        0 min,  0.001 sec
 * total energy  :   -25.7233230 Eh     change       -0.1192006E-02 Eh
   gradient norm :     0.0145963 Eh/α   predicted    -0.1147403E-02 (  -3.74%)
   displ. norm   :     0.2475926 α      lambda       -0.1800834E-02
   maximum displ.:     0.1403208 α      in ANC's #10, #4, #2, ...

........................................................................
.............................. CYCLE   12 ..............................
........................................................................
   1    -25.9572434 -0.259572E+02  0.183E-01    4.80       0.0  T
   2    -25.9572614 -0.180222E-04  0.111E-01    4.78       1.0  T
   3    -25.9572770 -0.155966E-04  0.359E-02    4.75       1.0  T
   4    -25.9572818 -0.473211E-05  0.269E-02    4.75       1.0  T
   5    -25.9572868 -0.498127E-05  0.162E-02    4.75       1.5  T
   6    -25.9572890 -0.221334E-05  0.495E-03    4.75       4.8  T
   7    -25.9572891 -0.179607E-06  0.302E-03    4.75       7.8  T
   8    -25.9572892 -0.465862E-07  0.210E-03    4.75      11.2  T
   9    -25.9572892 -0.287489E-07  0.116E-03    4.75      20.3  T
  10    -25.9572892 -0.855249E-08  0.587E-04    4.75      40.1  T
  11    -25.9572892 -0.141296E-08  0.951E-05    4.75     247.8  T
     SCC iter.                  ...        0 min,  0.013 sec
     gradient                   ...        0 min,  0.001 sec
 * total energy  :   -25.7234982 Eh     change       -0.1752009E-03 Eh
   gradient norm :     0.0322878 Eh/α   predicted    -0.9556119E-03 ( 445.44%)
   displ. norm   :     0.1720302 α      lambda       -0.1718953E-02
   maximum displ.:     0.1324232 α      in ANC's #4, #1, #10, ...

........................................................................
.............................. CYCLE   13 ..............................
........................................................................
   1    -25.9512435 -0.259512E+02  0.106E-01    4.75       0.0  T
   2    -25.9512463 -0.275096E-05  0.616E-02    4.76       1.0  T
   3    -25.9512482 -0.192414E-05  0.135E-02    4.78       1.8  T
   4    -25.9512486 -0.419296E-06  0.895E-03    4.78       2.6  T
   5    -25.9512490 -0.340399E-06  0.584E-03    4.78       4.0  T
   6    -25.9512492 -0.209850E-06  0.248E-03    4.78       9.5  T
   7    -25.9512492 -0.471371E-07  0.104E-03    4.78      22.7  T
   8    -25.9512492 -0.447253E-08  0.747E-04    4.78      31.6  T
   9    -25.9512492 -0.378858E-08  0.463E-04    4.78      50.9  T
     SCC iter.                  ...        0 min,  0.010 sec
     gradient                   ...        0 min,  0.001 sec
 * total energy  :   -25.7242847 Eh     change       -0.7865062E-03 Eh
   gradient norm :     0.0085008 Eh/α   predicted    -0.8849122E-03 (  12.51%)
   displ. norm   :     0.0553807 α      lambda       -0.2189380E-03
   maximum displ.:     0.0289300 α      in ANC's #7, #1, #4, ...

........................................................................
.............................. CYCLE   14 ..............................
........................................................................
   1    -25.9530586 -0.259531E+02  0.427E-02    4.79       0.0  T
   2    -25.9530606 -0.197268E-05  0.247E-02    4.80       1.0  T
   3    -25.9530613 -0.720713E-06  0.863E-03    4.81       2.7  T
   4    -25.9530616 -0.257697E-06  0.594E-03    4.81       4.0  T
   5    -25.9530618 -0.204317E-06  0.411E-03    4.81       5.7  T
   6    -25.9530619 -0.147890E-06  0.222E-03    4.81      10.6  T
   7    -25.9530620 -0.437720E-07  0.657E-04    4.81      35.9  T
   8    -25.9530620 -0.263135E-08  0.385E-04    4.81      61.2  T
     SCC iter.                  ...        0 min,  0.009 sec
     gradient                   ...        0 min,  0.001 sec
 * total energy  :   -25.7244201 Eh     change       -0.1354347E-03 Eh
   gradient norm :     0.0038808 Eh/α   predicted    -0.1098062E-03 ( -18.92%)
   displ. norm   :     0.0908694 α      lambda       -0.1271037E-03
   maximum displ.:     0.0662263 α      in ANC's #4, #10, #2, ...

........................................................................
.............................. CYCLE   15 ..............................
........................................................................
   1    -25.9538971 -0.259539E+02  0.498E-02    4.82       0.0  T
   2    -25.9538981 -0.980086E-06  0.264E-02    4.82       1.0  T
   3    -25.9538983 -0.247082E-06  0.584E-03    4.83       4.0  T
   4    -25.9538984 -0.607935E-07  0.340E-03    4.83       6.9  T
   5    -25.9538984 -0.375177E-07  0.214E-03    4.83      11.0  T
   6    -25.9538984 -0.178006E-07  0.134E-03    4.83      17.6  T
   7    -25.9538984 -0.952351E-08  0.313E-04    4.83      75.3  T
   8    -25.9538984 -0.451653E-09  0.210E-04    4.83     112.2  T
     SCC iter.                  ...        0 min,  0.009 sec
     gradient                   ...        0 min,  0.001 sec
 * total energy  :   -25.7245178 Eh     change       -0.9769033E-04 Eh
   gradient norm :     0.0036101 Eh/α   predicted    -0.6407616E-04 ( -34.41%)
   displ. norm   :     0.1800321 α      lambda       -0.1783714E-03
   maximum displ.:     0.1119094 α      in ANC's #4, #10, #2, ...

........................................................................
.............................. CYCLE   16 ..............................
........................................................................
   1    -25.9543903 -0.259544E+02  0.786E-02    4.83       0.0  T
   2    -25.9543918 -0.155900E-05  0.417E-02    4.83       1.0  T
   3    -25.9543923 -0.439050E-06  0.790E-03    4.84       3.0  T
   4    -25.9543924 -0.780799E-07  0.450E-03    4.84       5.2  T
   5    -25.9543924 -0.501112E-07  0.290E-03    4.84       8.1  T
   6    -25.9543924 -0.255518E-07  0.186E-03    4.84      12.7  T
   7    -25.9543924 -0.134595E-07  0.601E-04    4.84      39.2  T
   8    -25.9543924 -0.204658E-08  0.200E-04    4.84     118.1  T
     SCC iter.                  ...        0 min,  0.009 sec
     gradient                   ...        0 min,  0.001 sec
 * total energy  :   -25.7246510 Eh     change       -0.1332088E-03 Eh
   gradient norm :     0.0049851 Eh/α   predicted    -0.9207786E-04 ( -30.88%)
   displ. norm   :     0.2648107 α      lambda       -0.2113158E-03
   maximum displ.:     0.1352327 α      in ANC's #4, #2, #10, ...

........................................................................
.............................. CYCLE   17 ..............................
........................................................................
   1    -25.9542363 -0.259542E+02  0.985E-02    4.84       0.0  T
   2    -25.9542383 -0.194312E-05  0.531E-02    4.84       1.0  T
   3    -25.9542389 -0.644659E-06  0.937E-03    4.85       2.5  T
   4    -25.9542390 -0.973733E-07  0.517E-03    4.85       4.6  T
   5    -25.9542391 -0.681611E-07  0.331E-03    4.85       7.1  T
   6    -25.9542391 -0.318806E-07  0.204E-03    4.85      11.6  T
   7    -25.9542391 -0.161507E-07  0.673E-04    4.85      35.0  T
   8    -25.9542391 -0.239901E-08  0.214E-04    4.85     110.2  T
     SCC iter.                  ...        0 min,  0.009 sec
     gradient                   ...        0 min,  0.001 sec
 * total energy  :   -25.7248140 Eh     change       -0.1629688E-03 Eh
   gradient norm :     0.0058729 Eh/α   predicted    -0.1130667E-03 ( -30.62%)
   displ. norm   :     0.3669210 α      lambda       -0.2853467E-03
   maximum displ.:     0.1941085 α      in ANC's #2, #10, #7, ...

........................................................................
.............................. CYCLE   18 ..............................
........................................................................
   1    -25.9536984 -0.259537E+02  0.128E-01    4.85       0.0  T
   2    -25.9537010 -0.263316E-05  0.716E-02    4.85       1.0  T
   3    -25.9537025 -0.144788E-05  0.132E-02    4.86       1.8  T
   4    -25.9537028 -0.293257E-06  0.806E-03    4.86       2.9  T
   5    -25.9537030 -0.208575E-06  0.549E-03    4.86       4.3  T
   6    -25.9537031 -0.131887E-06  0.240E-03    4.86       9.8  T
   7    -25.9537031 -0.325934E-07  0.540E-04    4.86      43.6  T
   8    -25.9537031 -0.745732E-09  0.307E-04    4.86      76.8  T
     SCC iter.                  ...        0 min,  0.009 sec
     gradient                   ...        0 min,  0.001 sec
 * total energy  :   -25.7250250 Eh     change       -0.2110690E-03 Eh
   gradient norm :     0.0064610 Eh/α   predicted    -0.1618885E-03 ( -23.30%)
   displ. norm   :     0.3250139 α      lambda       -0.2832678E-03
   maximum displ.:     0.1862033 α      in ANC's #2, #1, #7, ...

........................................................................
.............................. CYCLE   19 ..............................
........................................................................
   1    -25.9538994 -0.259539E+02  0.123E-01    4.86       0.0  T
   2    -25.9539022 -0.285604E-05  0.717E-02    4.86       1.0  T
   3    -25.9539044 -0.213974E-05  0.148E-02    4.87       1.6  T
   4    -25.9539049 -0.510386E-06  0.102E-02    4.87       2.3  T
   5    -25.9539053 -0.416490E-06  0.644E-03    4.87       3.7  T
   6    -25.9539055 -0.205063E-06  0.237E-03    4.87       9.9  T
   7    -25.9539055 -0.333088E-07  0.521E-04    4.87      45.2  T
   8    -25.9539055 -0.673726E-09  0.306E-04    4.87      76.9  T
     SCC iter.                  ...        0 min,  0.009 sec
     gradient                   ...        0 min,  0.001 sec
 * total energy  :   -25.7252219 Eh     change       -0.1968293E-03 Eh
   gradient norm :     0.0057869 Eh/α   predicted    -0.1565971E-03 ( -20.44%)
   displ. norm   :     0.1960905 α      lambda       -0.1923885E-03
   maximum displ.:     0.1149953 α      in ANC's #1, #2, #7, ...

........................................................................
.............................. CYCLE   20 ..............................
........................................................................
   1    -25.9550057 -0.259550E+02  0.875E-02    4.87       0.0  T
   2    -25.9550072 -0.152954E-05  0.509E-02    4.87       1.0  T
   3    -25.9550084 -0.115033E-05  0.111E-02    4.88       2.1  T
   4    -25.9550086 -0.280346E-06  0.780E-03    4.88       3.0  T
   5    -25.9550089 -0.257697E-06  0.468E-03    4.88       5.0  T
   6    -25.9550090 -0.114060E-06  0.114E-03    4.88      20.6  T
   7    -25.9550090 -0.778605E-08  0.290E-04    4.88      81.4  T
   8    -25.9550090 -0.185405E-09  0.150E-04    4.88     157.5  T
     SCC iter.                  ...        0 min,  0.009 sec
     gradient                   ...        0 min,  0.001 sec
 * total energy  :   -25.7253529 Eh     change       -0.1310677E-03 Eh
   gradient norm :     0.0051713 Eh/α   predicted    -0.9989244E-04 ( -23.79%)
   displ. norm   :     0.1744484 α      lambda       -0.1263957E-03
   maximum displ.:     0.0946892 α      in ANC's #1, #2, #7, ...
 * RMSD in coord.:     0.7905164 α      energy gain  -0.3174174E-01 Eh

generating ANC from model Hessian ...
Using Lindh-Hessian (1995)
 Shifting diagonal of input Hessian by    9.9434564974413969E-003
 Lowest  eigenvalues of input Hessian
    0.000000    0.000000    0.000000    0.000000    0.000000    0.000000
    0.010000    0.010744    0.012448    0.013004    0.014312    0.015807
    0.017498    0.022435    0.023166    0.026044    0.031079    0.038711
 Highest eigenvalues
    1.170939    1.194630    1.204323    1.251887    1.374953    1.458678


........................................................................
.............................. CYCLE   21 ..............................
........................................................................
   1    -25.9548135 -0.259548E+02  0.705E-02    4.88       0.0  T
   2    -25.9548144 -0.827131E-06  0.400E-02    4.88       1.0  T
   3    -25.9548150 -0.617434E-06  0.837E-03    4.89       2.8  T
   4    -25.9548152 -0.195679E-06  0.483E-03    4.89       4.9  T
   5    -25.9548153 -0.867193E-07  0.348E-03    4.89       6.8  T
   6    -25.9548154 -0.780837E-07  0.994E-04    4.89      23.7  T
   7    -25.9548154 -0.557537E-08  0.521E-04    4.89      45.2  T
     SCC iter.                  ...        0 min,  0.007 sec
     gradient                   ...        0 min,  0.001 sec
 * total energy  :   -25.7254456 Eh     change       -0.9269540E-04 Eh
   gradient norm :     0.0036790 Eh/α   predicted     0.0000000E+00 (-100.00%)
   displ. norm   :     0.0889531 α      lambda       -0.1669763E-03
   maximum displ.:     0.0584915 α      in ANC's #2, #12, #4, ...

........................................................................
.............................. CYCLE   22 ..............................
........................................................................
   1    -25.9547366 -0.259547E+02  0.333E-02    4.89       0.0  T
   2    -25.9547369 -0.356201E-06  0.202E-02    4.89       1.2  T
   3    -25.9547373 -0.345896E-06  0.531E-03    4.89       4.4  T
   4    -25.9547373 -0.900254E-07  0.377E-03    4.89       6.3  T
   5    -25.9547374 -0.787785E-07  0.191E-03    4.89      12.3  T
   6    -25.9547374 -0.191715E-07  0.693E-04    4.89      34.0  T
   7    -25.9547374 -0.204135E-08  0.315E-04    4.89      74.9  T
     SCC iter.                  ...        0 min,  0.008 sec
     gradient                   ...        0 min,  0.001 sec
 * total energy  :   -25.7255679 Eh     change       -0.1222734E-03 Eh
   gradient norm :     0.0013990 Eh/α   predicted    -0.8414966E-04 ( -31.18%)
   displ. norm   :     0.2227518 α      lambda       -0.1422498E-03
   maximum displ.:     0.1667523 α      in ANC's #2, #4, #12, ...

........................................................................
.............................. CYCLE   23 ..............................
........................................................................
   1    -25.9543971 -0.259544E+02  0.708E-02    4.88       0.0  T
   2    -25.9543980 -0.817442E-06  0.404E-02    4.88       1.0  T
   3    -25.9543984 -0.399129E-06  0.573E-03    4.88       4.1  T
   4    -25.9543984 -0.696853E-07  0.366E-03    4.88       6.4  T
   5    -25.9543985 -0.497666E-07  0.259E-03    4.88       9.1  T
   6    -25.9543985 -0.437673E-07  0.118E-03    4.88      20.1  T
   7    -25.9543985 -0.108107E-07  0.496E-04    4.88      47.5  T
   8    -25.9543985 -0.113195E-08  0.361E-04    4.88      65.2  T
     SCC iter.                  ...        0 min,  0.009 sec
     gradient                   ...        0 min,  0.001 sec
 * total energy  :   -25.7257075 Eh     change       -0.1395604E-03 Eh
   gradient norm :     0.0025210 Eh/α   predicted    -0.7269397E-04 ( -47.91%)
   displ. norm   :     0.1386165 α      lambda       -0.1055647E-03
   maximum displ.:     0.0999258 α      in ANC's #2, #4, #5, ...

........................................................................
.............................. CYCLE   24 ..............................
........................................................................
   1    -25.9543625 -0.259544E+02  0.616E-02    4.87       0.0  T
   2    -25.9543630 -0.538168E-06  0.359E-02    4.87       1.0  T
   3    -25.9543635 -0.486748E-06  0.690E-03    4.87       3.4  T
   4    -25.9543636 -0.132067E-06  0.461E-03    4.87       5.1  T
   5    -25.9543637 -0.875079E-07  0.294E-03    4.87       8.0  T
   6    -25.9543638 -0.461510E-07  0.664E-04    4.87      35.5  T
   7    -25.9543638 -0.188462E-08  0.177E-04    4.87     132.9  T
     SCC iter.                  ...        0 min,  0.008 sec
     gradient                   ...        0 min,  0.001 sec
 * total energy  :   -25.7258000 Eh     change       -0.9254742E-04 Eh
   gradient norm :     0.0025319 Eh/α   predicted    -0.5379478E-04 ( -41.87%)
   displ. norm   :     0.2435094 α      lambda       -0.1799694E-03
   maximum displ.:     0.1694561 α      in ANC's #2, #4, #5, ...

........................................................................
.............................. CYCLE   25 ..............................
........................................................................
   1    -25.9542012 -0.259542E+02  0.112E-01    4.86       0.0  T
   2    -25.9542033 -0.205913E-05  0.655E-02    4.86       1.0  T
   3    -25.9542050 -0.176152E-05  0.133E-02    4.85       1.8  T
   4    -25.9542056 -0.543712E-06  0.842E-03    4.85       2.8  T
   5    -25.9542059 -0.345263E-06  0.452E-03    4.85       5.2  T
   6    -25.9542060 -0.104585E-06  0.107E-03    4.85      22.0  T
   7    -25.9542060 -0.678106E-08  0.514E-04    4.85      45.9  T
   8    -25.9542060 -0.800174E-09  0.406E-04    4.85      58.1  T
     SCC iter.                  ...        0 min,  0.009 sec
     gradient                   ...        0 min,  0.001 sec
 * total energy  :   -25.7259423 Eh     change       -0.1422894E-03 Eh
   gradient norm :     0.0021208 Eh/α   predicted    -0.9532070E-04 ( -33.01%)
   displ. norm   :     0.2746360 α      lambda       -0.1443800E-03
   maximum displ.:     0.1898006 α      in ANC's #2, #4, #5, ...

........................................................................
.............................. CYCLE   26 ..............................
........................................................................
   1    -25.9537794 -0.259538E+02  0.112E-01    4.84       0.0  T
   2    -25.9537816 -0.214566E-05  0.643E-02    4.84       1.0  T
   3    -25.9537830 -0.139453E-05  0.126E-02    4.83       1.9  T
   4    -25.9537834 -0.405831E-06  0.773E-03    4.83       3.0  T
   5    -25.9537836 -0.251033E-06  0.476E-03    4.83       5.0  T
   6    -25.9537837 -0.115010E-06  0.162E-03    4.83      14.6  T
   7    -25.9537838 -0.158156E-07  0.544E-04    4.83      43.3  T
   8    -25.9537838 -0.108599E-08  0.405E-04    4.83      58.2  T
     SCC iter.                  ...        0 min,  0.009 sec
     gradient                   ...        0 min,  0.001 sec
 * total energy  :   -25.7260502 Eh     change       -0.1079127E-03 Eh
   gradient norm :     0.0035142 Eh/α   predicted    -0.7763641E-04 ( -28.06%)
   displ. norm   :     0.2613158 α      lambda       -0.1245806E-03
   maximum displ.:     0.1813290 α      in ANC's #2, #4, #5, ...

........................................................................
.............................. CYCLE   27 ..............................
........................................................................
   1    -25.9536879 -0.259537E+02  0.935E-02    4.83       0.0  T
   2    -25.9536893 -0.139483E-05  0.528E-02    4.82       1.0  T
   3    -25.9536900 -0.655745E-06  0.949E-03    4.82       2.5  T
   4    -25.9536902 -0.162528E-06  0.536E-03    4.82       4.4  T
   5    -25.9536902 -0.828148E-07  0.378E-03    4.82       6.2  T
   6    -25.9536903 -0.560663E-07  0.205E-03    4.82      11.5  T
   7    -25.9536903 -0.198964E-07  0.431E-04    4.82      54.7  T
   8    -25.9536903 -0.993449E-09  0.253E-04    4.82      93.3  T
     SCC iter.                  ...        0 min,  0.009 sec
     gradient                   ...        0 min,  0.001 sec
 * total energy  :   -25.7261467 Eh     change       -0.9642995E-04 Eh
   gradient norm :     0.0043127 Eh/α   predicted    -0.6654250E-04 ( -30.99%)
   displ. norm   :     0.2921788 α      lambda       -0.1475343E-03
   maximum displ.:     0.2074727 α      in ANC's #2, #4, #5, ...

........................................................................
.............................. CYCLE   28 ..............................
........................................................................
   1    -25.9542110 -0.259542E+02  0.970E-02    4.82       0.0  T
   2    -25.9542122 -0.121212E-05  0.543E-02    4.82       1.0  T
   3    -25.9542127 -0.522329E-06  0.925E-03    4.82       2.5  T
   4    -25.9542128 -0.100836E-06  0.486E-03    4.82       4.8  T
   5    -25.9542129 -0.602858E-07  0.340E-03    4.82       6.9  T
   6    -25.9542129 -0.384174E-07  0.179E-03    4.82      13.2  T
   7    -25.9542129 -0.151046E-07  0.442E-04    4.82      53.3  T
   8    -25.9542129 -0.101583E-08  0.254E-04    4.82      92.8  T
     SCC iter.                  ...        0 min,  0.009 sec
     gradient                   ...        0 min,  0.001 sec
 * total energy  :   -25.7262517 Eh     change       -0.1050453E-03 Eh
   gradient norm :     0.0043350 Eh/α   predicted    -0.8006415E-04 ( -23.78%)
   displ. norm   :     0.2365093 α      lambda       -0.9515024E-04
   maximum displ.:     0.1806427 α      in ANC's #2, #5, #4, ...

........................................................................
.............................. CYCLE   29 ..............................
........................................................................
   1    -25.9548902 -0.259549E+02  0.800E-02    4.82       0.0  T
   2    -25.9548910 -0.762098E-06  0.445E-02    4.83       1.0  T
   3    -25.9548914 -0.382803E-06  0.781E-03    4.83       3.0  T
   4    -25.9548915 -0.790040E-07  0.405E-03    4.83       5.8  T
   5    -25.9548915 -0.424113E-07  0.294E-03    4.83       8.0  T
   6    -25.9548915 -0.338169E-07  0.115E-03    4.83      20.6  T
   7    -25.9548915 -0.721895E-08  0.307E-04    4.83      76.8  T
   8    -25.9548915 -0.341114E-09  0.220E-04    4.83     107.1  T
     SCC iter.                  ...        0 min,  0.009 sec
     gradient                   ...        0 min,  0.001 sec
 * total energy  :   -25.7263237 Eh     change       -0.7202837E-04 Eh
   gradient norm :     0.0034181 Eh/α   predicted    -0.5023324E-04 ( -30.26%)
   displ. norm   :     0.2301567 α      lambda       -0.8023750E-04
   maximum displ.:     0.1867872 α      in ANC's #2, #5, #4, ...

........................................................................
.............................. CYCLE   30 ..............................
........................................................................
   1    -25.9555328 -0.259555E+02  0.807E-02    4.83       0.0  T
   2    -25.9555337 -0.946618E-06  0.448E-02    4.83       1.0  T
   3    -25.9555342 -0.449928E-06  0.822E-03    4.83       2.9  T
   4    -25.9555343 -0.101736E-06  0.440E-03    4.83       5.4  T
   5    -25.9555343 -0.493313E-07  0.319E-03    4.83       7.4  T
   6    -25.9555344 -0.374892E-07  0.160E-03    4.83      14.7  T
   7    -25.9555344 -0.117879E-07  0.291E-04    4.83      81.0  T
   8    -25.9555344 -0.382350E-09  0.194E-04    4.83     121.7  T
     SCC iter.                  ...        0 min,  0.009 sec
     gradient                   ...        0 min,  0.001 sec
 * total energy  :   -25.7263834 Eh     change       -0.5971410E-04 Eh
   gradient norm :     0.0020519 Eh/α   predicted    -0.4224457E-04 ( -29.26%)
   displ. norm   :     0.1705959 α      lambda       -0.4439730E-04
   maximum displ.:     0.1430284 α      in ANC's #2, #5, #4, ...

........................................................................
.............................. CYCLE   31 ..............................
........................................................................
   1    -25.9557297 -0.259557E+02  0.605E-02    4.83       0.0  T
   2    -25.9557303 -0.572048E-06  0.338E-02    4.83       1.0  T
   3    -25.9557305 -0.295658E-06  0.641E-03    4.84       3.7  T
   4    -25.9557306 -0.753723E-07  0.352E-03    4.84       6.7  T
   5    -25.9557307 -0.351498E-07  0.254E-03    4.84       9.3  T
   6    -25.9557307 -0.263635E-07  0.121E-03    4.84      19.4  T
   7    -25.9557307 -0.683959E-08  0.270E-04    4.84      87.2  T
   8    -25.9557307 -0.399233E-09  0.161E-04    4.84     146.0  T
     SCC iter.                  ...        0 min,  0.009 sec
     gradient                   ...        0 min,  0.001 sec
 * total energy  :   -25.7264170 Eh     change       -0.3356839E-04 Eh
   gradient norm :     0.0014719 Eh/α   predicted    -0.2284486E-04 ( -31.95%)
   displ. norm   :     0.1761480 α      lambda       -0.2527579E-04
   maximum displ.:     0.1524395 α      in ANC's #2, #5, #7, ...

........................................................................
.............................. CYCLE   32 ..............................
........................................................................
   1    -25.9561779 -0.259562E+02  0.617E-02    4.84       0.0  T
   2    -25.9561785 -0.593065E-06  0.350E-02    4.84       1.0  T
   3    -25.9561789 -0.367914E-06  0.690E-03    4.84       3.4  T
   4    -25.9561790 -0.957540E-07  0.424E-03    4.84       5.6  T
   5    -25.9561790 -0.554340E-07  0.302E-03    4.84       7.8  T
   6    -25.9561790 -0.413233E-07  0.136E-03    4.84      17.4  T
   7    -25.9561791 -0.868691E-08  0.294E-04    4.84      80.3  T
   8    -25.9561791 -0.490008E-09  0.182E-04    4.84     129.7  T
     SCC iter.                  ...        0 min,  0.009 sec
     gradient                   ...        0 min,  0.001 sec
 * total energy  :   -25.7264414 Eh     change       -0.2437882E-04 Eh
   gradient norm :     0.0020230 Eh/α   predicted    -0.1281230E-04 ( -47.44%)
   displ. norm   :     0.0910212 α      lambda       -0.1521062E-04
   maximum displ.:     0.0780710 α      in ANC's #2, #5, #4, ...

........................................................................
.............................. CYCLE   33 ..............................
........................................................................
   1    -25.9551809 -0.259552E+02  0.340E-02    4.84       0.0  T
   2    -25.9551811 -0.175541E-06  0.194E-02    4.84       1.2  T
   3    -25.9551812 -0.106473E-06  0.395E-03    4.84       6.0  T
   4    -25.9551812 -0.290531E-07  0.273E-03    4.84       8.6  T
   5    -25.9551812 -0.251921E-07  0.170E-03    4.84      13.9  T
   6    -25.9551812 -0.116058E-07  0.966E-04    4.84      24.4  T
   7    -25.9551812 -0.504113E-08  0.179E-04    4.84     131.4  T
     SCC iter.                  ...        0 min,  0.008 sec
     gradient                   ...        0 min,  0.001 sec
 * total energy  :   -25.7264497 Eh     change       -0.8283859E-05 Eh
   gradient norm :     0.0017121 Eh/α   predicted    -0.7666329E-05 (  -7.45%)
   displ. norm   :     0.1706820 α      lambda       -0.2477130E-04
   maximum displ.:     0.1482435 α      in ANC's #2, #7, #5, ...

........................................................................
.............................. CYCLE   34 ..............................
........................................................................
   1    -25.9556566 -0.259557E+02  0.545E-02    4.85       0.0  T
   2    -25.9556570 -0.350997E-06  0.320E-02    4.85       1.0  T
   3    -25.9556573 -0.337266E-06  0.581E-03    4.85       4.1  T
   4    -25.9556574 -0.878105E-07  0.392E-03    4.85       6.0  T
   5    -25.9556574 -0.622092E-07  0.253E-03    4.85       9.3  T
   6    -25.9556575 -0.338210E-07  0.449E-04    4.85      52.5  T
   7    -25.9556575 -0.115277E-08  0.184E-04    4.85     127.8  T
     SCC iter.                  ...        0 min,  0.008 sec
     gradient                   ...        0 min,  0.001 sec
 * total energy  :   -25.7264745 Eh     change       -0.2477898E-04 Eh
   gradient norm :     0.0015782 Eh/α   predicted    -0.1254452E-04 ( -49.37%)
   displ. norm   :     0.1101418 α      lambda       -0.1477545E-04
   maximum displ.:     0.0921063 α      in ANC's #2, #7, #13, ...

........................................................................
.............................. CYCLE   35 ..............................
........................................................................
   1    -25.9560862 -0.259561E+02  0.331E-02    4.85       0.0  T
   2    -25.9560863 -0.110980E-06  0.196E-02    4.85       1.2  T
   3    -25.9560864 -0.101339E-06  0.320E-03    4.85       7.4  T
   4    -25.9560865 -0.197633E-07  0.247E-03    4.85       9.5  T
   5    -25.9560865 -0.269131E-07  0.135E-03    4.85      17.4  T
   6    -25.9560865 -0.916764E-08  0.565E-04    4.85      41.7  T
   7    -25.9560865 -0.124454E-08  0.138E-04    4.85     171.3  T
     SCC iter.                  ...        0 min,  0.008 sec
     gradient                   ...        0 min,  0.001 sec
 * total energy  :   -25.7264890 Eh     change       -0.1453775E-04 Eh
   gradient norm :     0.0014837 Eh/α   predicted    -0.7428519E-05 ( -48.90%)
   displ. norm   :     0.1236257 α      lambda       -0.1212092E-04
   maximum displ.:     0.1050111 α      in ANC's #2, #7, #4, ...

........................................................................
.............................. CYCLE   36 ..............................
........................................................................
   1    -25.9560182 -0.259560E+02  0.388E-02    4.85       0.0  T
   2    -25.9560184 -0.170296E-06  0.227E-02    4.85       1.0  T
   3    -25.9560185 -0.117733E-06  0.398E-03    4.85       5.9  T
   4    -25.9560186 -0.312969E-07  0.292E-03    4.85       8.1  T
   5    -25.9560186 -0.284445E-07  0.185E-03    4.85      12.7  T
   6    -25.9560186 -0.161075E-07  0.803E-04    4.85      29.4  T
   7    -25.9560186 -0.250234E-08  0.147E-04    4.85     160.4  T
     SCC iter.                  ...        0 min,  0.007 sec
     gradient                   ...        0 min,  0.001 sec
 * total energy  :   -25.7264963 Eh     change       -0.7346341E-05 Eh
   gradient norm :     0.0008461 Eh/α   predicted    -0.6102202E-05 ( -16.94%)
   displ. norm   :     0.0215138 α      lambda       -0.4810559E-05
   maximum displ.:     0.0122094 α      in ANC's #4, #5, #14, ...

........................................................................
.............................. CYCLE   37 ..............................
........................................................................
   1    -25.9558938 -0.259559E+02  0.145E-02    4.84       0.0  T
   2    -25.9558939 -0.521831E-07  0.779E-03    4.84       3.0  T
   3    -25.9558939 -0.758439E-08  0.196E-03    4.84      12.0  T
   4    -25.9558939 -0.878637E-08  0.122E-03    4.84      19.4  T
   5    -25.9558939 -0.235910E-08  0.675E-04    4.84      34.9  T
   6    -25.9558939 -0.106991E-08  0.437E-04    4.84      53.9  T
     SCC iter.                  ...        0 min,  0.006 sec
     gradient                   ...        0 min,  0.001 sec
 * total energy  :   -25.7265006 Eh     change       -0.4295255E-05 Eh
   gradient norm :     0.0009818 Eh/α   predicted    -0.2404314E-05 ( -44.02%)
   displ. norm   :     0.0501964 α      lambda       -0.4212682E-05
   maximum displ.:     0.0285155 α      in ANC's #2, #5, #4, ...

   *** GEOMETRY OPTIMIZATION CONVERGED AFTER 37 ITERATIONS ***

------------------------------------------------------------------------
 total energy gain   :        -0.0328894 Eh      -20.6384 kcal/mol
 total RMSD          :         1.0619135 a0        0.5619 Å
 total power (kW/mol):        -2.3338156 (step) -182.0466 (real)
------------------------------------------------------------------------

 ANCopt (total)                0 d,  0 h,  0 min,  0.474 sec
 optimizer setup                ...        0 min,  0.000 sec (  0.030%)
 model hessian                  ...        0 min,  0.009 sec (  1.868%)
 ANC generation                 ...        0 min,  0.002 sec (  0.370%)
 coordinate transformation      ...        0 min,  0.001 sec (  0.139%)
 single point calculation       ...        0 min,  0.451 sec ( 95.054%)
 optimization log               ...        0 min,  0.003 sec (  0.613%)
 hessian update                 ...        0 min,  0.001 sec (  0.176%)
 rational function              ...        0 min,  0.005 sec (  1.076%)

================
 final structure:
================
18
 xtb: 6.5.1 (fef0646)
N            0.98574967717004        0.21452266208770        0.20044294177057
C            2.44233544880334        0.24452004683414        0.16187526809162
C            3.05395414670371        1.49177044112034        0.80912744139445
C            4.57861509194407        1.47837842703313        0.71773969220036
C            5.16858903526796        2.70651096509165        1.38577971525694
Br           7.11810183383085        2.72154084065016        1.23067867240151
Cl          -0.01668419214678       -2.22576794789114       -1.13883548109709
H            0.44294332384504       -1.11365505099740       -0.52090240872458
H            0.59297855363060        1.01407037943498       -0.28585894347334
H            0.64803679022203        0.22349489728301        1.15737644214319
H            2.74579464419728        0.18487245887392       -0.88543701828289
H            2.80398370528449       -0.65154753141442        0.67044953146615
H            2.75131549167731        1.53976200606395        1.85929191276879
H            2.66721556266080        2.38453473022378        0.30894652121747
H            4.88094779072138        1.45077162496630       -0.33173185532280
H            4.96663206182821        0.57790673176838        1.19964412008718
H            4.94854813986800        2.73051258532412        2.45176604826918
H            4.82016289449169        3.62633173354730        0.91881739983307

 Bond Distances (Angstroems)
 ---------------------------
N1-C2=1.4574         N1-H9=1.0149         N1-H10=1.0148        C2-N1=1.4574         C2-C3=1.5325         C2-H11=1.0920        
C2-H12=1.0920        C3-C2=1.5325         C3-C4=1.5275         C3-H13=1.0940        C3-H14=1.0940        C4-C3=1.5275         
C4-C5=1.5175         C4-H15=1.0925        C4-H16=1.0925        C5-C4=1.5175         C5-Br6=1.9557        C5-H17=1.0887        
C5-H18=1.0888        Br6-C5=1.9557        Cl7-H8=1.3527        H8-Cl7=1.3527        H9-N1=1.0149         H10-N1=1.0148        
H11-C2=1.0920        H12-C2=1.0920        H13-C3=1.0940        H14-C3=1.0940        H15-C4=1.0925        H16-C4=1.0925        
H17-C5=1.0887        H18-C5=1.0888        
 C  H  Rav=1.0918 sigma=0.0019  Rmin=1.0887  Rmax=1.0940     8
 C  C  Rav=1.5258 sigma=0.0063  Rmin=1.5175  Rmax=1.5325     3
 N  H  Rav=1.0149 sigma=0.0000  Rmin=1.0148  Rmax=1.0149     2
 N  C  Rav=1.4574 sigma=0.0000  Rmin=1.4574  Rmax=1.4574     1
 Cl H  Rav=1.3527 sigma=0.0000  Rmin=1.3527  Rmax=1.3527     1
 Br C  Rav=1.9557 sigma=0.0000  Rmin=1.9557  Rmax=1.9557     1

 selected bond angles (degree)
 --------------------
H9-N1-C2=110.97                H10-N1-C2=110.94               H10-N1-H9=108.43               C3-C2-N1=113.86                
H11-C2-N1=107.58               H11-C2-C3=109.79               H12-C2-N1=107.57               H12-C2-C3=109.81               
H12-C2-H11=108.05              C4-C3-C2=111.47                H13-C3-C2=109.31               H13-C3-C4=109.51               
H14-C3-C2=109.27               H14-C3-C4=109.43               H14-C3-H13=107.78              C5-C4-C3=110.77                
H15-C4-C3=109.51               H15-C4-C5=109.62               H16-C4-C3=109.59               H16-C4-C5=109.56               
H16-C4-H15=107.73              Br6-C5-C4=111.03               H17-C5-C4=111.73               H17-C5-Br6=106.20              
H18-C5-C4=111.75               H18-C5-Br6=106.17              H18-C5-H17=109.67              

 selected dihedral angles (degree)
 ---------------------------------
C3-C2-N1-H9= 59.84            C3-C2-N1-H10=299.24           H11-C2-N1-H9=297.94           H11-C2-N1-H10=177.33          
H12-C2-N1-H9=181.76           H12-C2-N1-H10= 61.16          C4-C3-C2-N1=180.96            C4-C3-C2-H11=301.62           
C4-C3-C2-H12= 60.29           H13-C3-C2-N1= 59.75           H13-C3-C2-H11=180.42          H13-C3-C2-H12=299.08          
H14-C3-C2-N1=302.03           H14-C3-C2-H11= 62.70          H14-C3-C2-H12=181.36          C5-C4-C3-C2=181.06            
C5-C4-C3-H13=302.15           C5-C4-C3-H14= 60.09           H15-C4-C3-C2= 60.04           H15-C4-C3-H13=181.13          
H15-C4-C3-H14=299.07          H16-C4-C3-C2=302.07           H16-C4-C3-H13= 63.15          H16-C4-C3-H14=181.09          
Br6-C5-C4-C3=181.54           Br6-C5-C4-H15=302.50          Br6-C5-C4-H16= 60.52          H17-C5-C4-C3= 63.18           
H17-C5-C4-H15=184.14          H17-C5-C4-H16=302.16          H18-C5-C4-C3=299.87           H18-C5-C4-H15= 60.83          
H18-C5-C4-H16=178.85          

 CMA Distance (Angstroems)
 ---------------------------
R(CMA):  7.0315
           -------------------------------------------------
          |                Final Singlepoint                |
           -------------------------------------------------

          ...................................................
          :                      SETUP                      :
          :.................................................:
          :  # basis functions                  51          :
          :  # atomic orbitals                  49          :
          :  # shells                           27          :
          :  # electrons                        46          :
          :  max. iterations                   250          :
          :  Hamiltonian                  GFN2-xTB          :
          :  restarted?                      false          :
          :  GBSA solvation                  false          :
          :  PC potential                    false          :
          :  electronic temp.          300.0000000     K    :
          :  accuracy                    1.0000000          :
          :  -> integral cutoff          0.2500000E+02      :
          :  -> integral neglect         0.1000000E-07      :
          :  -> SCF convergence          0.1000000E-05 Eh   :
          :  -> wf. convergence          0.1000000E-03 e    :
          :  Broyden damping             0.4000000          :
          ...................................................

 iter      E             dE          RMSdq      gap      omega  full diag
   1    -25.9558939 -0.259559E+02  0.137E-04    4.84       0.0  T
   2    -25.9558939 -0.335696E-10  0.996E-05    4.84     236.5  T
   3    -25.9558939 -0.136744E-10  0.749E-05    4.84     314.9  T

   *** convergence criteria satisfied after 3 iterations ***

         #    Occupation            Energy/Eh            Energy/eV
      -------------------------------------------------------------
         1        2.0000           -1.0254670             -27.9044
       ...           ...                  ...                  ...
        17        2.0000           -0.4789855             -13.0339
        18        2.0000           -0.4635144             -12.6129
        19        2.0000           -0.4156472             -11.3103
        20        2.0000           -0.4121384             -11.2149
        21        2.0000           -0.4097857             -11.1508
        22        2.0000           -0.4024993             -10.9526
        23        2.0000           -0.4024660             -10.9517 (HOMO)
        24                         -0.2244622              -6.1079 (LUMO)
        25                         -0.0654790              -1.7818
        26                          0.0005402               0.0147
        27                          0.0201243               0.5476
        28                          0.0331376               0.9017
       ...                                ...                  ...
        49                          0.3713570              10.1051
      -------------------------------------------------------------
                  HL-Gap            0.1780038 Eh            4.8437 eV
             Fermi-level           -0.3134641 Eh           -8.5298 eV

 SCC (total)                   0 d,  0 h,  0 min,  0.005 sec
 SCC setup                      ...        0 min,  0.000 sec (  1.325%)
 Dispersion                     ...        0 min,  0.000 sec (  1.930%)
 classical contributions        ...        0 min,  0.000 sec (  0.438%)
 integral evaluation            ...        0 min,  0.001 sec ( 11.069%)
 iterations                     ...        0 min,  0.003 sec ( 60.520%)
 molecular gradient             ...        0 min,  0.001 sec ( 21.577%)
 printout                       ...        0 min,  0.000 sec (  1.464%)

         :::::::::::::::::::::::::::::::::::::::::::::::::::::
         ::                     SUMMARY                     ::
         :::::::::::::::::::::::::::::::::::::::::::::::::::::
         :: total energy             -25.726500631297 Eh    ::
         :: gradient norm              0.000983433731 Eh/a0 ::
         :: HOMO-LUMO gap              4.843730277688 eV    ::
         ::.................................................::
         :: SCC energy               -25.955893893832 Eh    ::
         :: -> isotropic ES            0.032342160478 Eh    ::
         :: -> anisotropic ES         -0.003318105892 Eh    ::
         :: -> anisotropic XC          0.006281509717 Eh    ::
         :: -> dispersion             -0.010943134134 Eh    ::
         :: repulsion energy           0.229457930258 Eh    ::
         :: add. restraining           0.000000000000 Eh    ::
         :: total charge              -0.000000000000 e     ::
         :::::::::::::::::::::::::::::::::::::::::::::::::::::

           -------------------------------------------------
          |                Property Printout                |
           -------------------------------------------------

    * Orbital Energies and Occupations

         #    Occupation            Energy/Eh            Energy/eV
      -------------------------------------------------------------
         1        2.0000           -1.0254670             -27.9044
       ...           ...                  ...                  ...
        11        2.0000           -0.5410625             -14.7231
        12        2.0000           -0.5190362             -14.1237
        13        2.0000           -0.5146151             -14.0034
        14        2.0000           -0.5085802             -13.8392
        15        2.0000           -0.4845550             -13.1854
        16        2.0000           -0.4797005             -13.0533
        17        2.0000           -0.4789855             -13.0339
        18        2.0000           -0.4635144             -12.6129
        19        2.0000           -0.4156472             -11.3103
        20        2.0000           -0.4121384             -11.2149
        21        2.0000           -0.4097857             -11.1508
        22        2.0000           -0.4024993             -10.9526
        23        2.0000           -0.4024660             -10.9517 (HOMO)
        24                         -0.2244622              -6.1079 (LUMO)
        25                         -0.0654790              -1.7818
        26                          0.0005402               0.0147
        27                          0.0201243               0.5476
        28                          0.0331376               0.9017
        29                          0.0407514               1.1089
        30                          0.0505090               1.3744
        31                          0.0572639               1.5582
        32                          0.0573362               1.5602
        33                          0.0633158               1.7229
        34                          0.0633174               1.7230
       ...                                ...                  ...
        49                          0.3713570              10.1051
      -------------------------------------------------------------
                  HL-Gap            0.1780038 Eh            4.8437 eV
             Fermi-level           -0.3134641 Eh           -8.5298 eV

     #   Z          covCN         q      C6AA      α(0)
     1   7 N        2.660    -0.312    28.031     7.863
     2   6 C        3.732     0.000    20.666     6.489
     3   6 C        3.802    -0.068    21.810     6.649
     4   6 C        3.864    -0.058    21.578     6.606
     5   6 C        3.742     0.024    20.237     6.418
     6  35 Br       0.979    -0.190   190.296    22.242
     7  17 Cl       0.840    -0.461   114.282    16.354
     8   1 H        0.870     0.332     0.624     1.237
     9   1 H        0.860     0.166     1.298     1.785
    10   1 H        0.860     0.166     1.300     1.786
    11   1 H        0.924     0.057     2.232     2.336
    12   1 H        0.924     0.057     2.238     2.339
    13   1 H        0.924     0.035     2.517     2.481
    14   1 H        0.924     0.035     2.512     2.478
    15   1 H        0.924     0.052     2.289     2.366
    16   1 H        0.924     0.052     2.298     2.371
    17   1 H        0.926     0.057     2.237     2.339
    18   1 H        0.926     0.057     2.236     2.338

 Mol. C6AA /au·bohr⁶  :       4006.472857
 Mol. C8AA /au·bohr⁸  :     125925.611036
 Mol. α(0) /au        :         96.476866


Wiberg/Mayer (AO) data.
largest (>0.10) Wiberg bond orders for each atom

 ---------------------------------------------------------------------------
     #   Z sym  total        # sym  WBO       # sym  WBO       # sym  WBO
 ---------------------------------------------------------------------------
     1   7 N    3.212 --     2 C    1.014    10 H    0.959     9 H    0.959
                             8 H    0.174
     2   6 C    3.972 --     1 N    1.014     3 C    0.997    12 H    0.973
                            11 H    0.973
     3   6 C    3.997 --     4 C    0.999     2 C    0.997    13 H    0.977
                            14 H    0.977
     4   6 C    3.993 --     5 C    1.018     3 C    0.999    16 H    0.976
                            15 H    0.976
     5   6 C    3.955 --     4 C    1.018    17 H    0.979    18 H    0.978
                             6 Br   0.963
     6  35 Br   1.007 --     5 C    0.963
     7  17 Cl   0.788 --     8 H    0.713
     8   1 H    0.890 --     7 Cl   0.713     1 N    0.174
     9   1 H    0.972 --     1 N    0.959
    10   1 H    0.973 --     1 N    0.959
    11   1 H    0.997 --     2 C    0.973
    12   1 H    0.997 --     2 C    0.973
    13   1 H    0.999 --     3 C    0.977
    14   1 H    0.999 --     3 C    0.977
    15   1 H    0.997 --     4 C    0.976
    16   1 H    0.997 --     4 C    0.976
    17   1 H    0.997 --     5 C    0.979
    18   1 H    0.997 --     5 C    0.978
 ---------------------------------------------------------------------------

Topologies differ in total number of bonds
Writing topology from bond orders to xtbtopo.mol

molecular dipole:
                 x           y           z       tot (Debye)
 q only:       -0.144       1.387       0.824
   full:       -0.896       1.383       0.876       4.743
molecular quadrupole (traceless):
                xx          xy          yy          xz          yz          zz
 q only:      -12.700      -8.553       1.867      -3.025      -5.429      10.833
  q+dip:      -34.447     -12.470      13.405      -3.312      -3.605      21.041
   full:      -32.455     -12.023      12.745      -3.309      -3.078      19.711

           -------------------------------------------------
          |                Geometry Summary                 |
           -------------------------------------------------

      molecular mass/u    :      188.4934604
   center of mass at/Å    :        4.2313802       1.1922710       0.5532799
  moments of inertia/u·Å² :        0.8363968E+02   0.2334168E+04   0.2402390E+04
rotational constants/cm⁻¹ :        0.2015507E+00   0.7222117E-02   0.7017027E-02

 * 15 selected distances

     #   Z          #   Z                                           value/Å
     1   7 N        2   6 C                                       1.4574052
     2   6 C        3   6 C                                       1.5325295
     3   6 C        4   6 C                                       1.5274562
     4   6 C        5   6 C                                       1.5174507
     5   6 C        6  35 Br                                      1.9557308 (max)
     1   7 N        9   1 H                                       1.0149066
     1   7 N       10   1 H                                       1.0148164 (min)
     2   6 C       11   1 H                                       1.0920204
     2   6 C       12   1 H                                       1.0919591
     3   6 C       13   1 H                                       1.0939557
     3   6 C       14   1 H                                       1.0939726
     4   6 C       15   1 H                                       1.0925008
     4   6 C       16   1 H                                       1.0925377
     5   6 C       17   1 H                                       1.0887246
     5   6 C       18   1 H                                       1.0888182

 * 5 distinct bonds (by element types)

   Z      Z             #   av. dist./Å        max./Å        min./Å
   1 H    6 C           8     1.0918111     1.0939726     1.0887246
   6 C    6 C           3     1.5258122     1.5325295     1.5174507
   1 H    7 N           2     1.0148615     1.0149066     1.0148164
   6 C    7 N           1     1.4574052     1.4574052     1.4574052
   6 C   35 Br          1     1.9557308     1.9557308     1.9557308


optimized geometry written to: xtbopt.xyz


           -------------------------------------------------
          | TOTAL ENERGY              -25.726500631297 Eh   |
          | GRADIENT NORM               0.000983433731 Eh/α |
          | HOMO-LUMO GAP               4.843730277688 eV   |
           -------------------------------------------------

------------------------------------------------------------------------
 * finished run on 2023/01/23 at 14:13:48.161     
------------------------------------------------------------------------
 total:
 * wall-time:     0 d,  0 h,  0 min,  0.524 sec
 *  cpu-time:     0 d,  0 h,  0 min, 43.391 sec
 * ratio c/w:    82.849 speedup
 SCF:
 * wall-time:     0 d,  0 h,  0 min,  0.027 sec
 *  cpu-time:     0 d,  0 h,  0 min,  3.773 sec
 * ratio c/w:   141.940 speedup
 ANC optimizer:
 * wall-time:     0 d,  0 h,  0 min,  0.481 sec
 *  cpu-time:     0 d,  0 h,  0 min, 37.545 sec
 * ratio c/w:    78.125 speedup

