22
 energy: -51.801509390400 gnorm: 0.000175984964 xtb: 6.5.1 (fef0646)
N            1.30483671532979       -0.30433378923532        0.41014196903720
C            2.73797662887428       -0.23230539593781        0.15342530286184
C            3.04999781917471        1.07009556106278       -0.59993425639455
C            4.51780558931417        1.20085462443753       -0.87164305346853
C            5.12645679867354        0.48800722405681       -1.90095981837356
F            4.38031089157205       -0.31503389734176       -2.66379023223345
C            6.48929280371919        0.58569362926473       -2.16005057275897
F            7.03901268519399       -0.11161063766303       -3.15498614997319
C            7.28230327415087        1.41472172892217       -1.37154828706832
F            8.58947048318481        1.51596653441580       -1.60842993531518
C            6.70112555449685        2.13346039962080       -0.33187807606781
F            7.45201788042049        2.92676480455667        0.43381931097172
C            5.33546425962943        2.01469401827553       -0.09465277489790
F            4.79528364791064        2.70817742561854        0.91484432241868
Cl          -0.14990697409459        0.15126346861439       -2.13104298167578
H            1.04665466436403       -1.20371490910143        0.79921565892846
H            0.50266899215298       -0.08293097906093       -0.96672269327097
H            1.01375241580778        0.42510802586743        1.05261919430941
H            3.00835282309528       -1.08637469545712       -0.47059993861198
H            3.33470837371851       -0.27244113553119        1.07640353514807
H            2.71300203726326        1.91896497603241       -0.00464814014886
H            2.49801263604877        1.05849301857971       -1.54030238341454
