17
 energy: -20.855050866517 gnorm: 0.000166147848 xtb: 6.5.1 (fef0646)
N            1.02496657973291       -0.03808314079410       -0.09191431903390
C            2.50711963792628       -0.04027344087941       -0.07249026437445
C            3.02501464358129       -0.36933568174115        1.32470828963723
C            4.55546888469451       -0.37388151929797        1.33580281205599
C            5.07324556813205       -0.69730005207842        2.72615260770959
Br           7.07454922549355       -0.71377943242362        2.76853444747663
H            0.67576835737919        0.18411410383298       -1.03136941958652
H            0.66118975593167        0.66038964658585        0.56730936942593
H            0.66364761490039       -0.95939824576309        0.18288122082848
H            2.87129529696555        0.94065363371432       -0.37728538662933
H            2.87420767442661       -0.78015037294355       -0.78350562606864
H            2.67093216199789       -1.35163961722258        1.63858371404400
H            2.67255830437129        0.37090291934172        2.04350075910001
H            4.93814113761214        0.60135178519883        1.03069273803262
H            4.93562552745423       -1.11610442800630        0.63205702117309
H            4.77204365294874       -1.68893934126153        3.05882932239271
H            4.77783597645171        0.04943318373802        3.46092271381656
