 Entering Gaussian System
 *********************************************
 Gaussian 98:
 frequency output generated by the xtb code
 *********************************************
                         Standard orientation:
 --------------------------------------------------------------------
  Center     Atomic     Atomic              Coordinates (Angstroms)
  Number     Number      Type              X           Y           Z
 --------------------------------------------------------------------
    1          7             0       -2.056384   -0.440260   -0.447322
    2          6             0       -1.326056    0.407658    0.539574
    3          6             0        0.108864    0.733060    0.124648
    4          6             0        1.048248   -0.476805    0.125447
    5          6             0        2.486899   -0.125123   -0.233338
    6          1             0       -1.617009   -1.364963   -0.558262
    7          1             0       -2.083255    0.007379   -1.374763
    8          1             0       -3.032524   -0.601214   -0.157078
    9          1             0       -1.327015   -0.092260    1.516125
   10          1             0       -1.893631    1.336961    0.684854
   11          1             0        0.520841    1.502789    0.789566
   12          1             0        0.101933    1.188728   -0.872183
   13          1             0        0.669652   -1.234835   -0.570760
   14          1             0        1.019579   -0.955533    1.112628
   15          1             0        2.908445    0.593966    0.472079
   16          1             0        2.551528    0.321025   -1.227760
   17          1             0        3.136114   -1.004347   -0.227839
 --------------------------------------------------------------------
     1 basis functions        1 primitive gaussians
     1 alpha electrons        1 beta electrons

 Harmonic frequencies (cm**-1), IR intensities (km*mol⁻¹),
 Raman scattering activities (A**4/amu), Raman depolarization ratios,
 reduced masses (AMU), force constants (mDyne/A) and normal coordinates:
                      1                      2                      3
                        a                      a                      a 
 Frequencies --   108.8778               133.8442               157.1123
 Red. masses --     6.7406                 6.8728                 3.6203
 Frc consts  --     0.0000                 0.0000                 0.0000
 IR Inten    --     4.1301                10.4697                 8.4905
 Raman Activ --     0.0000                 0.0000                 0.0000
 Depolar     --     0.0000                 0.0000                 0.0000
 Atom AN      X      Y      Z        X      Y      Z        X      Y      Z
   1   7     0.03   0.14  -0.26     0.40  -0.21  -0.05     0.27  -0.12   0.01
   2   6    -0.04  -0.12   0.02    -0.09   0.16  -0.01    -0.01   0.12  -0.01
   3   6    -0.01  -0.04   0.15     0.00   0.17   0.33    -0.02   0.19   0.02
   4   6     0.10   0.05   0.49    -0.17   0.03  -0.01    -0.18   0.06  -0.05
   5   6    -0.09  -0.03  -0.34    -0.18  -0.12  -0.22    -0.10  -0.18   0.02
   6   1     0.05   0.07  -0.18     0.04  -0.12   0.25     0.42   0.17  -0.28
   7   1    -0.04   0.13  -0.02     0.36  -0.21  -0.10    -0.33   0.14   0.10
   8   1     0.02  -0.05  -0.06     0.03   0.10  -0.20     0.20  -0.47   0.21
   9   1    -0.02  -0.10  -0.03    -0.10   0.12   0.03     0.02   0.05   0.00
  10   1    -0.01  -0.05   0.06    -0.06   0.04  -0.13    -0.05   0.01  -0.02
  11   1    -0.04   0.04   0.01     0.00  -0.03   0.18     0.01   0.03   0.03
  12   1     0.02  -0.07   0.02     0.05   0.14   0.14     0.01   0.08   0.02
  13   1    -0.04  -0.12   0.32    -0.11   0.06  -0.03    -0.07   0.05  -0.04
  14   1     0.16   0.18   0.22    -0.02  -0.04  -0.03    -0.08  -0.01  -0.03
  15   1     0.04   0.12  -0.27     0.00  -0.06  -0.07     0.00  -0.09   0.03
  16   1    -0.16  -0.18  -0.18    -0.08  -0.02  -0.06     0.00  -0.03   0.02
  17   1     0.00   0.01  -0.02    -0.08  -0.06  -0.11    -0.08  -0.09  -0.01
                      4                      5                      6
                        a                      a                      a 
 Frequencies --   269.3846               286.8517               323.5563
 Red. masses --     3.2189                 5.6066                 8.4172
 Frc consts  --     0.0000                 0.0000                 0.0000
 IR Inten    --     0.3973                 0.3611                13.3203
 Raman Activ --     0.0000                 0.0000                 0.0000
 Depolar     --     0.0000                 0.0000                 0.0000
 Atom AN      X      Y      Z        X      Y      Z        X      Y      Z
   1   7    -0.11  -0.04   0.01     0.07  -0.02  -0.04    -0.40  -0.18  -0.00
   2   6    -0.06   0.16  -0.17     0.08  -0.24   0.14    -0.12  -0.03  -0.22
   3   6     0.08  -0.15   0.04    -0.14   0.27  -0.22     0.05   0.20   0.26
   4   6     0.11  -0.13   0.21    -0.07   0.33   0.07     0.20   0.27  -0.02
   5   6    -0.02   0.12  -0.08     0.06  -0.25   0.04     0.34  -0.20  -0.07
   6   1     0.02   0.01  -0.00    -0.07  -0.05   0.02    -0.14  -0.06  -0.01
   7   1    -0.12  -0.03  -0.01     0.14   0.00  -0.01    -0.21  -0.09  -0.02
   8   1    -0.00  -0.06   0.07    -0.02   0.09  -0.09    -0.08  -0.02   0.12
   9   1    -0.09   0.13  -0.00     0.16  -0.19  -0.02    -0.07   0.02  -0.04
  10   1     0.02   0.09  -0.16    -0.05  -0.14   0.20    -0.04  -0.00  -0.11
  11   1     0.01  -0.03   0.01    -0.06   0.16  -0.15    -0.09  -0.02   0.23
  12   1     0.08  -0.07  -0.00    -0.14  -0.01  -0.10     0.09   0.20   0.14
  13   1     0.03  -0.07   0.10    -0.05   0.05   0.09     0.01   0.12  -0.03
  14   1     0.09  -0.01   0.08    -0.05   0.17   0.06     0.06   0.03  -0.03
  15   1     0.15  -0.29   0.21     0.19  -0.30   0.14     0.17  -0.06  -0.06
  16   1    -0.15   0.46   0.16     0.04   0.13   0.10     0.16  -0.12  -0.05
  17   1    -0.05   0.00  -0.51    -0.15  -0.19  -0.22    -0.00  -0.13   0.04
                      7                      8                      9
                        a                      a                      a 
 Frequencies --   464.5338               772.3610               809.1869
 Red. masses --     8.1245                 2.3033                 2.9716
 Frc consts  --     0.0000                 0.0000                 0.0000
 IR Inten    --     5.7014                19.0628                33.6325
 Raman Activ --     0.0000                 0.0000                 0.0000
 Depolar     --     0.0000                 0.0000                 0.0000
 Atom AN      X      Y      Z        X      Y      Z        X      Y      Z
   1   7    -0.11  -0.11   0.00     0.01   0.07   0.09     0.12  -0.06   0.06
   2   6     0.42  -0.15  -0.26    -0.07   0.05  -0.05     0.17  -0.21   0.04
   3   6     0.33   0.22  -0.00    -0.10  -0.05  -0.19    -0.03  -0.12   0.02
   4   6    -0.20  -0.04   0.11    -0.03  -0.08  -0.19    -0.06   0.17  -0.13
   5   6    -0.35   0.07   0.06     0.04  -0.00  -0.02    -0.10   0.02  -0.01
   6   1    -0.17  -0.09  -0.03     0.12   0.06   0.12    -0.25  -0.11  -0.34
   7   1    -0.13  -0.07  -0.02     0.05  -0.05  -0.01     0.06   0.30   0.17
   8   1    -0.00   0.11   0.16    -0.01  -0.06  -0.05     0.01   0.16   0.05
   9   1     0.23  -0.12  -0.11     0.11  -0.08  -0.06    -0.19   0.29   0.19
  10   1     0.08  -0.09   0.05    -0.02  -0.01   0.14     0.11   0.05  -0.43
  11   1     0.05  -0.02   0.12     0.01  -0.31   0.27    -0.01  -0.06   0.03
  12   1     0.21   0.15   0.04     0.07   0.37   0.13    -0.10   0.03   0.04
  13   1    -0.11   0.01   0.03    -0.00  -0.34   0.30    -0.06  -0.07   0.12
  14   1    -0.09   0.00   0.03     0.13   0.37   0.15     0.06   0.20   0.04
  15   1    -0.14   0.05   0.01    -0.13  -0.04   0.12    -0.06  -0.05   0.08
  16   1    -0.16   0.03   0.02     0.18   0.08   0.04     0.14   0.02   0.02
  17   1    -0.03   0.07  -0.00     0.04   0.02   0.06    -0.10  -0.05   0.07
                     10                     11                     12
                        a                      a                      a 
 Frequencies --   870.4881               885.7745               933.8378
 Red. masses --     5.9354                 4.3050                 6.1430
 Frc consts  --     0.0000                 0.0000                 0.0000
 IR Inten    --     3.3910                30.1289                32.8270
 Raman Activ --     0.0000                 0.0000                 0.0000
 Depolar     --     0.0000                 0.0000                 0.0000
 Atom AN      X      Y      Z        X      Y      Z        X      Y      Z
   1   7    -0.18  -0.19  -0.22     0.17   0.20  -0.08     0.31   0.07   0.08
   2   6    -0.04   0.13   0.26     0.12  -0.05  -0.13    -0.13  -0.01  -0.16
   3   6     0.26   0.27   0.17    -0.12  -0.24   0.22    -0.29   0.22   0.03
   4   6    -0.00  -0.15  -0.14    -0.04   0.17  -0.09    -0.03  -0.28   0.05
   5   6     0.02  -0.06  -0.10    -0.10   0.05  -0.05     0.26  -0.11  -0.05
   6   1    -0.04  -0.04  -0.05     0.03   0.01   0.24    -0.22  -0.11  -0.11
   7   1    -0.04  -0.05  -0.05    -0.25  -0.32  -0.19    -0.11   0.04   0.03
   8   1    -0.05  -0.07  -0.08     0.14   0.12   0.34     0.13   0.28   0.32
   9   1    -0.08  -0.00   0.05    -0.14  -0.16  -0.11     0.05  -0.02  -0.05
  10   1    -0.07   0.00   0.04     0.15   0.04   0.03    -0.21  -0.11  -0.02
  11   1     0.21   0.22  -0.20    -0.03   0.05  -0.08    -0.12   0.08   0.01
  12   1    -0.09  -0.15  -0.06    -0.15  -0.19  -0.00    -0.07   0.03  -0.00
  13   1    -0.24  -0.10   0.16    -0.08   0.01   0.05    -0.08  -0.05   0.03
  14   1     0.20   0.09   0.03     0.17   0.07  -0.01    -0.02  -0.06   0.02
  15   1    -0.30  -0.03   0.18    -0.05  -0.07   0.09    -0.12   0.06   0.02
  16   1     0.21   0.12   0.05     0.23   0.01   0.01    -0.06   0.08   0.02
  17   1     0.16   0.10   0.08    -0.16  -0.09   0.12     0.32   0.16  -0.08
                     13                     14                     15
                        a                      a                      a 
 Frequencies --   969.0143              1003.4101              1056.3903
 Red. masses --     5.0759                 4.0298                 8.2750
 Frc consts  --     0.0000                 0.0000                 0.0000
 IR Inten    --     9.2845                 1.1881                19.1505
 Raman Activ --     0.0000                 0.0000                 0.0000
 Depolar     --     0.0000                 0.0000                 0.0000
 Atom AN      X      Y      Z        X      Y      Z        X      Y      Z
   1   7    -0.00   0.15   0.33    -0.09   0.20   0.07    -0.15  -0.13  -0.16
   2   6    -0.13  -0.20  -0.36     0.07  -0.37  -0.04     0.48   0.25   0.10
   3   6     0.04   0.00   0.06     0.07   0.11  -0.02    -0.38  -0.16   0.04
   4   6     0.03   0.03   0.06    -0.02   0.06  -0.03    -0.18   0.03   0.13
   5   6    -0.06  -0.02  -0.13     0.10  -0.20   0.05     0.20  -0.04  -0.11
   6   1     0.14   0.11   0.05     0.21   0.14   0.22     0.03  -0.00  -0.03
   7   1     0.21   0.17   0.14     0.02  -0.11  -0.06     0.02  -0.03  -0.04
   8   1    -0.06  -0.09  -0.18    -0.02  -0.13  -0.06    -0.05  -0.09  -0.12
   9   1     0.13  -0.00  -0.07    -0.31   0.02   0.05     0.24   0.10   0.04
  10   1    -0.03  -0.06  -0.02     0.28   0.09  -0.20     0.20   0.11   0.02
  11   1    -0.25   0.15  -0.00    -0.06   0.06  -0.00    -0.31  -0.00   0.10
  12   1     0.25  -0.19  -0.07    -0.20   0.10   0.02    -0.00  -0.01   0.03
  13   1    -0.21   0.13  -0.01    -0.09   0.03   0.02    -0.16   0.09  -0.00
  14   1     0.22  -0.14  -0.05    -0.20   0.11   0.03    -0.02  -0.09  -0.01
  15   1    -0.21  -0.05   0.13    -0.15   0.08  -0.02    -0.08   0.01   0.04
  16   1     0.23   0.07   0.02    -0.25   0.06   0.04     0.09   0.07   0.01
  17   1     0.00   0.01   0.11     0.32   0.17  -0.12     0.16   0.07  -0.00
                     16                     17                     18
                        a                      a                      a 
 Frequencies --  1092.4039              1142.0400              1160.5389
 Red. masses --     8.6771                 7.4346                 6.8186
 Frc consts  --     0.0000                 0.0000                 0.0000
 IR Inten    --     2.7934                 9.0794                10.0597
 Raman Activ --     0.0000                 0.0000                 0.0000
 Depolar     --     0.0000                 0.0000                 0.0000
 Atom AN      X      Y      Z        X      Y      Z        X      Y      Z
   1   7    -0.00   0.03   0.06     0.11  -0.07  -0.04     0.04   0.10  -0.16
   2   6    -0.06  -0.11  -0.07    -0.24   0.13   0.12    -0.09  -0.20   0.35
   3   6     0.15  -0.05   0.05     0.23  -0.39  -0.13     0.07   0.14  -0.39
   4   6    -0.61  -0.08   0.09    -0.06   0.45   0.03     0.02  -0.13   0.28
   5   6     0.42   0.26  -0.10     0.04  -0.20  -0.03    -0.02   0.09  -0.18
   6   1     0.03   0.02   0.02    -0.11  -0.07  -0.07    -0.00   0.00   0.10
   7   1     0.03   0.02   0.02    -0.06   0.01   0.01    -0.13  -0.15  -0.12
   8   1    -0.01  -0.01  -0.02     0.04   0.08   0.08     0.06   0.03   0.13
   9   1    -0.06  -0.04  -0.02    -0.02  -0.07  -0.02    -0.15   0.12   0.18
  10   1     0.01  -0.02  -0.02    -0.05   0.02   0.15    -0.00  -0.00  -0.12
  11   1     0.23  -0.06  -0.06     0.03  -0.16   0.05    -0.17  -0.06   0.13
  12   1     0.07  -0.10  -0.02     0.26  -0.09  -0.02     0.24   0.17  -0.03
  13   1    -0.18  -0.04   0.06    -0.16   0.21  -0.02    -0.04   0.12  -0.07
  14   1    -0.23   0.04   0.05    -0.14   0.09  -0.01     0.01  -0.21  -0.02
  15   1     0.27   0.02  -0.07    -0.22   0.05   0.03    -0.05  -0.07   0.08
  16   1     0.21  -0.00  -0.06    -0.10   0.09   0.04     0.25   0.03  -0.02
  17   1    -0.02  -0.03  -0.01     0.23   0.12  -0.04    -0.09  -0.04   0.10
                     19                     20                     21
                        a                      a                      a 
 Frequencies --  1224.3232              1245.7915              1279.5217
 Red. masses --     3.9817                 2.7649                 1.9096
 Frc consts  --     0.0000                 0.0000                 0.0000
 IR Inten    --     6.6531                14.3876                 3.2633
 Raman Activ --     0.0000                 0.0000                 0.0000
 Depolar     --     0.0000                 0.0000                 0.0000
 Atom AN      X      Y      Z        X      Y      Z        X      Y      Z
   1   7    -0.02   0.12  -0.13    -0.09   0.16  -0.06    -0.01   0.01  -0.01
   2   6    -0.03  -0.12   0.16     0.06  -0.13  -0.05     0.03   0.02   0.04
   3   6     0.04  -0.02   0.07    -0.08  -0.08   0.10     0.09   0.01   0.18
   4   6    -0.09  -0.00  -0.33     0.00   0.16   0.14     0.01  -0.04  -0.08
   5   6     0.06   0.02   0.25    -0.02  -0.09  -0.12    -0.04  -0.01  -0.17
   6   1     0.03   0.03   0.12     0.09   0.08   0.12     0.00   0.00   0.00
   7   1    -0.07  -0.10  -0.09    -0.01  -0.09  -0.08    -0.01  -0.02  -0.01
   8   1     0.03  -0.02   0.06     0.00  -0.04   0.02    -0.00   0.00   0.00
   9   1     0.25   0.24   0.18     0.39   0.27   0.14    -0.01   0.02   0.02
  10   1    -0.18  -0.11  -0.13    -0.36  -0.23  -0.22    -0.07  -0.04   0.01
  11   1    -0.24   0.11   0.04     0.41  -0.17  -0.07    -0.33   0.21   0.02
  12   1     0.33  -0.19  -0.07    -0.16  -0.00   0.04     0.20  -0.19  -0.04
  13   1    -0.18  -0.10   0.11     0.18   0.05  -0.07     0.47  -0.20  -0.05
  14   1     0.21   0.13  -0.01    -0.08  -0.04  -0.00    -0.55   0.25   0.10
  15   1     0.19   0.08  -0.12    -0.15  -0.02   0.06    -0.12  -0.05   0.07
  16   1    -0.24  -0.08   0.00     0.07   0.07   0.02     0.14   0.05  -0.01
  17   1    -0.00  -0.01  -0.12     0.08   0.04   0.04    -0.01  -0.00   0.05
                     22                     23                     24
                        a                      a                      a 
 Frequencies --  1310.1731              1328.1214              1369.3455
 Red. masses --     3.4674                 3.6445                 4.8885
 Frc consts  --     0.0000                 0.0000                 0.0000
 IR Inten    --     4.6399                11.6717                 4.6521
 Raman Activ --     0.0000                 0.0000                 0.0000
 Depolar     --     0.0000                 0.0000                 0.0000
 Atom AN      X      Y      Z        X      Y      Z        X      Y      Z
   1   7    -0.00  -0.07  -0.05     0.05  -0.08  -0.15     0.02  -0.01  -0.01
   2   6    -0.07  -0.13   0.02    -0.37  -0.12  -0.06    -0.11   0.03  -0.00
   3   6    -0.28   0.22   0.05     0.09   0.01   0.07     0.38  -0.10  -0.06
   4   6    -0.19   0.11   0.00     0.14  -0.09   0.00    -0.40   0.09   0.08
   5   6    -0.01  -0.13   0.00    -0.01   0.07  -0.03     0.03  -0.09  -0.00
   6   1     0.03  -0.00   0.02     0.02  -0.03   0.09    -0.02  -0.01  -0.01
   7   1     0.02   0.06   0.03    -0.02   0.10   0.03    -0.03   0.01   0.00
   8   1     0.01   0.06   0.06     0.04   0.09   0.13    -0.00   0.02  -0.01
   9   1    -0.01   0.01   0.02     0.49   0.24   0.12     0.11   0.03   0.01
  10   1     0.36   0.19   0.05     0.44   0.26   0.15    -0.00   0.02   0.02
  11   1     0.29  -0.08  -0.05    -0.00   0.05  -0.02    -0.31   0.14   0.06
  12   1     0.42  -0.15  -0.08    -0.19   0.05   0.04    -0.37   0.13   0.06
  13   1     0.41  -0.13  -0.06    -0.14   0.04   0.02     0.39  -0.10  -0.09
  14   1     0.27  -0.07  -0.04    -0.20   0.04   0.03     0.39  -0.10  -0.03
  15   1    -0.04   0.02  -0.02    -0.00  -0.02   0.03    -0.00   0.04  -0.05
  16   1     0.00   0.04   0.03     0.02  -0.02  -0.02     0.03   0.05   0.03
  17   1     0.13   0.06  -0.03    -0.07  -0.03   0.03     0.08   0.04  -0.02
                     25                     26                     27
                        a                      a                      a 
 Frequencies --  1389.9173              1434.6590              1435.4925
 Red. masses --     2.9773                 1.6471                 1.6337
 Frc consts  --     0.0000                 0.0000                 0.0000
 IR Inten    --   207.7486                78.9820                77.2925
 Raman Activ --     0.0000                 0.0000                 0.0000
 Depolar     --     0.0000                 0.0000                 0.0000
 Atom AN      X      Y      Z        X      Y      Z        X      Y      Z
   1   7    -0.21  -0.23  -0.21     0.01   0.12  -0.17     0.17  -0.11  -0.05
   2   6     0.09   0.04  -0.00     0.03   0.03  -0.03     0.07  -0.00  -0.02
   3   6     0.03  -0.04  -0.02    -0.01  -0.01   0.00    -0.02   0.02  -0.00
   4   6    -0.01   0.00   0.00    -0.01  -0.01   0.01     0.00  -0.02   0.00
   5   6     0.01   0.00   0.01    -0.03  -0.01   0.00    -0.01  -0.00   0.00
   6   1     0.41   0.16   0.25    -0.41  -0.23   0.40     0.02  -0.06   0.46
   7   1     0.29   0.35   0.16     0.19   0.30   0.12    -0.59   0.35   0.19
   8   1     0.06   0.35   0.43     0.17  -0.58   0.22    -0.13   0.18  -0.39
   9   1    -0.14  -0.01  -0.01    -0.05  -0.02  -0.02    -0.05   0.00  -0.00
  10   1    -0.14  -0.09   0.03    -0.02  -0.01   0.02    -0.05  -0.04  -0.01
  11   1    -0.05   0.02  -0.01     0.00   0.00  -0.01     0.01  -0.04   0.04
  12   1    -0.01   0.03   0.01    -0.00   0.01   0.01    -0.02  -0.05  -0.02
  13   1    -0.02   0.01  -0.01     0.02   0.02  -0.03     0.00   0.03  -0.03
  14   1     0.02   0.01   0.00     0.01   0.02   0.01     0.01   0.04   0.02
  15   1    -0.00   0.00   0.00     0.02  -0.01  -0.01     0.00  -0.00   0.00
  16   1    -0.01  -0.00  -0.00     0.04   0.00   0.00     0.01  -0.01  -0.00
  17   1    -0.01  -0.00  -0.00     0.03   0.02  -0.01     0.01   0.01  -0.00
                     28                     29                     30
                        a                      a                      a 
 Frequencies --  1444.1974              1478.0715              1489.0058
 Red. masses --     3.1097                 1.8548                 1.9083
 Frc consts  --     0.0000                 0.0000                 0.0000
 IR Inten    --     7.0205                18.5358                 8.2117
 Raman Activ --     0.0000                 0.0000                 0.0000
 Depolar     --     0.0000                 0.0000                 0.0000
 Atom AN      X      Y      Z        X      Y      Z        X      Y      Z
   1   7    -0.00  -0.01   0.01     0.01   0.00  -0.00     0.02   0.00   0.01
   2   6    -0.00   0.00  -0.01     0.11  -0.08  -0.24     0.01  -0.03  -0.03
   3   6     0.00  -0.02   0.00     0.01   0.03  -0.01    -0.08  -0.26   0.06
   4   6     0.06  -0.02  -0.01    -0.01   0.01   0.00    -0.03   0.01   0.01
   5   6    -0.41  -0.07   0.10     0.01  -0.01  -0.00     0.00   0.03   0.01
   6   1     0.04   0.02  -0.04    -0.04  -0.02  -0.05    -0.01  -0.01   0.01
   7   1     0.00  -0.03  -0.01    -0.01  -0.05  -0.03    -0.07   0.00   0.00
   8   1    -0.01   0.04  -0.00     0.00  -0.03  -0.02    -0.01   0.01  -0.05
   9   1     0.01   0.02   0.01    -0.31   0.53   0.26    -0.05   0.08   0.04
  10   1    -0.01  -0.01   0.02    -0.04  -0.14   0.66    -0.02  -0.03   0.08
  11   1    -0.01  -0.00   0.00     0.00  -0.06   0.07     0.06   0.40  -0.51
  12   1    -0.02  -0.00   0.00    -0.05  -0.07  -0.03     0.28   0.55   0.26
  13   1    -0.06   0.04  -0.01     0.00  -0.01   0.02     0.01  -0.01   0.01
  14   1    -0.05   0.05   0.02     0.02  -0.02  -0.01     0.01  -0.02  -0.01
  15   1     0.45  -0.06  -0.23    -0.01   0.02  -0.02    -0.01  -0.05   0.06
  16   1     0.50  -0.00   0.05    -0.01   0.03   0.01     0.00  -0.10  -0.04
  17   1     0.40   0.32  -0.12    -0.02  -0.01   0.02     0.03   0.02  -0.05
                     31                     32                     33
                        a                      a                      a 
 Frequencies --  1502.3197              1504.7975              1517.9161
 Red. masses --     1.5126                 1.4997                 1.9901
 Frc consts  --     0.0000                 0.0000                 0.0000
 IR Inten    --     9.0150                 8.2759                 0.8287
 Raman Activ --     0.0000                 0.0000                 0.0000
 Depolar     --     0.0000                 0.0000                 0.0000
 Atom AN      X      Y      Z        X      Y      Z        X      Y      Z
   1   7    -0.00   0.00   0.00     0.00  -0.00  -0.00    -0.01   0.00   0.01
   2   6     0.00   0.00  -0.01    -0.00  -0.00   0.01     0.00  -0.01  -0.01
   3   6     0.01   0.02  -0.01    -0.02  -0.02   0.01    -0.04  -0.02   0.01
   4   6    -0.01  -0.00   0.05     0.06   0.02  -0.00    -0.05  -0.28   0.05
   5   6     0.03   0.08   0.19     0.03  -0.18   0.08     0.03  -0.05   0.00
   6   1     0.00   0.00  -0.01    -0.00  -0.00   0.02     0.01   0.01  -0.05
   7   1     0.01  -0.01  -0.01    -0.02   0.02   0.01     0.02  -0.04  -0.02
   8   1    -0.00  -0.00   0.00    -0.00   0.00  -0.01    -0.00   0.01   0.00
   9   1    -0.00   0.01   0.00     0.00  -0.02  -0.01     0.00   0.01   0.01
  10   1    -0.00  -0.00   0.01     0.00   0.00  -0.02     0.01   0.00   0.01
  11   1     0.01  -0.05   0.05     0.01   0.05  -0.06     0.03   0.01  -0.03
  12   1    -0.04  -0.05  -0.02     0.03   0.07   0.03     0.04   0.02   0.01
  13   1     0.03   0.04  -0.05    -0.04  -0.10   0.13     0.02   0.42  -0.48
  14   1     0.01   0.03   0.03    -0.10  -0.15  -0.06     0.20   0.56   0.28
  15   1    -0.35   0.14   0.08    -0.12   0.50  -0.44    -0.02   0.12  -0.11
  16   1     0.30  -0.44  -0.17     0.23   0.44   0.22     0.01   0.15   0.07
  17   1    -0.07  -0.06  -0.68    -0.25  -0.20  -0.12    -0.08  -0.07   0.03
                     34                     35                     36
                        a                      a                      a 
 Frequencies --  2911.9410              2940.9334              2943.5321
 Red. masses --     1.9155                 1.9601                 1.8931
 Frc consts  --     0.0000                 0.0000                 0.0000
 IR Inten    --    40.2821                15.8881                 2.5343
 Raman Activ --     0.0000                 0.0000                 0.0000
 Depolar     --     0.0000                 0.0000                 0.0000
 Atom AN      X      Y      Z        X      Y      Z        X      Y      Z
   1   7    -0.00   0.00   0.00     0.00   0.00   0.00    -0.00   0.00  -0.00
   2   6    -0.00   0.00  -0.00     0.01  -0.05   0.04     0.11  -0.23   0.08
   3   6    -0.02  -0.01  -0.06    -0.07  -0.06  -0.26     0.02   0.03   0.04
   4   6     0.06   0.07   0.26    -0.02  -0.03  -0.06     0.02   0.07  -0.02
   5   6    -0.00  -0.00  -0.02     0.00   0.00   0.01     0.00  -0.01   0.00
   6   1     0.00  -0.01  -0.00     0.00   0.00  -0.00     0.01  -0.02  -0.00
   7   1    -0.00   0.00   0.00     0.00  -0.00   0.01    -0.00  -0.00   0.01
   8   1     0.00  -0.00  -0.00     0.00   0.00   0.00     0.00   0.00  -0.00
   9   1     0.00   0.00  -0.00    -0.00   0.10  -0.19     0.01   0.18  -0.38
  10   1     0.00  -0.00  -0.00    -0.04   0.06   0.02    -0.40   0.67   0.10
  11   1     0.06   0.13   0.10     0.25   0.46   0.39    -0.07  -0.12  -0.11
  12   1    -0.00  -0.07   0.13    -0.01  -0.27   0.56     0.00   0.01  -0.01
  13   1    -0.25  -0.52  -0.48     0.07   0.14   0.14    -0.07  -0.14  -0.15
  14   1     0.02   0.25  -0.48    -0.00  -0.04   0.07     0.00  -0.09   0.22
  15   1     0.03   0.04   0.04    -0.01  -0.02  -0.02     0.01   0.01   0.02
  16   1    -0.00  -0.03   0.05     0.00   0.01  -0.02     0.00   0.01  -0.02
  17   1    -0.01   0.00  -0.00     0.00  -0.00   0.00    -0.01   0.01  -0.00
                     37                     38                     39
                        a                      a                      a 
 Frequencies --  2946.1411              2966.5595              2974.3301
 Red. masses --     1.5285                 1.5451                 1.5878
 Frc consts  --     0.0000                 0.0000                 0.0000
 IR Inten    --    22.0184                17.0378                 8.7815
 Raman Activ --     0.0000                 0.0000                 0.0000
 Depolar     --     0.0000                 0.0000                 0.0000
 Atom AN      X      Y      Z        X      Y      Z        X      Y      Z
   1   7     0.00   0.00   0.00     0.00  -0.00   0.00    -0.00  -0.00   0.00
   2   6    -0.03   0.07  -0.02     0.03  -0.05  -0.04     0.05   0.01  -0.21
   3   6    -0.03  -0.06  -0.02    -0.06  -0.18   0.06     0.01   0.04  -0.06
   4   6     0.04   0.16  -0.09    -0.01  -0.05   0.02    -0.00   0.01  -0.01
   5   6     0.01  -0.02   0.01    -0.01   0.04  -0.01     0.00  -0.01   0.01
   6   1    -0.00  -0.01  -0.00     0.00  -0.00   0.00     0.00  -0.01  -0.00
   7   1    -0.00   0.00  -0.00    -0.00   0.00  -0.01    -0.00   0.01  -0.02
   8   1    -0.00  -0.00   0.00    -0.00  -0.00   0.00     0.00  -0.00  -0.00
   9   1    -0.01  -0.05   0.11     0.01  -0.07   0.12     0.02  -0.40   0.72
  10   1     0.12  -0.20  -0.03    -0.14   0.24   0.03    -0.21   0.37   0.02
  11   1     0.10   0.18   0.17     0.23   0.40   0.40    -0.02  -0.03  -0.04
  12   1    -0.00   0.05  -0.13    -0.01   0.24  -0.60     0.00  -0.11   0.25
  13   1    -0.16  -0.32  -0.35     0.04   0.08   0.09    -0.00   0.00  -0.00
  14   1     0.00  -0.29   0.67    -0.00   0.06  -0.16     0.00  -0.02   0.05
  15   1     0.02   0.02   0.03    -0.02  -0.03  -0.03     0.00   0.00   0.00
  16   1     0.00   0.03  -0.06    -0.00  -0.03   0.07     0.00   0.02  -0.04
  17   1    -0.03   0.04   0.00     0.05  -0.07  -0.00    -0.01   0.02   0.00
                     40                     41                     42
                        a                      a                      a 
 Frequencies --  2993.0874              2998.7377              3011.7302
 Red. masses --     1.9013                 1.9446                 1.3130
 Frc consts  --     0.0000                 0.0000                 0.0000
 IR Inten    --    20.8570                30.1190                19.9052
 Raman Activ --     0.0000                 0.0000                 0.0000
 Depolar     --     0.0000                 0.0000                 0.0000
 Atom AN      X      Y      Z        X      Y      Z        X      Y      Z
   1   7    -0.00   0.00  -0.00     0.00   0.00  -0.00     0.00  -0.00   0.00
   2   6    -0.00   0.01  -0.00     0.00  -0.00   0.00    -0.00  -0.00   0.00
   3   6     0.01   0.02  -0.01     0.00  -0.00   0.01    -0.00  -0.01   0.00
   4   6     0.00   0.03  -0.01     0.01   0.00   0.03    -0.01  -0.02   0.01
   5   6    -0.11   0.26  -0.02     0.05   0.04   0.28    -0.13  -0.10   0.03
   6   1     0.00  -0.00  -0.00    -0.00  -0.00   0.00     0.00   0.00   0.00
   7   1     0.00   0.00   0.00    -0.00  -0.00   0.00     0.00   0.00  -0.00
   8   1     0.00  -0.00  -0.00    -0.00  -0.00   0.00    -0.00  -0.00   0.00
   9   1    -0.00  -0.01   0.01     0.00   0.01  -0.01     0.00   0.00  -0.01
  10   1     0.01  -0.02  -0.00     0.00  -0.00   0.00     0.00  -0.00   0.00
  11   1    -0.02  -0.04  -0.04    -0.00  -0.00  -0.00     0.01   0.02   0.02
  12   1     0.00  -0.03   0.07    -0.00   0.01  -0.03    -0.00   0.01  -0.03
  13   1    -0.02  -0.04  -0.05    -0.02  -0.04  -0.04     0.01   0.03   0.03
  14   1     0.00  -0.03   0.07    -0.00   0.03  -0.07    -0.00   0.02  -0.04
  15   1    -0.11  -0.13  -0.17    -0.25  -0.45  -0.41     0.24   0.43   0.44
  16   1    -0.02  -0.07   0.24     0.04   0.30  -0.62     0.01   0.24  -0.57
  17   1     0.52  -0.71   0.01     0.02  -0.01   0.04     0.21  -0.32   0.01
                     43                     44                     45
                        a                      a                      a 
 Frequencies --  3207.8934              3214.6415              3234.6547
 Red. masses --     2.0261                 2.0447                 1.2809
 Frc consts  --     0.0000                 0.0000                 0.0000
 IR Inten    --    92.1420                84.9418                23.0733
 Raman Activ --     0.0000                 0.0000                 0.0000
 Depolar     --     0.0000                 0.0000                 0.0000
 Atom AN      X      Y      Z        X      Y      Z        X      Y      Z
   1   7     0.24  -0.03  -0.13     0.06  -0.23   0.15    -0.04  -0.09  -0.11
   2   6     0.00  -0.00  -0.01     0.00  -0.01   0.01    -0.00  -0.01  -0.01
   3   6    -0.00   0.00   0.00     0.00   0.00  -0.00     0.00  -0.00   0.00
   4   6     0.00   0.00   0.00     0.00   0.00   0.00     0.00   0.00   0.00
   5   6     0.00   0.00  -0.00     0.00   0.00   0.00    -0.00  -0.00  -0.00
   6   1    -0.15   0.35   0.02    -0.28   0.56   0.08    -0.28   0.56   0.05
   7   1     0.03  -0.13   0.23    -0.00   0.31  -0.65     0.01  -0.28   0.52
   8   1    -0.79  -0.12   0.25     0.07  -0.01  -0.00     0.45   0.06  -0.16
   9   1    -0.00  -0.00   0.01    -0.00   0.01  -0.02     0.00  -0.01   0.01
  10   1    -0.01   0.01   0.00    -0.01   0.01   0.00    -0.01   0.01   0.00
  11   1     0.00  -0.00  -0.00    -0.00  -0.00  -0.00     0.00   0.00   0.00
  12   1    -0.00  -0.00   0.00     0.00  -0.00   0.00    -0.00   0.00  -0.00
  13   1    -0.00  -0.00  -0.00    -0.00  -0.01  -0.01    -0.00  -0.01  -0.01
  14   1     0.00   0.00  -0.00     0.00  -0.00   0.00     0.00  -0.00   0.00
  15   1    -0.00  -0.00  -0.00    -0.00  -0.00  -0.00    -0.00   0.00   0.00
  16   1    -0.00  -0.00   0.00    -0.00   0.00  -0.00     0.00   0.00  -0.00
  17   1     0.00   0.00   0.00     0.00   0.00   0.00     0.00  -0.00   0.00
