 Entering Gaussian System
 *********************************************
 Gaussian 98:
 frequency output generated by the xtb code
 *********************************************
                         Standard orientation:
 --------------------------------------------------------------------
  Center     Atomic     Atomic              Coordinates (Angstroms)
  Number     Number      Type              X           Y           Z
 --------------------------------------------------------------------
    1          7             0       -4.848100   -0.784397   -1.486352
    2          6             0       -4.738110    0.424364   -0.628784
    3          6             0       -4.161027    0.066383    0.731594
    4          8             0       -2.891141   -0.566564    0.620801
    5          6             0       -1.829507    0.246660    0.433676
    6          6             0       -0.541481   -0.392637    0.334853
    7          6             0       -0.417768   -1.785507    0.454505
    8          6             0        0.795419   -2.403244    0.357551
    9          6             0        0.616272    0.386327    0.119237
   10          6             0        0.522869    1.796427    0.008035
   11          6             0       -0.750807    2.402964    0.122728
   12          6             0       -1.873220    1.665751    0.327994
   13          6             0        1.698753    2.545341   -0.207880
   14          6             0        2.915149    1.939874   -0.310084
   15          6             0        3.045412    0.531434   -0.201372
   16          6             0        4.280869   -0.119883   -0.299975
   17          6             0        4.366422   -1.491923   -0.186363
   18          6             0        3.240169   -2.255657    0.027663
   19          6             0        1.976932   -1.656000    0.134176
   20          6             0        1.880829   -0.246990    0.016654
   21          1             0       -3.928822   -1.232562   -1.562164
   22          1             0       -5.181342   -0.557217   -2.430461
   23          1             0       -5.491492   -1.466703   -1.070368
   24          1             0       -5.719578    0.901169   -0.524242
   25          1             0       -4.092418    1.154750   -1.127048
   26          1             0       -4.808550   -0.662843    1.232518
   27          1             0       -4.080941    0.921594    1.411833
   28          1             0       -1.311150   -2.358992    0.633689
   29          1             0        0.866403   -3.472994    0.452273
   30          1             0       -0.818552    3.474655    0.045047
   31          1             0       -2.815897    2.173746    0.413856
   32          1             0        1.622338    3.616001   -0.291572
   33          1             0        3.799792    2.530690   -0.474678
   34          1             0        5.169421    0.464692   -0.466159
   35          1             0        5.327889   -1.972899   -0.265405
   36          1             0        3.321213   -3.325407    0.115964
 --------------------------------------------------------------------
     1 basis functions        1 primitive gaussians
     1 alpha electrons        1 beta electrons

 Harmonic frequencies (cm**-1), IR intensities (km*mol⁻¹),
 Raman scattering activities (A**4/amu), Raman depolarization ratios,
 reduced masses (AMU), force constants (mDyne/A) and normal coordinates:
                      1                      2                      3
                        a                      a                      a 
 Frequencies --  -146.9866                26.3063                35.2483
 Red. masses --     1.4838                 9.3819                10.5678
 Frc consts  --     0.0000                 0.0000                 0.0000
 IR Inten    --    10.9150                43.1239                13.1561
 Raman Activ --     0.0000                 0.0000                 0.0000
 Depolar     --     0.0000                 0.0000                 0.0000
 Atom AN      X      Y      Z        X      Y      Z        X      Y      Z
   1   7     0.10  -0.03   0.08     0.74  -0.04  -0.04    -0.09  -0.29   0.36
   2   6     0.08   0.04  -0.03    -0.11  -0.07   0.09    -0.16  -0.12   0.12
   3   6    -0.03   0.02   0.01    -0.05   0.03   0.09     0.03   0.12   0.10
   4   8    -0.04  -0.01  -0.04    -0.04   0.06   0.02     0.01   0.11  -0.02
   5   6    -0.02  -0.01   0.00    -0.03   0.05   0.02     0.01   0.06  -0.16
   6   6    -0.01  -0.01   0.00    -0.04   0.03   0.00    -0.01   0.04  -0.17
   7   6    -0.00  -0.01  -0.00    -0.07   0.03  -0.00    -0.05   0.03  -0.28
   8   6    -0.00  -0.00  -0.00    -0.08   0.01  -0.01    -0.06   0.00  -0.28
   9   6    -0.01  -0.00   0.00    -0.04   0.01  -0.01     0.02   0.02  -0.09
  10   6    -0.01  -0.00   0.01    -0.02   0.02  -0.00     0.05   0.03  -0.05
  11   6    -0.01  -0.01   0.02    -0.02   0.03   0.00     0.04   0.04  -0.15
  12   6    -0.01  -0.01   0.02    -0.02   0.05   0.02     0.02   0.06  -0.20
  13   6    -0.02  -0.00  -0.00    -0.01  -0.00  -0.01     0.08   0.02   0.11
  14   6    -0.02   0.00  -0.01    -0.02  -0.02  -0.02     0.08   0.01   0.21
  15   6    -0.01   0.00  -0.01    -0.04  -0.02  -0.02     0.05  -0.00   0.14
  16   6    -0.01   0.01  -0.02    -0.05  -0.04  -0.03     0.05  -0.02   0.25
  17   6    -0.01   0.01  -0.02    -0.07  -0.04  -0.04     0.01  -0.03   0.15
  18   6    -0.00   0.01  -0.02    -0.08  -0.03  -0.03    -0.03  -0.02  -0.04
  19   6    -0.00   0.00  -0.01    -0.07  -0.01  -0.02    -0.03  -0.00  -0.12
  20   6    -0.01   0.00  -0.00    -0.05  -0.01  -0.02     0.01   0.01  -0.03
  21   1    -0.06  -0.28   0.53     0.28   0.15   0.04    -0.01  -0.06   0.14
  22   1     0.55   0.02  -0.15     0.21  -0.05  -0.02    -0.01  -0.14   0.08
  23   1    -0.38   0.22  -0.25     0.29  -0.13  -0.06    -0.02  -0.07   0.12
  24   1     0.04   0.05  -0.06    -0.11  -0.17   0.01    -0.06  -0.06   0.04
  25   1     0.07  -0.02   0.00    -0.13   0.10   0.07    -0.08  -0.03  -0.01
  26   1    -0.01   0.01  -0.01     0.00   0.00   0.04     0.03   0.06   0.09
  27   1     0.00   0.00   0.01    -0.01   0.01   0.02     0.04   0.06  -0.01
  28   1     0.00  -0.01   0.00    -0.02   0.01   0.00    -0.02   0.01  -0.11
  29   1     0.00  -0.00  -0.00    -0.03   0.00  -0.00    -0.03  -0.00  -0.11
  30   1    -0.00  -0.00   0.01    -0.00   0.01   0.00     0.02   0.01  -0.05
  31   1    -0.00  -0.00   0.01    -0.01   0.01   0.01     0.01   0.02  -0.08
  32   1    -0.01  -0.00  -0.00     0.00  -0.00  -0.00     0.03   0.01   0.04
  33   1    -0.01   0.00  -0.01    -0.00  -0.01  -0.01     0.03   0.00   0.10
  34   1    -0.00   0.00  -0.01    -0.01  -0.02  -0.01     0.02  -0.01   0.12
  35   1    -0.00   0.00  -0.01    -0.02  -0.02  -0.01     0.00  -0.01   0.07
  36   1     0.00   0.00  -0.01    -0.03  -0.01  -0.01    -0.02  -0.01  -0.04
                      4                      5                      6
                        a                      a                      a 
 Frequencies --    55.0404                76.0038               120.0167
 Red. masses --    10.3023                11.2129                10.7403
 Frc consts  --     0.0000                 0.0000                 0.0000
 IR Inten    --    13.6813                 2.9672                 1.9933
 Raman Activ --     0.0000                 0.0000                 0.0000
 Depolar     --     0.0000                 0.0000                 0.0000
 Atom AN      X      Y      Z        X      Y      Z        X      Y      Z
   1   7     0.00   0.43  -0.00     0.12  -0.02  -0.06    -0.08  -0.16   0.02
   2   6    -0.15   0.18   0.33     0.38   0.01  -0.13    -0.17  -0.10  -0.04
   3   6     0.03  -0.12   0.17    -0.00   0.03   0.04    -0.02  -0.04  -0.09
   4   8     0.00  -0.13  -0.12     0.03   0.02   0.51     0.01   0.03  -0.29
   5   6    -0.01  -0.10  -0.09    -0.02   0.00   0.16     0.03   0.08   0.07
   6   6     0.00  -0.08  -0.13    -0.04  -0.01  -0.03     0.02   0.06   0.02
   7   6     0.04  -0.08  -0.14    -0.06  -0.03  -0.21    -0.04   0.03  -0.23
   8   6     0.06  -0.04  -0.07    -0.06  -0.03  -0.27    -0.05   0.02  -0.15
   9   6    -0.01  -0.05  -0.12    -0.05  -0.01  -0.09     0.04   0.04   0.08
  10   6    -0.05  -0.06  -0.15    -0.05  -0.01  -0.11     0.06   0.05   0.17
  11   6    -0.05  -0.08  -0.10    -0.04  -0.01  -0.01     0.09   0.08   0.38
  12   6    -0.03  -0.10  -0.04    -0.01   0.01   0.21     0.07   0.09   0.28
  13   6    -0.07  -0.03  -0.17    -0.07  -0.01  -0.18     0.05   0.00  -0.13
  14   6    -0.05   0.00  -0.10    -0.05  -0.00  -0.10     0.01  -0.04  -0.34
  15   6     0.00   0.02   0.01    -0.04   0.01  -0.00     0.01  -0.03  -0.16
  16   6     0.04   0.06   0.17    -0.01   0.03   0.18     0.01  -0.05  -0.08
  17   6     0.09   0.07   0.28    -0.00   0.03   0.22     0.02  -0.02   0.22
  18   6     0.09   0.04   0.18    -0.02   0.01   0.03     0.00   0.00   0.25
  19   6     0.06  -0.01   0.02    -0.04  -0.01  -0.11    -0.01   0.01   0.05
  20   6     0.01  -0.02  -0.04    -0.04  -0.01  -0.08     0.01   0.01  -0.00
  21   1     0.01   0.13   0.02     0.00  -0.05  -0.09    -0.01  -0.03   0.04
  22   1     0.05   0.18  -0.00    -0.02  -0.00   0.00    -0.01  -0.07  -0.01
  23   1    -0.02   0.08  -0.09     0.03   0.02   0.03    -0.02  -0.05   0.01
  24   1    -0.06  -0.00   0.15     0.15   0.09  -0.10    -0.06  -0.06   0.01
  25   1    -0.09   0.12   0.13     0.20  -0.07  -0.02    -0.08  -0.01  -0.03
  26   1     0.02  -0.06   0.03    -0.04   0.02  -0.03     0.02  -0.02  -0.01
  27   1     0.03  -0.07   0.10    -0.05   0.02   0.01    -0.00  -0.01  -0.03
  28   1     0.01  -0.03  -0.06    -0.02  -0.01  -0.08    -0.02   0.01  -0.12
  29   1     0.03  -0.01  -0.02    -0.02  -0.01  -0.12    -0.02   0.00  -0.08
  30   1    -0.02  -0.02  -0.02    -0.01  -0.00  -0.00     0.04   0.03   0.15
  31   1    -0.01  -0.03   0.02     0.01   0.01   0.12     0.02   0.03   0.09
  32   1    -0.03  -0.01  -0.07    -0.02  -0.01  -0.07     0.02  -0.00  -0.06
  33   1    -0.02   0.01  -0.03    -0.02  -0.00  -0.03    -0.01  -0.02  -0.18
  34   1     0.01   0.03   0.07     0.00   0.01   0.09     0.00  -0.02  -0.06
  35   1     0.03   0.03   0.12     0.01   0.01   0.11     0.01  -0.01   0.11
  36   1     0.04   0.01   0.07    -0.01   0.00   0.01    -0.00   0.00   0.12
                      7                      8                      9
                        a                      a                      a 
 Frequencies --   161.3829               174.2621               193.9339
 Red. masses --    10.0372                10.3237                 9.9620
 Frc consts  --     0.0000                 0.0000                 0.0000
 IR Inten    --     1.2519                 3.7519                 5.2976
 Raman Activ --     0.0000                 0.0000                 0.0000
 Depolar     --     0.0000                 0.0000                 0.0000
 Atom AN      X      Y      Z        X      Y      Z        X      Y      Z
   1   7    -0.08  -0.01  -0.10    -0.08  -0.01  -0.18    -0.01   0.05  -0.07
   2   6    -0.14  -0.09   0.03     0.07  -0.23   0.15     0.05  -0.05   0.07
   3   6    -0.01  -0.13  -0.03     0.09  -0.41   0.09     0.04  -0.12   0.05
   4   8     0.05  -0.01  -0.13     0.25  -0.10   0.10     0.09  -0.05   0.09
   5   6     0.04   0.06   0.16     0.02   0.12  -0.07     0.01   0.02   0.04
   6   6     0.05   0.07   0.22     0.01   0.15  -0.15     0.02   0.05   0.11
   7   6     0.01   0.07   0.21    -0.08   0.17   0.03    -0.06   0.01  -0.31
   8   6    -0.03   0.02  -0.07    -0.12   0.10   0.11    -0.06  -0.00  -0.19
   9   6     0.04   0.05   0.14     0.01   0.11  -0.19     0.05   0.06   0.33
  10   6     0.02   0.03  -0.07     0.03   0.12  -0.09     0.01   0.04   0.05
  11   6     0.02   0.04  -0.04     0.02   0.12  -0.02    -0.04   0.00  -0.25
  12   6     0.03   0.06   0.12    -0.00   0.12   0.02    -0.03   0.01  -0.14
  13   6     0.01  -0.02  -0.35     0.11   0.07   0.11     0.00   0.01  -0.09
  14   6     0.03  -0.02  -0.09     0.08  -0.00   0.11     0.01  -0.00  -0.01
  15   6     0.05   0.01   0.21     0.02  -0.03  -0.07     0.02   0.01   0.19
  16   6     0.06  -0.00   0.38    -0.02  -0.12  -0.04    -0.04  -0.04  -0.19
  17   6    -0.02  -0.04  -0.00    -0.11  -0.12   0.04    -0.06  -0.05  -0.20
  18   6    -0.08  -0.05  -0.40    -0.15  -0.04   0.10    -0.03  -0.00   0.11
  19   6    -0.03  -0.00  -0.15    -0.12   0.04  -0.01     0.00   0.04   0.28
  20   6     0.03   0.02   0.10    -0.03   0.04  -0.15     0.05   0.05   0.41
  21   1    -0.02  -0.01  -0.00    -0.05  -0.06  -0.06    -0.01  -0.01  -0.03
  22   1     0.02   0.03  -0.03     0.03   0.10  -0.04     0.01   0.05  -0.01
  23   1    -0.04  -0.01  -0.07    -0.09   0.01  -0.14    -0.02   0.01  -0.05
  24   1    -0.05  -0.06   0.04     0.03  -0.05   0.07     0.02  -0.01   0.03
  25   1    -0.07   0.01   0.02     0.03  -0.05   0.08     0.02  -0.01   0.03
  26   1     0.02  -0.06  -0.01     0.06  -0.18  -0.02     0.02  -0.05   0.00
  27   1    -0.02  -0.05   0.00    -0.04  -0.14   0.06    -0.00  -0.04   0.02
  28   1     0.01   0.03   0.10    -0.03   0.07   0.04    -0.04  -0.01  -0.23
  29   1    -0.02   0.00  -0.05    -0.04   0.03   0.08    -0.03  -0.01  -0.17
  30   1     0.00   0.01  -0.05     0.01   0.04   0.03    -0.02  -0.01  -0.16
  31   1     0.01   0.01   0.03    -0.00   0.03   0.05    -0.01  -0.00  -0.08
  32   1    -0.00  -0.01  -0.21     0.06   0.03   0.08    -0.00  -0.00  -0.10
  33   1     0.01  -0.01  -0.06     0.04  -0.01   0.08    -0.00  -0.01  -0.06
  34   1     0.03   0.00   0.20     0.01  -0.06  -0.01    -0.02  -0.03  -0.16
  35   1    -0.01  -0.02  -0.01    -0.04  -0.05   0.03    -0.03  -0.03  -0.15
  36   1    -0.05  -0.03  -0.23    -0.06  -0.01   0.07    -0.02  -0.00   0.02
                     10                     11                     12
                        a                      a                      a 
 Frequencies --   228.1083               252.0002               282.3805
 Red. masses --    10.9293                10.1907                10.7113
 Frc consts  --     0.0000                 0.0000                 0.0000
 IR Inten    --    14.0333                 0.4603                 6.3503
 Raman Activ --     0.0000                 0.0000                 0.0000
 Depolar     --     0.0000                 0.0000                 0.0000
 Atom AN      X      Y      Z        X      Y      Z        X      Y      Z
   1   7     0.15   0.00   0.32    -0.02  -0.05   0.03     0.02  -0.01   0.11
   2   6     0.38   0.16   0.02    -0.07   0.00  -0.04     0.01   0.08  -0.04
   3   6     0.23  -0.07  -0.01    -0.08   0.03  -0.03     0.03  -0.03  -0.09
   4   8     0.14  -0.21  -0.41    -0.07   0.06  -0.04     0.01  -0.06  -0.32
   5   6     0.03  -0.04  -0.17    -0.02   0.01  -0.03     0.06   0.02   0.33
   6   6     0.01   0.01  -0.09    -0.05  -0.03  -0.30     0.05   0.03   0.29
   7   6    -0.07   0.02   0.00    -0.01  -0.02  -0.19     0.01   0.01   0.12
   8   6    -0.09   0.00   0.09     0.05   0.02   0.22    -0.04  -0.03  -0.22
   9   6    -0.02   0.05   0.02    -0.02  -0.03  -0.22    -0.00   0.01  -0.01
  10   6    -0.06   0.05   0.05    -0.02  -0.04  -0.29    -0.05  -0.01  -0.28
  11   6    -0.06   0.03   0.11     0.03   0.00   0.06    -0.05  -0.02  -0.27
  12   6    -0.05  -0.03  -0.05     0.06   0.05   0.40     0.03   0.01   0.26
  13   6    -0.07   0.04  -0.07    -0.01  -0.03  -0.22    -0.01   0.01  -0.01
  14   6    -0.08   0.01  -0.07     0.04   0.01   0.19     0.03   0.03   0.32
  15   6    -0.06   0.02   0.07     0.05   0.02   0.25    -0.02  -0.00  -0.05
  16   6    -0.08  -0.01   0.10     0.03   0.01   0.05    -0.04  -0.02  -0.20
  17   6    -0.13  -0.02  -0.02    -0.00  -0.02  -0.29    -0.02   0.00   0.07
  18   6    -0.14  -0.02  -0.06     0.04   0.01   0.04    -0.00   0.01   0.19
  19   6    -0.11   0.02   0.05     0.06   0.02   0.25    -0.03  -0.01  -0.11
  20   6    -0.05   0.03   0.07     0.03   0.00   0.10    -0.02  -0.01  -0.12
  21   1     0.04   0.01   0.03     0.00   0.00   0.02     0.02   0.02   0.04
  22   1    -0.06  -0.08   0.10    -0.01  -0.04   0.01    -0.02  -0.06   0.03
  23   1     0.09   0.02   0.21     0.01  -0.02   0.03     0.03   0.00   0.08
  24   1     0.15   0.13  -0.03    -0.02  -0.00  -0.02     0.01   0.03  -0.01
  25   1     0.19  -0.03  -0.01    -0.02   0.00  -0.01     0.01   0.01  -0.02
  26   1     0.04  -0.02  -0.04    -0.02  -0.00  -0.01     0.01  -0.02  -0.05
  27   1     0.13  -0.07   0.05    -0.04   0.00  -0.00     0.03  -0.04   0.01
  28   1    -0.03   0.02   0.00    -0.00  -0.01  -0.09     0.00   0.01   0.05
  29   1    -0.02   0.00   0.05     0.02   0.01   0.12    -0.02  -0.01  -0.13
  30   1    -0.02   0.01   0.06     0.02   0.01   0.09    -0.03  -0.01  -0.15
  31   1    -0.02  -0.01  -0.00     0.04   0.02   0.26     0.01   0.00   0.09
  32   1    -0.02   0.01  -0.05    -0.01  -0.01  -0.10     0.00   0.01   0.04
  33   1    -0.03  -0.00  -0.06     0.02   0.01   0.11     0.03   0.02   0.23
  34   1    -0.01  -0.01   0.04     0.00   0.00  -0.00    -0.02  -0.01  -0.11
  35   1    -0.04  -0.01  -0.02    -0.01  -0.02  -0.20    -0.00   0.00   0.05
  36   1    -0.05  -0.01  -0.05     0.01   0.00  -0.01     0.01   0.01   0.14
                     13                     14                     15
                        a                      a                      a 
 Frequencies --   356.1572               380.3773               388.3360
 Red. masses --    10.6778                10.3920                 9.7669
 Frc consts  --     0.0000                 0.0000                 0.0000
 IR Inten    --     7.9300                 1.6661                 0.2982
 Raman Activ --     0.0000                 0.0000                 0.0000
 Depolar     --     0.0000                 0.0000                 0.0000
 Atom AN      X      Y      Z        X      Y      Z        X      Y      Z
   1   7    -0.05  -0.02  -0.15    -0.03   0.00  -0.07    -0.01   0.00   0.01
   2   6    -0.01  -0.13   0.04    -0.08  -0.01  -0.03    -0.04   0.02  -0.03
   3   6     0.33   0.16  -0.01     0.11   0.20  -0.03     0.03   0.02  -0.05
   4   8     0.30   0.13  -0.00    -0.05  -0.19   0.12     0.02  -0.02  -0.06
   5   6     0.23   0.07  -0.01     0.06  -0.30   0.02     0.08  -0.04   0.24
   6   6     0.07  -0.12   0.01     0.12  -0.09   0.01     0.03  -0.05  -0.04
   7   6    -0.06  -0.15   0.02     0.02  -0.08   0.04    -0.04  -0.08  -0.28
   8   6    -0.09  -0.22   0.02     0.01   0.03  -0.05     0.03  -0.00   0.30
   9   6    -0.01  -0.09  -0.03     0.02   0.10  -0.06     0.02   0.02   0.09
  10   6     0.01  -0.08  -0.03     0.06   0.10  -0.04     0.04   0.02   0.03
  11   6     0.13   0.07   0.03    -0.02  -0.12   0.11    -0.02  -0.05  -0.36
  12   6     0.17   0.06   0.01     0.09  -0.32   0.00     0.09  -0.04   0.23
  13   6    -0.12   0.05  -0.04     0.07   0.13  -0.10     0.06   0.07   0.29
  14   6    -0.15   0.04   0.06     0.14   0.19   0.02    -0.00   0.04  -0.20
  15   6    -0.23   0.04   0.06     0.12   0.17   0.03    -0.04   0.02  -0.28
  16   6    -0.21   0.18   0.01    -0.01  -0.11  -0.00    -0.02   0.02   0.15
  17   6    -0.14   0.20  -0.03    -0.23  -0.14   0.01    -0.07   0.01   0.07
  18   6    -0.02   0.03   0.03    -0.28   0.01   0.09    -0.10  -0.01  -0.21
  19   6    -0.10  -0.16   0.03    -0.13   0.22  -0.02    -0.03   0.04   0.15
  20   6    -0.10  -0.14   0.00     0.05   0.22  -0.05    -0.01   0.03  -0.03
  21   1    -0.03  -0.04  -0.05    -0.01   0.00  -0.00     0.00   0.01   0.02
  22   1     0.02   0.07  -0.03     0.02   0.02  -0.02     0.00  -0.02  -0.00
  23   1    -0.05  -0.01  -0.11    -0.02  -0.00  -0.05     0.00   0.00   0.01
  24   1    -0.02  -0.09   0.09    -0.04  -0.05   0.03    -0.02  -0.01   0.01
  25   1    -0.09   0.01  -0.03    -0.09   0.03  -0.04    -0.03   0.02  -0.02
  26   1     0.12   0.10   0.10    -0.01   0.16   0.09     0.00   0.01  -0.01
  27   1     0.13   0.11  -0.09     0.12   0.11  -0.09     0.01   0.00  -0.01
  28   1    -0.03  -0.02   0.01    -0.00  -0.01   0.02    -0.03  -0.02  -0.16
  29   1    -0.03  -0.06   0.00     0.07   0.01  -0.03     0.03   0.01   0.15
  30   1     0.07   0.02   0.02    -0.07  -0.04   0.07    -0.04  -0.03  -0.23
  31   1     0.04   0.01  -0.01     0.02  -0.09  -0.02     0.02  -0.02   0.07
  32   1    -0.06   0.01  -0.02     0.00   0.03  -0.05     0.02   0.03   0.20
  33   1    -0.03  -0.01   0.03     0.04   0.07   0.01     0.00   0.01  -0.06
  34   1    -0.07   0.07  -0.00     0.04  -0.09  -0.01     0.01   0.00   0.14
  35   1    -0.03   0.08  -0.02    -0.08  -0.08  -0.01    -0.02   0.00   0.05
  36   1     0.05   0.01   0.01    -0.13   0.00   0.05    -0.04  -0.01  -0.14
                     16                     17                     18
                        a                      a                      a 
 Frequencies --   412.3021               453.5893               455.2398
 Red. masses --    10.6937                10.1463                 9.9393
 Frc consts  --     0.0000                 0.0000                 0.0000
 IR Inten    --     1.2351                 0.4303                 0.9254
 Raman Activ --     0.0000                 0.0000                 0.0000
 Depolar     --     0.0000                 0.0000                 0.0000
 Atom AN      X      Y      Z        X      Y      Z        X      Y      Z
   1   7    -0.02  -0.00  -0.07     0.01   0.01  -0.04    -0.01  -0.04  -0.11
   2   6    -0.01  -0.03  -0.01     0.05  -0.04   0.04     0.10  -0.14   0.09
   3   6     0.24   0.19  -0.03     0.05   0.01   0.05     0.13   0.15   0.14
   4   8     0.16   0.02   0.00    -0.03  -0.08  -0.08    -0.04  -0.07  -0.13
   5   6     0.07   0.06   0.05    -0.06   0.05   0.25    -0.12   0.04  -0.11
   6   6     0.08   0.08  -0.00    -0.06   0.06   0.27    -0.14   0.02  -0.10
   7   6     0.16   0.09  -0.08    -0.18   0.03  -0.19    -0.23   0.06   0.09
   8   6     0.15   0.07   0.02    -0.11   0.12   0.11    -0.17   0.18  -0.01
   9   6     0.01   0.10  -0.02    -0.00  -0.10  -0.04     0.03  -0.16   0.08
  10   6    -0.31   0.09   0.03     0.03  -0.12   0.11    -0.03  -0.24  -0.05
  11   6    -0.34   0.13   0.03     0.05  -0.09   0.12     0.01  -0.17  -0.07
  12   6    -0.25   0.05   0.07    -0.08   0.02  -0.18    -0.08   0.06   0.17
  13   6    -0.25  -0.06   0.03    -0.01  -0.13  -0.10    -0.05  -0.21   0.07
  14   6    -0.23  -0.10   0.04     0.06  -0.01   0.07     0.05   0.00  -0.01
  15   6     0.08  -0.10  -0.02     0.09  -0.01  -0.08     0.19   0.03  -0.04
  16   6     0.08  -0.22   0.04     0.16   0.09   0.22     0.21   0.06  -0.18
  17   6     0.13  -0.24  -0.02     0.00   0.04  -0.30     0.07   0.07   0.17
  18   6     0.08  -0.16   0.00     0.02   0.12   0.16    -0.04   0.12  -0.13
  19   6     0.15   0.01   0.01    -0.03   0.04   0.09    -0.06   0.08  -0.05
  20   6     0.03   0.01  -0.05     0.00  -0.03  -0.41     0.15   0.07   0.18
  21   1    -0.01  -0.01  -0.02    -0.01  -0.01  -0.03    -0.02  -0.04  -0.09
  22   1     0.01   0.03  -0.02    -0.00   0.04  -0.00    -0.01   0.09  -0.00
  23   1    -0.03  -0.00  -0.05    -0.01  -0.00  -0.03    -0.03  -0.02  -0.08
  24   1    -0.02  -0.06   0.06     0.02   0.00   0.00     0.04  -0.02   0.01
  25   1    -0.08   0.02  -0.05     0.03  -0.02   0.01     0.05  -0.05   0.03
  26   1     0.06   0.13   0.08    -0.00   0.05   0.06     0.02   0.15   0.17
  27   1     0.13   0.10  -0.08     0.07   0.03  -0.02     0.14   0.11  -0.06
  28   1     0.05   0.01  -0.04    -0.06  -0.01  -0.15    -0.05   0.01   0.07
  29   1     0.03   0.02   0.01    -0.04   0.03   0.02    -0.04   0.05   0.01
  30   1    -0.10   0.04  -0.01     0.03  -0.03  -0.02     0.05  -0.04  -0.02
  31   1    -0.09  -0.02  -0.01    -0.02   0.03  -0.19     0.01   0.07   0.10
  32   1    -0.03  -0.01   0.01    -0.02  -0.04  -0.05    -0.05  -0.06   0.05
  33   1    -0.09   0.02   0.02     0.01   0.02   0.05    -0.02   0.05   0.00
  34   1     0.03  -0.07   0.03     0.06   0.04   0.19     0.06  -0.00  -0.11
  35   1     0.04  -0.07  -0.01    -0.02  -0.02  -0.15     0.01  -0.02   0.11
  36   1    -0.02  -0.05   0.01     0.03   0.04   0.12    -0.01   0.03  -0.08
                     19                     20                     21
                        a                      a                      a 
 Frequencies --   469.3810               475.5144               491.8721
 Red. masses --    10.0081                 9.8957                10.7365
 Frc consts  --     0.0000                 0.0000                 0.0000
 IR Inten    --     3.8871                 0.5003                 1.1804
 Raman Activ --     0.0000                 0.0000                 0.0000
 Depolar     --     0.0000                 0.0000                 0.0000
 Atom AN      X      Y      Z        X      Y      Z        X      Y      Z
   1   7    -0.00   0.03   0.10    -0.00  -0.00  -0.02    -0.01   0.04   0.07
   2   6    -0.09   0.12  -0.08     0.01  -0.02   0.01    -0.12   0.14  -0.11
   3   6    -0.01  -0.13  -0.16     0.03   0.04   0.01     0.08  -0.01  -0.20
   4   8     0.20   0.23   0.11    -0.03  -0.09  -0.04     0.07  -0.21   0.20
   5   6     0.16   0.12  -0.02    -0.04  -0.03   0.05    -0.04  -0.05   0.03
   6   6     0.05  -0.13   0.01     0.00   0.06   0.10     0.09   0.26  -0.10
   7   6    -0.10  -0.14   0.09     0.02   0.08   0.23    -0.10   0.32  -0.02
   8   6    -0.03   0.03  -0.08    -0.07  -0.02  -0.29    -0.23   0.05   0.04
   9   6     0.07  -0.20  -0.10    -0.05   0.01  -0.36     0.24   0.00  -0.02
  10   6    -0.11  -0.25   0.02    -0.01   0.02  -0.25     0.10  -0.02   0.03
  11   6     0.02  -0.02   0.01    -0.01  -0.02   0.01    -0.02  -0.26   0.01
  12   6    -0.01   0.09  -0.06    -0.02  -0.03   0.01    -0.12  -0.11   0.04
  13   6    -0.23  -0.11   0.12     0.10   0.04   0.30    -0.04   0.16  -0.02
  14   6    -0.10   0.19  -0.09    -0.02  -0.09  -0.30    -0.08   0.08   0.01
  15   6     0.21   0.18  -0.01    -0.03  -0.05  -0.00     0.01   0.04   0.04
  16   6     0.14  -0.02   0.04     0.03   0.04   0.20     0.01   0.09  -0.04
  17   6    -0.13  -0.08  -0.04     0.02   0.02  -0.16    -0.02   0.08   0.02
  18   6    -0.13  -0.04   0.06     0.05   0.04   0.07     0.10  -0.16   0.00
  19   6    -0.03   0.10   0.05     0.04  -0.00   0.33     0.01  -0.27  -0.03
  20   6     0.21   0.09  -0.00    -0.02  -0.02   0.17     0.15  -0.20   0.01
  21   1     0.02   0.03   0.08    -0.00  -0.00  -0.01     0.01   0.03   0.09
  22   1     0.01  -0.08   0.00    -0.00   0.01  -0.00     0.02  -0.08  -0.01
  23   1     0.01   0.02   0.07    -0.00  -0.00  -0.01     0.01   0.02   0.06
  24   1    -0.04  -0.00   0.02     0.00  -0.01   0.00    -0.06  -0.03   0.06
  25   1    -0.07   0.06  -0.04     0.00  -0.01  -0.00    -0.13   0.09  -0.08
  26   1     0.04  -0.17  -0.18    -0.01   0.05   0.04    -0.02   0.02  -0.08
  27   1    -0.15  -0.11   0.07     0.05   0.03  -0.03     0.03  -0.01  -0.04
  28   1    -0.02  -0.05   0.04     0.00   0.03   0.05    -0.06   0.15   0.02
  29   1     0.04   0.01  -0.07    -0.06  -0.02  -0.25    -0.16   0.01   0.05
  30   1     0.08   0.00   0.02    -0.01  -0.00   0.09    -0.01  -0.08  -0.01
  31   1    -0.02  -0.01   0.00     0.01   0.01   0.02    -0.01   0.00  -0.00
  32   1    -0.14  -0.03   0.06     0.07   0.02   0.23    -0.02   0.04  -0.03
  33   1    -0.08   0.13  -0.05     0.00  -0.04  -0.11    -0.01   0.01  -0.02
  34   1     0.08  -0.07   0.01    -0.00   0.03   0.05     0.01   0.02  -0.03
  35   1    -0.06  -0.06  -0.04    -0.01  -0.00  -0.16     0.01   0.05   0.01
  36   1    -0.06  -0.01   0.01     0.01   0.00  -0.07     0.10  -0.04  -0.00
                     22                     23                     24
                        a                      a                      a 
 Frequencies --   495.9876               510.1300               551.7724
 Red. masses --    10.7661                 9.6048                10.8315
 Frc consts  --     0.0000                 0.0000                 0.0000
 IR Inten    --     1.1569                 0.0569                 1.3388
 Raman Activ --     0.0000                 0.0000                 0.0000
 Depolar     --     0.0000                 0.0000                 0.0000
 Atom AN      X      Y      Z        X      Y      Z        X      Y      Z
   1   7     0.01  -0.04  -0.07    -0.00  -0.01  -0.02     0.01  -0.04  -0.05
   2   6     0.10  -0.13   0.10     0.02  -0.03   0.02     0.04  -0.08   0.07
   3   6    -0.13   0.04   0.20    -0.00   0.02   0.04    -0.21   0.07   0.19
   4   8    -0.16   0.09  -0.18    -0.03   0.00  -0.09    -0.13   0.23  -0.13
   5   6    -0.08   0.06  -0.01     0.00   0.02   0.14     0.13  -0.08  -0.09
   6   6    -0.01   0.06   0.07    -0.05  -0.03  -0.29     0.24  -0.01  -0.00
   7   6     0.11   0.09  -0.03     0.03   0.00   0.10    -0.06  -0.05   0.03
   8   6     0.12   0.08  -0.03     0.01   0.00  -0.09    -0.19  -0.31   0.04
   9   6     0.09  -0.10   0.00    -0.02  -0.01  -0.04     0.21   0.12   0.02
  10   6     0.08  -0.11  -0.05     0.05   0.02   0.34    -0.08   0.18   0.00
  11   6     0.13  -0.12   0.01    -0.02  -0.02  -0.27    -0.17   0.08  -0.01
  12   6     0.01   0.05  -0.02     0.03   0.02   0.15    -0.01  -0.12   0.02
  13   6    -0.13   0.22   0.00     0.02   0.01   0.14    -0.07   0.15  -0.01
  14   6    -0.08   0.32  -0.01    -0.02  -0.00  -0.19    -0.10  -0.00   0.01
  15   6    -0.08   0.23  -0.07     0.03   0.04   0.35     0.20  -0.02  -0.06
  16   6    -0.24  -0.10   0.07    -0.01  -0.01   0.09     0.31   0.09  -0.01
  17   6    -0.14  -0.15   0.02    -0.03  -0.03  -0.20    -0.02   0.06  -0.05
  18   6     0.06  -0.38   0.02     0.04   0.01   0.27    -0.04   0.04   0.03
  19   6     0.19  -0.09   0.04    -0.02  -0.02  -0.31    -0.16  -0.20   0.04
  20   6     0.12  -0.05  -0.03    -0.02   0.00  -0.09     0.16  -0.10  -0.05
  21   1    -0.01  -0.03  -0.08    -0.00  -0.01  -0.02    -0.01  -0.02  -0.06
  22   1    -0.02   0.08   0.01    -0.01   0.02   0.00    -0.01   0.06   0.01
  23   1    -0.01  -0.02  -0.06    -0.00  -0.01  -0.02    -0.00  -0.03  -0.05
  24   1     0.06   0.04  -0.07     0.01   0.01  -0.01     0.04   0.06  -0.10
  25   1     0.13  -0.09   0.07     0.03  -0.02   0.01     0.12  -0.09   0.07
  26   1    -0.02   0.03   0.11    -0.00   0.02   0.03    -0.01  -0.03   0.05
  27   1    -0.00   0.04   0.02     0.02   0.02  -0.00    -0.10   0.01   0.07
  28   1     0.04  -0.00  -0.04     0.03   0.01   0.20    -0.08   0.07  -0.00
  29   1     0.00   0.02  -0.03     0.02   0.01   0.11    -0.08  -0.09   0.00
  30   1     0.07  -0.03   0.01    -0.02  -0.02  -0.21    -0.10   0.02   0.01
  31   1     0.02   0.05  -0.01     0.01   0.01   0.03    -0.03  -0.10   0.05
  32   1    -0.11   0.06   0.03    -0.01  -0.01  -0.08     0.03   0.05  -0.00
  33   1    -0.02   0.10   0.02    -0.03  -0.02  -0.25    -0.04   0.02   0.01
  34   1    -0.03  -0.08   0.04    -0.01  -0.01  -0.02     0.11  -0.00   0.02
  35   1    -0.00   0.03  -0.01    -0.01  -0.01  -0.13    -0.03  -0.04  -0.01
  36   1     0.01  -0.11   0.00     0.02   0.01   0.18     0.05   0.02   0.02
                     25                     26                     27
                        a                      a                      a 
 Frequencies --   572.9284               641.1963               648.5022
 Red. masses --    10.6375                11.2395                10.8154
 Frc consts  --     0.0000                 0.0000                 0.0000
 IR Inten    --     0.2222                12.4296                 0.3960
 Raman Activ --     0.0000                 0.0000                 0.0000
 Depolar     --     0.0000                 0.0000                 0.0000
 Atom AN      X      Y      Z        X      Y      Z        X      Y      Z
   1   7     0.00   0.00  -0.02    -0.00   0.02   0.01     0.00   0.00  -0.00
   2   6     0.02  -0.02   0.02    -0.00   0.02  -0.03     0.00  -0.00   0.00
   3   6    -0.04  -0.01   0.04     0.08  -0.05  -0.07    -0.01  -0.00   0.01
   4   8    -0.03   0.03  -0.11    -0.04  -0.27   0.07    -0.00   0.01  -0.03
   5   6     0.07   0.04   0.57    -0.18   0.08   0.01     0.02   0.01   0.16
   6   6     0.01  -0.01  -0.07    -0.19  -0.16   0.03    -0.04  -0.03  -0.39
   7   6    -0.02  -0.03  -0.15    -0.18  -0.29   0.06     0.04   0.03   0.22
   8   6    -0.00  -0.03   0.12    -0.08  -0.25   0.03    -0.03  -0.02  -0.24
   9   6    -0.03  -0.02  -0.40    -0.12  -0.02   0.01    -0.01  -0.01  -0.10
  10   6    -0.01   0.02  -0.02    -0.01   0.15  -0.00     0.05   0.03   0.41
  11   6     0.00   0.03   0.15    -0.07   0.28  -0.02    -0.00  -0.01  -0.04
  12   6    -0.04  -0.03  -0.25    -0.11   0.26   0.02     0.00  -0.00   0.03
  13   6    -0.00   0.03   0.02     0.09   0.19  -0.04    -0.03  -0.03  -0.23
  14   6    -0.01   0.01  -0.01     0.19   0.28  -0.04     0.03   0.01   0.23
  15   6     0.06   0.03   0.29     0.13   0.15  -0.04    -0.04  -0.03  -0.32
  16   6     0.01  -0.01  -0.21     0.12  -0.02  -0.01    -0.00   0.00   0.01
  17   6     0.03   0.02   0.23     0.12  -0.06  -0.01    -0.00   0.01   0.05
  18   6    -0.02  -0.02  -0.17     0.14  -0.15  -0.00    -0.01  -0.00  -0.06
  19   6    -0.02  -0.03   0.01     0.02  -0.18   0.02     0.05   0.04   0.43
  20   6     0.03   0.00   0.12     0.05  -0.01  -0.00    -0.01  -0.00  -0.03
  21   1     0.00   0.00  -0.01     0.00   0.01   0.03     0.00   0.00  -0.00
  22   1    -0.00   0.02   0.00     0.00  -0.03  -0.00    -0.00   0.00   0.00
  23   1     0.00  -0.00  -0.01     0.00   0.01   0.02     0.00  -0.00  -0.00
  24   1     0.01   0.02  -0.02    -0.01  -0.02   0.05     0.00   0.00  -0.00
  25   1     0.04  -0.03   0.01    -0.04   0.03  -0.02     0.01  -0.01   0.00
  26   1    -0.01  -0.01   0.01    -0.04   0.08   0.03    -0.00  -0.00  -0.00
  27   1    -0.01  -0.00   0.01     0.11   0.02  -0.07     0.00  -0.00   0.00
  28   1    -0.01   0.01   0.01    -0.04  -0.10   0.02     0.02   0.02   0.12
  29   1     0.01  -0.00   0.11    -0.01  -0.07   0.01    -0.01  -0.01  -0.11
  30   1    -0.01   0.01   0.02    -0.01   0.08  -0.01    -0.02  -0.01  -0.16
  31   1    -0.03  -0.02  -0.19    -0.03   0.10  -0.02    -0.01  -0.01  -0.09
  32   1     0.00   0.01  -0.02     0.01   0.06  -0.01    -0.01  -0.01  -0.11
  33   1    -0.01  -0.00  -0.07     0.05   0.09  -0.01     0.01   0.01   0.11
  34   1    -0.01  -0.02  -0.21     0.06  -0.04  -0.00     0.01   0.00   0.05
  35   1     0.00   0.00   0.06     0.04  -0.00  -0.01    -0.00  -0.00  -0.01
  36   1    -0.01  -0.01  -0.14     0.08  -0.04  -0.01    -0.02  -0.01  -0.14
                     28                     29                     30
                        a                      a                      a 
 Frequencies --   674.4677               678.6780               692.7565
 Red. masses --    11.3359                10.8537                10.9674
 Frc consts  --     0.0000                 0.0000                 0.0000
 IR Inten    --     0.3202                 6.1471                17.7603
 Raman Activ --     0.0000                 0.0000                 0.0000
 Depolar     --     0.0000                 0.0000                 0.0000
 Atom AN      X      Y      Z        X      Y      Z        X      Y      Z
   1   7    -0.00   0.00   0.00     0.00   0.00  -0.01     0.01  -0.03  -0.00
   2   6    -0.01   0.00  -0.00     0.00  -0.00   0.00     0.05  -0.02   0.03
   3   6    -0.03  -0.03  -0.00    -0.00  -0.00   0.00     0.09   0.08   0.02
   4   8    -0.03  -0.06   0.01     0.01   0.01  -0.03     0.13   0.37  -0.08
   5   6     0.08  -0.14  -0.01     0.05   0.02   0.34     0.13  -0.02  -0.03
   6   6    -0.05  -0.06   0.03    -0.05  -0.04  -0.36    -0.03  -0.09   0.03
   7   6    -0.32  -0.02   0.04    -0.03  -0.01  -0.01    -0.29  -0.09   0.05
   8   6    -0.18   0.27  -0.00    -0.02   0.01  -0.06    -0.13   0.18   0.00
   9   6    -0.08   0.02  -0.01     0.03   0.03   0.32    -0.08  -0.00  -0.00
  10   6     0.01   0.05   0.01    -0.04  -0.02  -0.30    -0.01   0.06   0.01
  11   6     0.18   0.16  -0.04     0.02   0.01   0.18    -0.24  -0.21   0.04
  12   6     0.43  -0.16  -0.03    -0.02  -0.03  -0.21    -0.21  -0.23   0.04
  13   6    -0.20   0.21   0.01    -0.00   0.01  -0.03     0.20   0.01  -0.03
  14   6    -0.31   0.00   0.04    -0.00   0.00  -0.02     0.29   0.12  -0.05
  15   6    -0.02  -0.05   0.02    -0.04  -0.03  -0.30    -0.09   0.07   0.02
  16   6     0.05  -0.15  -0.00     0.02   0.01   0.17    -0.18  -0.05   0.02
  17   6     0.36  -0.18  -0.02     0.00  -0.03  -0.18     0.18  -0.04  -0.01
  18   6     0.16   0.03  -0.03     0.04   0.01   0.16     0.18  -0.09  -0.03
  19   6     0.05   0.06   0.00    -0.02  -0.02  -0.24     0.09  -0.01   0.01
  20   6    -0.06   0.03  -0.01     0.04   0.03   0.34    -0.06   0.03  -0.01
  21   1     0.00   0.01   0.01     0.00   0.00  -0.00    -0.02  -0.04  -0.04
  22   1     0.00  -0.01  -0.00     0.00   0.00  -0.00    -0.00   0.04   0.01
  23   1     0.00  -0.00   0.00    -0.00   0.00  -0.00    -0.02   0.00  -0.02
  24   1     0.00   0.01  -0.01     0.00   0.00   0.00     0.00  -0.04   0.02
  25   1     0.01  -0.00   0.01     0.00  -0.00   0.00    -0.02   0.01  -0.02
  26   1    -0.01  -0.01  -0.00     0.00  -0.00  -0.00     0.10  -0.11  -0.08
  27   1    -0.00  -0.01  -0.00    -0.00  -0.00   0.00    -0.11  -0.03   0.09
  28   1    -0.08  -0.01   0.01     0.01   0.02   0.16    -0.07  -0.04   0.01
  29   1    -0.05   0.07  -0.01     0.01   0.02   0.14    -0.03   0.05  -0.01
  30   1     0.01   0.04  -0.01     0.00   0.00   0.05    -0.14  -0.06   0.03
  31   1     0.11  -0.07  -0.01    -0.00  -0.01  -0.03    -0.09  -0.13   0.04
  32   1    -0.06   0.06  -0.00     0.02   0.02   0.13     0.05   0.00  -0.02
  33   1    -0.09   0.01   0.01     0.02   0.01   0.13     0.10   0.00  -0.02
  34   1    -0.01  -0.00  -0.00     0.01   0.01   0.10    -0.07   0.02   0.01
  35   1     0.10  -0.05  -0.01     0.01  -0.00  -0.01     0.08   0.06  -0.01
  36   1    -0.00   0.00  -0.01     0.01   0.01   0.09     0.05  -0.03  -0.01
                     31                     32                     33
                        a                      a                      a 
 Frequencies --   734.5087               751.7879               756.5046
 Red. masses --    11.0150                 9.5244                 5.2426
 Frc consts  --     0.0000                 0.0000                 0.0000
 IR Inten    --     4.2238                 0.8776                 4.0331
 Raman Activ --     0.0000                 0.0000                 0.0000
 Depolar     --     0.0000                 0.0000                 0.0000
 Atom AN      X      Y      Z        X      Y      Z        X      Y      Z
   1   7     0.01  -0.00   0.01     0.00   0.00  -0.00    -0.00  -0.00  -0.01
   2   6     0.04  -0.01   0.01    -0.00  -0.00  -0.00    -0.00  -0.00  -0.00
   3   6     0.07  -0.00  -0.03    -0.00  -0.00  -0.00     0.01   0.01  -0.01
   4   8     0.05   0.12  -0.02     0.00  -0.00   0.01     0.00  -0.02  -0.02
   5   6    -0.11   0.14  -0.01     0.01   0.00   0.05     0.02   0.01   0.19
   6   6    -0.06   0.01   0.01    -0.02  -0.02  -0.18    -0.03  -0.02  -0.21
   7   6     0.09  -0.08   0.00     0.01   0.01   0.06     0.02   0.02   0.16
   8   6     0.05  -0.23   0.02    -0.02  -0.01  -0.14     0.00   0.00   0.03
   9   6    -0.02   0.00   0.01     0.06   0.04   0.44     0.02   0.02   0.18
  10   6     0.19  -0.02  -0.02    -0.03  -0.02  -0.23    -0.02  -0.01  -0.13
  11   6     0.10  -0.43   0.02     0.01   0.01   0.09    -0.00   0.00  -0.06
  12   6    -0.23   0.09   0.02    -0.01  -0.00  -0.06    -0.02  -0.01  -0.17
  13   6    -0.02   0.42  -0.03     0.01   0.00   0.07     0.02   0.02   0.18
  14   6    -0.18   0.03   0.02    -0.02  -0.01  -0.16     0.01   0.01   0.07
  15   6    -0.02  -0.09   0.02     0.03   0.02   0.26     0.02   0.01   0.12
  16   6     0.09  -0.16   0.00     0.00   0.00   0.01    -0.02  -0.02  -0.19
  17   6     0.25  -0.17  -0.02     0.02   0.02   0.18    -0.01  -0.01  -0.06
  18   6    -0.07   0.30  -0.02     0.00   0.00   0.01    -0.03  -0.02  -0.20
  19   6    -0.13   0.09   0.01     0.03   0.02   0.23     0.02   0.01   0.17
  20   6    -0.10   0.01   0.01    -0.06  -0.05  -0.51    -0.02  -0.02  -0.17
  21   1    -0.01  -0.03  -0.02     0.00   0.00   0.00    -0.00  -0.00   0.00
  22   1    -0.00   0.01   0.01    -0.00  -0.00  -0.00    -0.00  -0.00  -0.00
  23   1    -0.01   0.02   0.01     0.00   0.00   0.00    -0.00   0.00   0.00
  24   1    -0.00  -0.04   0.04    -0.00  -0.00   0.00    -0.00  -0.01   0.00
  25   1    -0.03   0.02  -0.01     0.00   0.00   0.00    -0.00   0.01   0.01
  26   1     0.03  -0.03  -0.03    -0.00   0.00   0.00    -0.00   0.01   0.01
  27   1    -0.01  -0.01   0.01     0.00   0.00  -0.00     0.01   0.01  -0.01
  28   1     0.02  -0.02  -0.01     0.01   0.01   0.06    -0.02  -0.02  -0.18
  29   1     0.05  -0.06  -0.00     0.01   0.01   0.09    -0.03  -0.02  -0.22
  30   1     0.07  -0.12  -0.00    -0.00  -0.00  -0.03     0.03   0.02   0.22
  31   1    -0.02   0.12  -0.01     0.00   0.00   0.03     0.03   0.02   0.25
  32   1    -0.02   0.12  -0.01     0.01   0.01   0.09    -0.03  -0.02  -0.25
  33   1    -0.02  -0.04   0.00     0.01   0.01   0.10    -0.04  -0.02  -0.27
  34   1     0.01  -0.01   0.00    -0.03  -0.02  -0.26     0.04   0.03   0.32
  35   1     0.03  -0.12   0.01    -0.03  -0.02  -0.24     0.04   0.02   0.28
  36   1    -0.10   0.08   0.01    -0.03  -0.02  -0.26     0.04   0.03   0.31
                     34                     35                     36
                        a                      a                      a 
 Frequencies --   797.0667               798.0352               805.9844
 Red. masses --     4.4870                 4.3265                 9.9256
 Frc consts  --     0.0000                 0.0000                 0.0000
 IR Inten    --    20.3397                18.8489                 7.2668
 Raman Activ --     0.0000                 0.0000                 0.0000
 Depolar     --     0.0000                 0.0000                 0.0000
 Atom AN      X      Y      Z        X      Y      Z        X      Y      Z
   1   7     0.11  -0.04   0.02    -0.09   0.04  -0.01     0.04  -0.02   0.00
   2   6     0.20  -0.01   0.02    -0.16   0.00  -0.01     0.06   0.00   0.00
   3   6     0.07   0.04  -0.01    -0.07  -0.06   0.01    -0.01   0.03   0.01
   4   8    -0.15   0.08  -0.03     0.12  -0.03   0.04    -0.06  -0.01  -0.01
   5   6    -0.10  -0.04  -0.04     0.07   0.02  -0.08     0.00  -0.05   0.01
   6   6    -0.10  -0.01  -0.07     0.07  -0.01  -0.11     0.04   0.16  -0.01
   7   6     0.04   0.02   0.06    -0.02   0.00   0.08     0.18   0.25  -0.05
   8   6     0.04   0.04   0.02    -0.03  -0.03   0.05    -0.11  -0.34   0.04
   9   6    -0.04  -0.00   0.03     0.04   0.01   0.02    -0.07   0.05   0.00
  10   6    -0.00   0.03  -0.09    -0.03  -0.04  -0.09    -0.10  -0.12   0.02
  11   6     0.04   0.05   0.15     0.00  -0.02   0.19     0.03   0.07  -0.01
  12   6     0.09  -0.03   0.14    -0.03   0.03   0.18     0.14  -0.07  -0.01
  13   6    -0.01   0.04  -0.05    -0.00  -0.05  -0.05    -0.09  -0.30   0.04
  14   6    -0.07  -0.06  -0.09     0.04   0.04  -0.13     0.21   0.29  -0.05
  15   6     0.07  -0.01   0.13    -0.02   0.04   0.17    -0.04   0.15  -0.01
  16   6     0.10   0.06  -0.10    -0.11  -0.06  -0.08    -0.14  -0.15   0.03
  17   6    -0.12   0.05  -0.03     0.09  -0.05  -0.06     0.28  -0.14  -0.02
  18   6    -0.03  -0.10  -0.08     0.01   0.06  -0.12     0.04   0.20  -0.02
  19   6     0.03  -0.02   0.03    -0.02   0.02   0.03    -0.14  -0.07   0.02
  20   6     0.01  -0.02  -0.01    -0.01   0.02  -0.01    -0.11   0.06   0.01
  21   1    -0.11  -0.27  -0.17     0.10   0.24   0.14    -0.04  -0.10  -0.06
  22   1    -0.07   0.10   0.07     0.06  -0.07  -0.05    -0.03   0.03   0.02
  23   1    -0.11   0.17   0.09     0.09  -0.15  -0.08    -0.04   0.06   0.04
  24   1    -0.06  -0.27   0.13     0.06   0.24  -0.11    -0.03  -0.09   0.03
  25   1    -0.20   0.18  -0.04     0.17  -0.18   0.01    -0.06   0.07  -0.00
  26   1    -0.02  -0.07  -0.15     0.01   0.03   0.10    -0.01  -0.01  -0.04
  27   1    -0.06  -0.06   0.10     0.05   0.04  -0.07    -0.02  -0.02   0.04
  28   1     0.02  -0.03  -0.07    -0.03   0.01  -0.09    -0.02   0.18  -0.01
  29   1    -0.01   0.00  -0.09    -0.02  -0.02  -0.12    -0.14  -0.10   0.04
  30   1    -0.05  -0.01  -0.28    -0.03  -0.03  -0.32     0.02   0.02  -0.00
  31   1    -0.02  -0.04  -0.31    -0.06  -0.02  -0.36     0.03  -0.04  -0.00
  32   1     0.04   0.03   0.16     0.01   0.00   0.20    -0.16  -0.09   0.02
  33   1    -0.00  -0.01   0.11     0.03   0.03   0.13    -0.01   0.17  -0.02
  34   1     0.06   0.00   0.11    -0.02   0.02   0.14    -0.06  -0.01   0.01
  35   1    -0.02   0.01   0.14     0.05   0.01   0.15     0.08  -0.04  -0.01
  36   1     0.04  -0.01   0.18     0.01   0.04   0.21    -0.03   0.05  -0.00
                     37                     38                     39
                        a                      a                      a 
 Frequencies --   818.9887               833.2361               864.0903
 Red. masses --     4.6288                 4.8918                 8.3818
 Frc consts  --     0.0000                 0.0000                 0.0000
 IR Inten    --     3.7478                54.9422                 1.3984
 Raman Activ --     0.0000                 0.0000                 0.0000
 Depolar     --     0.0000                 0.0000                 0.0000
 Atom AN      X      Y      Z        X      Y      Z        X      Y      Z
   1   7    -0.00   0.00   0.01    -0.00  -0.00  -0.01    -0.10  -0.04   0.07
   2   6     0.00  -0.00   0.00    -0.00  -0.00  -0.00     0.00  -0.04   0.07
   3   6    -0.00  -0.00  -0.00     0.00   0.01  -0.00     0.24   0.02  -0.12
   4   8    -0.00   0.00   0.01     0.00  -0.02  -0.01     0.00   0.18   0.01
   5   6    -0.01  -0.01  -0.10     0.01   0.00   0.04    -0.13  -0.02   0.03
   6   6     0.03   0.01   0.16     0.01   0.01   0.08    -0.31   0.06   0.03
   7   6    -0.03  -0.03  -0.25    -0.02  -0.01  -0.11     0.16   0.16  -0.03
   8   6    -0.03  -0.03  -0.29    -0.01  -0.01  -0.11     0.03  -0.07  -0.01
   9   6     0.01   0.00   0.01     0.00  -0.00  -0.02    -0.31   0.02   0.05
  10   6    -0.02  -0.01  -0.15     0.04   0.02   0.25    -0.01   0.03   0.01
  11   6     0.01   0.00   0.06    -0.02  -0.01  -0.15     0.03  -0.06  -0.05
  12   6     0.01   0.01   0.09    -0.03  -0.00  -0.16     0.17  -0.19   0.02
  13   6     0.02   0.01   0.12    -0.03  -0.02  -0.24    -0.02   0.02  -0.00
  14   6     0.01   0.00   0.09    -0.03  -0.02  -0.24     0.01   0.07  -0.02
  15   6    -0.00  -0.00  -0.01     0.02   0.02   0.19     0.10  -0.00  -0.01
  16   6    -0.02  -0.01  -0.15    -0.01  -0.01  -0.08     0.28   0.09  -0.03
  17   6    -0.01  -0.00  -0.04    -0.00  -0.01  -0.05    -0.11   0.03   0.01
  18   6    -0.01  -0.00  -0.04    -0.02  -0.01  -0.15    -0.01  -0.15  -0.00
  19   6     0.03   0.03   0.24     0.02   0.02   0.13     0.01  -0.10   0.01
  20   6     0.00  -0.00  -0.01     0.00  -0.00  -0.01    -0.16   0.01   0.02
  21   1     0.00   0.01   0.00    -0.00  -0.01  -0.00     0.09   0.22   0.07
  22   1     0.00   0.01   0.00    -0.00  -0.01  -0.00     0.09   0.09   0.00
  23   1     0.00  -0.01  -0.01    -0.00   0.01   0.01     0.06  -0.23  -0.21
  24   1     0.00   0.01  -0.00    -0.01  -0.01  -0.00     0.08   0.14   0.09
  25   1     0.00  -0.01  -0.01    -0.00   0.01   0.02     0.05  -0.14  -0.11
  26   1    -0.00  -0.01  -0.01    -0.00   0.01   0.01     0.09  -0.08  -0.12
  27   1    -0.00  -0.00   0.00     0.00   0.01  -0.01    -0.04  -0.04   0.04
  28   1     0.06   0.05   0.49     0.02   0.02   0.19     0.07   0.00  -0.01
  29   1     0.06   0.04   0.45     0.02   0.02   0.16    -0.09  -0.02   0.03
  30   1    -0.01  -0.01  -0.06     0.03   0.02   0.21    -0.06  -0.01   0.11
  31   1    -0.02  -0.01  -0.17     0.04   0.03   0.32     0.04  -0.06  -0.04
  32   1    -0.02  -0.02  -0.18     0.05   0.04   0.41    -0.04   0.01   0.01
  33   1    -0.03  -0.02  -0.21     0.05   0.03   0.40    -0.02   0.05   0.01
  34   1     0.03   0.03   0.28     0.01   0.01   0.11     0.11  -0.03  -0.04
  35   1     0.02   0.01   0.13     0.02   0.01   0.15    -0.05  -0.04   0.01
  36   1     0.00   0.00   0.03     0.03   0.02   0.25     0.04  -0.04   0.02
                     40                     41                     42
                        a                      a                      a 
 Frequencies --   878.1355               881.9982               891.4034
 Red. masses --     4.1124                 3.7036                 7.6045
 Frc consts  --     0.0000                 0.0000                 0.0000
 IR Inten    --     0.4925                 1.0075                13.4706
 Raman Activ --     0.0000                 0.0000                 0.0000
 Depolar     --     0.0000                 0.0000                 0.0000
 Atom AN      X      Y      Z        X      Y      Z        X      Y      Z
   1   7     0.01  -0.00   0.01    -0.00  -0.03  -0.01    -0.12  -0.32  -0.23
   2   6     0.01   0.00  -0.00     0.01   0.03  -0.01    -0.02   0.32  -0.01
   3   6    -0.03   0.00   0.01    -0.01   0.03   0.05     0.15   0.25   0.35
   4   8    -0.01  -0.02   0.01    -0.02  -0.04  -0.00    -0.04  -0.18  -0.00
   5   6     0.01   0.00   0.00     0.01   0.00   0.05    -0.00  -0.03   0.00
   6   6     0.03  -0.01  -0.04     0.03  -0.02  -0.09     0.03   0.00   0.01
   7   6    -0.03  -0.02  -0.05    -0.01  -0.02   0.06    -0.02  -0.02   0.00
   8   6    -0.00   0.00  -0.01    -0.00   0.01   0.00    -0.00   0.01  -0.00
   9   6     0.05   0.00   0.04     0.06  -0.00   0.06     0.06  -0.02  -0.01
  10   6    -0.00  -0.01  -0.02     0.01  -0.00   0.02     0.02  -0.03  -0.00
  11   6    -0.02  -0.00  -0.15    -0.04  -0.00  -0.30     0.03   0.07   0.04
  12   6     0.00   0.04   0.15     0.01   0.05   0.21    -0.04   0.10  -0.05
  13   6     0.01   0.00   0.07    -0.00  -0.00  -0.03    -0.00   0.01  -0.00
  14   6    -0.00  -0.01   0.01    -0.01  -0.02  -0.06    -0.01  -0.01   0.01
  15   6    -0.02  -0.01  -0.10    -0.01   0.01   0.07    -0.02   0.00  -0.00
  16   6     0.00   0.02   0.32    -0.07  -0.03  -0.16    -0.04  -0.02   0.02
  17   6     0.01  -0.00   0.01     0.02  -0.00   0.00     0.02  -0.01  -0.00
  18   6    -0.04  -0.01  -0.31     0.02   0.04   0.16    -0.01   0.04  -0.02
  19   6     0.01   0.02   0.10    -0.01   0.01  -0.05    -0.00   0.02   0.00
  20   6     0.02  -0.00  -0.01     0.03  -0.01  -0.01     0.04  -0.01  -0.00
  21   1    -0.01  -0.01  -0.02    -0.00  -0.01  -0.02     0.04   0.05  -0.01
  22   1    -0.00   0.03   0.01     0.00   0.02   0.01     0.04  -0.08  -0.08
  23   1    -0.01  -0.00  -0.01    -0.00  -0.02  -0.03     0.02  -0.19  -0.16
  24   1    -0.00  -0.01  -0.00    -0.00   0.00  -0.00    -0.01   0.07   0.00
  25   1    -0.01  -0.00  -0.02    -0.02  -0.01  -0.05    -0.07   0.02  -0.19
  26   1    -0.02  -0.00  -0.02    -0.02  -0.02  -0.05    -0.04  -0.09  -0.23
  27   1     0.00  -0.01   0.02     0.01  -0.04   0.07     0.02  -0.20   0.43
  28   1     0.01   0.01   0.12    -0.02  -0.01  -0.10    -0.00  -0.00   0.01
  29   1     0.01   0.00  -0.01     0.02   0.00   0.01     0.02   0.00   0.00
  30   1     0.05   0.03   0.29     0.09   0.05   0.58     0.04   0.02  -0.10
  31   1    -0.04  -0.01  -0.30    -0.07  -0.03  -0.46    -0.01   0.01   0.09
  32   1    -0.01  -0.01  -0.14     0.01   0.00   0.04     0.00   0.00   0.00
  33   1     0.00  -0.01   0.02     0.02   0.00   0.10     0.00  -0.02  -0.02
  34   1    -0.08  -0.04  -0.50     0.02   0.03   0.27    -0.02   0.00  -0.02
  35   1     0.00   0.00  -0.03     0.01   0.01  -0.00     0.01  -0.00  -0.00
  36   1     0.06   0.05   0.49    -0.04  -0.02  -0.27    -0.01   0.01   0.02
                     43                     44                     45
                        a                      a                      a 
 Frequencies --   898.9497               904.4529               908.5842
 Red. masses --     6.2111                 3.4387                 3.4793
 Frc consts  --     0.0000                 0.0000                 0.0000
 IR Inten    --    41.9927                 0.2565                 0.3845
 Raman Activ --     0.0000                 0.0000                 0.0000
 Depolar     --     0.0000                 0.0000                 0.0000
 Atom AN      X      Y      Z        X      Y      Z        X      Y      Z
   1   7    -0.01   0.00  -0.33     0.01   0.00   0.02    -0.00  -0.00   0.00
   2   6    -0.09   0.16  -0.09     0.00  -0.01   0.00    -0.00   0.00   0.00
   3   6     0.04  -0.11   0.32    -0.01   0.00  -0.02     0.00   0.00  -0.00
   4   8     0.15   0.09  -0.03    -0.00  -0.01   0.00    -0.00  -0.00   0.00
   5   6     0.00   0.04  -0.01     0.00  -0.00   0.00    -0.00  -0.00  -0.00
   6   6    -0.13   0.01   0.01     0.02  -0.00   0.03     0.00   0.00   0.02
   7   6     0.06   0.07   0.01     0.03   0.02   0.30     0.01   0.01   0.07
   8   6     0.01  -0.02  -0.03    -0.05  -0.02  -0.32    -0.01  -0.00  -0.07
   9   6    -0.18   0.02   0.02     0.01  -0.01  -0.05    -0.01  -0.01  -0.08
  10   6    -0.01   0.02  -0.00     0.00  -0.00   0.00     0.00   0.00   0.02
  11   6     0.00  -0.08  -0.02    -0.00   0.01   0.00     0.00   0.01   0.04
  12   6     0.06  -0.11   0.04    -0.01   0.01   0.00    -0.00   0.00  -0.02
  13   6    -0.00   0.02   0.00    -0.01  -0.01  -0.07     0.04   0.03   0.30
  14   6     0.02   0.04  -0.01     0.01   0.00   0.09    -0.04  -0.03  -0.31
  15   6     0.04  -0.01  -0.01    -0.01  -0.00  -0.01    -0.00  -0.00   0.00
  16   6     0.15   0.05  -0.02    -0.01  -0.00   0.06    -0.00  -0.00   0.00
  17   6    -0.05   0.01   0.00     0.00  -0.00  -0.04    -0.01  -0.01  -0.08
  18   6     0.00  -0.09  -0.00    -0.01   0.01  -0.04     0.00   0.01   0.04
  19   6     0.01  -0.04   0.01    -0.00   0.00   0.00    -0.00   0.00  -0.00
  20   6    -0.11   0.01   0.02     0.02   0.00   0.04     0.01   0.00   0.06
  21   1    -0.03  -0.08   0.11     0.00   0.00  -0.01     0.00   0.00  -0.00
  22   1    -0.07  -0.47  -0.18     0.00   0.03   0.01     0.00   0.01   0.00
  23   1     0.02   0.22   0.31    -0.00  -0.01  -0.02     0.00  -0.01  -0.01
  24   1    -0.04   0.02  -0.11     0.00  -0.00   0.00     0.00   0.00   0.00
  25   1     0.02   0.11   0.14     0.00  -0.01  -0.01     0.00  -0.00  -0.00
  26   1     0.09  -0.01   0.21    -0.01   0.00  -0.01    -0.00   0.00  -0.00
  27   1     0.08   0.02   0.02    -0.00   0.00  -0.01    -0.00  -0.00   0.00
  28   1     0.03  -0.01  -0.04    -0.08  -0.07  -0.57    -0.02  -0.02  -0.13
  29   1    -0.04  -0.00   0.06     0.08   0.06   0.61     0.02   0.01   0.14
  30   1    -0.04  -0.02   0.06     0.00   0.00  -0.00    -0.01  -0.01  -0.08
  31   1     0.01  -0.03  -0.08    -0.00   0.00   0.00     0.00   0.00   0.04
  32   1    -0.02   0.00  -0.01     0.02   0.01   0.13    -0.07  -0.05  -0.58
  33   1    -0.00   0.03   0.00    -0.02  -0.02  -0.15     0.07   0.05   0.59
  34   1     0.06  -0.01  -0.02    -0.02  -0.01  -0.09    -0.00  -0.00  -0.01
  35   1    -0.02  -0.02   0.01     0.01   0.01   0.07     0.02   0.01   0.16
  36   1     0.03  -0.02   0.02     0.01   0.01   0.06    -0.01  -0.01  -0.07
                     46                     47                     48
                        a                      a                      a 
 Frequencies --   922.7611               963.1663               994.2930
 Red. masses --     3.5641                 8.7751                10.0703
 Frc consts  --     0.0000                 0.0000                 0.0000
 IR Inten    --     0.1030               102.0241                 3.0414
 Raman Activ --     0.0000                 0.0000                 0.0000
 Depolar     --     0.0000                 0.0000                 0.0000
 Atom AN      X      Y      Z        X      Y      Z        X      Y      Z
   1   7     0.00   0.00  -0.00     0.15  -0.06   0.15    -0.02  -0.04  -0.03
   2   6    -0.00   0.00  -0.00    -0.25   0.10  -0.09     0.05   0.04   0.04
   3   6     0.00  -0.00   0.00    -0.28   0.17   0.04    -0.01  -0.01  -0.01
   4   8     0.00   0.00   0.00     0.45  -0.21  -0.00    -0.05   0.00   0.00
   5   6    -0.00   0.00   0.00     0.10   0.04  -0.02    -0.04   0.05  -0.00
   6   6    -0.00  -0.00  -0.01    -0.06  -0.00   0.01     0.15   0.04  -0.02
   7   6    -0.00  -0.00  -0.04     0.02   0.03  -0.01    -0.15  -0.14   0.04
   8   6     0.00   0.00   0.03     0.00   0.01   0.00    -0.06  -0.22   0.03
   9   6     0.00   0.00   0.03    -0.19   0.03   0.02    -0.07   0.37  -0.02
  10   6    -0.00  -0.00  -0.01     0.01  -0.00  -0.00     0.00   0.14  -0.01
  11   6    -0.00  -0.00  -0.01     0.03  -0.09   0.01     0.18  -0.29   0.00
  12   6     0.00  -0.00   0.01    -0.01   0.00   0.00    -0.00   0.05  -0.01
  13   6    -0.01  -0.00  -0.05    -0.00   0.02  -0.00    -0.05  -0.24   0.03
  14   6     0.01   0.00   0.04     0.02   0.04  -0.01    -0.14  -0.15   0.03
  15   6     0.01   0.01   0.06     0.01  -0.02   0.00     0.09   0.07  -0.02
  16   6     0.02   0.02   0.17     0.15   0.05  -0.02    -0.03   0.06  -0.00
  17   6    -0.05  -0.03  -0.39    -0.03   0.01   0.00     0.00   0.04  -0.00
  18   6     0.02   0.01   0.16     0.02  -0.10   0.01     0.14  -0.32   0.01
  19   6     0.01   0.01   0.06     0.01  -0.02   0.00     0.03   0.13  -0.02
  20   6    -0.01  -0.01  -0.10    -0.16   0.03   0.02    -0.08   0.37  -0.02
  21   1    -0.00  -0.00   0.00    -0.07  -0.19  -0.22     0.01   0.01   0.01
  22   1    -0.00  -0.00  -0.00    -0.04   0.30   0.14     0.01  -0.02  -0.01
  23   1     0.00   0.00   0.00    -0.08   0.03  -0.08     0.01  -0.03  -0.02
  24   1    -0.00   0.00  -0.00    -0.11   0.03  -0.37     0.01  -0.01   0.06
  25   1     0.00   0.00   0.00     0.04  -0.03   0.03    -0.01   0.02  -0.00
  26   1     0.00  -0.00   0.00    -0.03   0.01  -0.00    -0.03   0.00  -0.03
  27   1     0.00  -0.00   0.00     0.05  -0.04   0.09     0.01  -0.01  -0.00
  28   1     0.01   0.01   0.08     0.02  -0.01   0.00    -0.13   0.10  -0.00
  29   1    -0.01  -0.01  -0.07    -0.04  -0.00   0.00     0.07  -0.06   0.00
  30   1     0.00   0.00   0.03     0.01  -0.02  -0.00     0.10  -0.08  -0.00
  31   1    -0.00  -0.00  -0.01    -0.00  -0.01  -0.00     0.08   0.16  -0.02
  32   1     0.01   0.01   0.10    -0.03   0.00   0.00     0.07  -0.06  -0.00
  33   1    -0.01  -0.01  -0.10    -0.00   0.02   0.00    -0.13   0.08   0.01
  34   1    -0.04  -0.03  -0.33     0.05  -0.00  -0.00    -0.01   0.02  -0.00
  35   1     0.09   0.07   0.72    -0.02  -0.02   0.00     0.08   0.18  -0.03
  36   1    -0.04  -0.03  -0.31     0.02  -0.03  -0.00     0.07  -0.09  -0.00
                     49                     50                     51
                        a                      a                      a 
 Frequencies --  1045.3889              1049.5021              1085.6738
 Red. masses --     9.9834                 8.5690                 9.9805
 Frc consts  --     0.0000                 0.0000                 0.0000
 IR Inten    --     9.6821                 8.3643                59.0889
 Raman Activ --     0.0000                 0.0000                 0.0000
 Depolar     --     0.0000                 0.0000                 0.0000
 Atom AN      X      Y      Z        X      Y      Z        X      Y      Z
   1   7    -0.07   0.40   0.16    -0.14  -0.01  -0.08    -0.07   0.02   0.01
   2   6     0.01  -0.46  -0.47     0.34  -0.06   0.14     0.13  -0.03  -0.06
   3   6     0.08   0.11   0.33    -0.45   0.15  -0.03    -0.25   0.07   0.08
   4   8    -0.03  -0.08  -0.03     0.21  -0.13  -0.07     0.35  -0.02  -0.06
   5   6     0.05  -0.03  -0.00     0.21   0.01  -0.03    -0.23   0.21   0.00
   6   6     0.01   0.00  -0.00     0.10  -0.05  -0.01    -0.25   0.09   0.02
   7   6    -0.00  -0.00   0.00     0.03   0.02  -0.00    -0.02   0.00   0.00
   8   6    -0.01  -0.01   0.00     0.00   0.10  -0.01     0.01  -0.15   0.01
   9   6    -0.03   0.04   0.00    -0.12   0.02   0.01     0.05  -0.13   0.01
  10   6     0.03  -0.02  -0.00     0.01  -0.05   0.00    -0.04   0.09  -0.00
  11   6     0.03  -0.01   0.00    -0.00  -0.04   0.00    -0.00  -0.01   0.00
  12   6    -0.03   0.06  -0.01    -0.07   0.07   0.01     0.16  -0.21  -0.01
  13   6    -0.00  -0.00   0.00    -0.00   0.04  -0.00     0.03  -0.02  -0.00
  14   6    -0.01  -0.01   0.00     0.07   0.09  -0.02    -0.11  -0.12   0.02
  15   6    -0.01  -0.00   0.00    -0.07  -0.07   0.01     0.15   0.11  -0.03
  16   6     0.03   0.02  -0.00     0.16   0.07  -0.03    -0.24  -0.14   0.04
  17   6     0.01   0.00  -0.00     0.00  -0.02   0.00    -0.05   0.04   0.00
  18   6     0.01  -0.05   0.00    -0.01  -0.07   0.01     0.04   0.16  -0.02
  19   6     0.00   0.01  -0.00     0.00  -0.03   0.00    -0.00   0.01  -0.00
  20   6    -0.05   0.04   0.00    -0.20  -0.04   0.03     0.27   0.04  -0.04
  21   1     0.03   0.18   0.14     0.04   0.13   0.13     0.02   0.07   0.05
  22   1     0.01   0.01   0.01     0.04  -0.12  -0.07     0.02  -0.01  -0.01
  23   1     0.03   0.07   0.08     0.05  -0.08  -0.01     0.02  -0.05  -0.03
  24   1    -0.02  -0.16  -0.11     0.06  -0.13   0.34     0.01  -0.08   0.08
  25   1    -0.10  -0.08  -0.20    -0.11   0.10  -0.05    -0.08   0.06  -0.08
  26   1     0.03  -0.08  -0.05    -0.22   0.11  -0.04    -0.09   0.05   0.01
  27   1    -0.08  -0.05   0.18    -0.10   0.06  -0.04     0.01   0.01   0.02
  28   1    -0.01   0.01   0.00     0.01   0.01  -0.00     0.05  -0.09   0.01
  29   1    -0.01  -0.00   0.00    -0.04   0.03   0.00     0.00  -0.04   0.00
  30   1     0.07   0.00  -0.02     0.07  -0.01  -0.01    -0.25  -0.02   0.03
  31   1    -0.03  -0.03   0.03    -0.04  -0.03  -0.00     0.06  -0.03   0.00
  32   1    -0.01  -0.00  -0.00    -0.11   0.01   0.01     0.22   0.00  -0.03
  33   1    -0.00   0.00  -0.00     0.03   0.00  -0.00    -0.06   0.01   0.01
  34   1     0.01   0.01  -0.00     0.03   0.04  -0.01    -0.00  -0.14   0.01
  35   1     0.01   0.01  -0.00    -0.03  -0.08   0.01     0.04   0.13  -0.02
  36   1    -0.00  -0.01   0.00    -0.01  -0.02   0.01     0.09   0.05  -0.02
                     52                     53                     54
                        a                      a                      a 
 Frequencies --  1111.8582              1121.4862              1130.6802
 Red. masses --     7.6049                 6.7249                 5.1432
 Frc consts  --     0.0000                 0.0000                 0.0000
 IR Inten    --    23.7866                 5.2082                23.5148
 Raman Activ --     0.0000                 0.0000                 0.0000
 Depolar     --     0.0000                 0.0000                 0.0000
 Atom AN      X      Y      Z        X      Y      Z        X      Y      Z
   1   7    -0.04  -0.08   0.13    -0.01  -0.05   0.05    -0.00  -0.03   0.03
   2   6     0.09   0.22  -0.29     0.05   0.13  -0.10     0.02   0.08  -0.06
   3   6    -0.02  -0.39   0.22    -0.03  -0.19   0.08     0.01  -0.14   0.04
   4   8    -0.07   0.17  -0.00    -0.02   0.08  -0.00    -0.10   0.04   0.01
   5   6    -0.03   0.17  -0.01     0.10  -0.01  -0.01     0.19  -0.10  -0.02
   6   6     0.13   0.00  -0.01    -0.07  -0.06   0.02     0.03  -0.09   0.00
   7   6    -0.05  -0.06   0.01     0.09   0.12  -0.02     0.03   0.06  -0.01
   8   6     0.07   0.10  -0.02    -0.08  -0.17   0.03    -0.04   0.02   0.00
   9   6     0.04   0.08  -0.01    -0.07  -0.23   0.03    -0.14   0.01   0.02
  10   6    -0.05   0.09   0.00     0.02  -0.19   0.01     0.01  -0.09   0.01
  11   6     0.03  -0.08   0.00    -0.07   0.10   0.00    -0.01  -0.01   0.00
  12   6     0.05  -0.08  -0.01    -0.03  -0.01   0.00    -0.07   0.09   0.00
  13   6    -0.02  -0.08   0.01     0.06   0.17  -0.02    -0.02   0.10  -0.01
  14   6     0.07   0.11  -0.02    -0.05  -0.13   0.02    -0.01  -0.06   0.01
  15   6    -0.06  -0.09   0.01     0.02   0.08  -0.01     0.06   0.02  -0.01
  16   6     0.05   0.04  -0.01     0.03   0.13  -0.02    -0.07  -0.26   0.03
  17   6    -0.02  -0.04   0.01     0.13  -0.01  -0.02    -0.18   0.13   0.01
  18   6    -0.01   0.03  -0.00    -0.05  -0.22   0.03     0.14   0.18  -0.03
  19   6    -0.03  -0.07   0.01     0.00   0.19  -0.02     0.06  -0.01  -0.01
  20   6    -0.08  -0.15   0.02     0.09   0.22  -0.03    -0.09   0.13  -0.00
  21   1     0.02   0.05  -0.05     0.01   0.01  -0.03     0.00   0.00  -0.02
  22   1     0.04   0.16   0.06     0.02   0.07   0.02     0.01   0.05   0.02
  23   1    -0.01  -0.12  -0.15    -0.01  -0.06  -0.07    -0.01  -0.03  -0.04
  24   1    -0.03  -0.07   0.01    -0.01  -0.02   0.02    -0.00  -0.01   0.01
  25   1    -0.15   0.11  -0.22    -0.07   0.06  -0.10    -0.03   0.03  -0.05
  26   1    -0.16   0.14   0.19    -0.07   0.08   0.12    -0.04   0.05   0.08
  27   1     0.25  -0.01  -0.08     0.10   0.01  -0.06     0.05   0.01  -0.05
  28   1    -0.00  -0.03   0.00    -0.07   0.18  -0.01    -0.04   0.10  -0.00
  29   1     0.15   0.03  -0.02    -0.19  -0.05   0.03    -0.15  -0.00   0.02
  30   1    -0.12  -0.03   0.01     0.05   0.03  -0.01     0.19   0.01  -0.03
  31   1     0.05   0.03   0.02    -0.09  -0.17   0.03    -0.07  -0.07   0.02
  32   1    -0.10  -0.03   0.02     0.09   0.05  -0.02    -0.02   0.03   0.00
  33   1    -0.04   0.11  -0.00     0.14  -0.26   0.01     0.08  -0.14   0.00
  34   1    -0.02   0.07  -0.00    -0.06   0.14  -0.01     0.25  -0.48   0.01
  35   1    -0.07  -0.14   0.02     0.13   0.19  -0.03    -0.02   0.10  -0.01
  36   1     0.03   0.01  -0.01    -0.33  -0.08   0.05     0.43   0.08  -0.06
                     55                     56                     57
                        a                      a                      a 
 Frequencies --  1151.4624              1174.0378              1194.1042
 Red. masses --     3.1251                 2.6372                 2.7027
 Frc consts  --     0.0000                 0.0000                 0.0000
 IR Inten    --     1.9066                 4.6566                 5.4678
 Raman Activ --     0.0000                 0.0000                 0.0000
 Depolar     --     0.0000                 0.0000                 0.0000
 Atom AN      X      Y      Z        X      Y      Z        X      Y      Z
   1   7     0.01   0.02  -0.02     0.02   0.01  -0.01    -0.01  -0.01   0.01
   2   6    -0.02  -0.05   0.03    -0.02  -0.01   0.02     0.02   0.01  -0.01
   3   6    -0.00   0.07  -0.03     0.00   0.01  -0.02    -0.01   0.00   0.01
   4   8     0.04  -0.03   0.00     0.00  -0.01   0.00     0.02   0.00  -0.00
   5   6    -0.13   0.11   0.01    -0.01   0.04  -0.00    -0.01  -0.03   0.00
   6   6     0.03   0.15  -0.02     0.02  -0.04   0.00    -0.04  -0.02   0.01
   7   6    -0.13   0.00   0.02    -0.02   0.11  -0.01     0.03  -0.01  -0.00
   8   6     0.06  -0.14   0.00     0.05  -0.03  -0.01    -0.04  -0.05   0.01
   9   6    -0.00  -0.05   0.00    -0.11  -0.20   0.03     0.02   0.04  -0.01
  10   6    -0.02  -0.11   0.01    -0.10  -0.06   0.02    -0.01  -0.04   0.00
  11   6    -0.02   0.07  -0.00     0.03   0.06  -0.01    -0.01  -0.01   0.00
  12   6     0.07  -0.09  -0.00    -0.06  -0.09   0.01     0.02   0.02  -0.00
  13   6    -0.05   0.08  -0.00     0.10   0.07  -0.02    -0.03   0.02   0.00
  14   6     0.08   0.01  -0.01    -0.05   0.05   0.00    -0.01  -0.06   0.01
  15   6    -0.05  -0.09   0.01     0.05  -0.00  -0.01    -0.01   0.04  -0.00
  16   6     0.05   0.00  -0.01    -0.03   0.04  -0.00    -0.04  -0.03   0.01
  17   6    -0.04   0.01   0.00    -0.04  -0.09   0.01    -0.03  -0.06   0.01
  18   6     0.05  -0.06  -0.00     0.06  -0.01  -0.01    -0.01  -0.04   0.01
  19   6     0.00   0.13  -0.01    -0.05   0.04   0.00     0.03   0.02  -0.01
  20   6     0.01   0.00  -0.00    -0.04  -0.02   0.01     0.17   0.30  -0.05
  21   1    -0.00  -0.00   0.01    -0.00  -0.01  -0.00     0.00   0.01   0.00
  22   1    -0.00  -0.03  -0.01    -0.00  -0.01  -0.00     0.00   0.01   0.00
  23   1     0.00   0.02   0.02    -0.00   0.02   0.01     0.00  -0.01  -0.01
  24   1     0.01   0.01  -0.00     0.01   0.02   0.02    -0.01  -0.02  -0.01
  25   1     0.02  -0.02   0.02     0.00  -0.02  -0.01    -0.00   0.02   0.01
  26   1     0.01  -0.01  -0.04    -0.01   0.02   0.01     0.03  -0.02   0.01
  27   1     0.00  -0.02   0.04     0.01  -0.01   0.01    -0.02   0.01  -0.01
  28   1    -0.24   0.31  -0.01    -0.20   0.33  -0.01     0.07  -0.10   0.00
  29   1     0.51  -0.01  -0.06     0.32   0.01  -0.04    -0.23  -0.03   0.03
  30   1    -0.19   0.01   0.02     0.28   0.03  -0.04    -0.05  -0.01   0.01
  31   1     0.02  -0.01  -0.00    -0.10  -0.18   0.03     0.03   0.05  -0.01
  32   1    -0.39   0.00   0.05     0.47   0.05  -0.06    -0.15  -0.00   0.02
  33   1     0.24  -0.33  -0.00    -0.17   0.24  -0.00     0.14  -0.23   0.00
  34   1     0.06  -0.07  -0.00    -0.11   0.17  -0.00    -0.27   0.39  -0.00
  35   1     0.00   0.02  -0.00    -0.11  -0.22   0.03    -0.21  -0.43   0.07
  36   1     0.11  -0.01  -0.01     0.25   0.01  -0.03     0.46   0.02  -0.06
                     58                     59                     60
                        a                      a                      a 
 Frequencies --  1201.2364              1211.2699              1218.2195
 Red. masses --     4.4402                 3.5382                 5.0389
 Frc consts  --     0.0000                 0.0000                 0.0000
 IR Inten    --     9.8618                 2.0321                16.8489
 Raman Activ --     0.0000                 0.0000                 0.0000
 Depolar     --     0.0000                 0.0000                 0.0000
 Atom AN      X      Y      Z        X      Y      Z        X      Y      Z
   1   7     0.06   0.08  -0.06    -0.14  -0.06   0.07    -0.01  -0.02   0.01
   2   6    -0.10  -0.18   0.10     0.13   0.10  -0.10     0.02   0.04  -0.01
   3   6     0.01   0.02  -0.10     0.02   0.05   0.05     0.02  -0.01   0.02
   4   8    -0.08   0.06   0.05     0.01  -0.07  -0.01    -0.06  -0.05   0.00
   5   6     0.01   0.21  -0.02    -0.08  -0.05   0.02     0.19  -0.07  -0.01
   6   6     0.22  -0.21  -0.00     0.14  -0.12  -0.01    -0.07  -0.06   0.01
   7   6     0.04   0.02  -0.01    -0.01  -0.00   0.00     0.04   0.03  -0.01
   8   6     0.03   0.05  -0.01     0.03   0.01  -0.01    -0.01  -0.01   0.00
   9   6    -0.08  -0.15   0.02    -0.05  -0.11   0.02    -0.05  -0.13   0.02
  10   6    -0.11   0.05   0.01    -0.12   0.04   0.01     0.40  -0.07  -0.05
  11   6     0.05  -0.06  -0.00     0.02  -0.02  -0.00    -0.06   0.06   0.00
  12   6     0.03  -0.02  -0.01     0.01   0.02   0.00    -0.06   0.20  -0.01
  13   6     0.01   0.01  -0.00    -0.00  -0.03   0.00     0.06   0.02  -0.01
  14   6    -0.00   0.01  -0.00    -0.02   0.02  -0.00    -0.05  -0.10   0.02
  15   6    -0.02   0.03  -0.00    -0.10   0.12   0.00     0.07  -0.10  -0.00
  16   6    -0.00   0.04  -0.00     0.02   0.07  -0.01    -0.01  -0.10   0.01
  17   6    -0.03  -0.01   0.01    -0.01  -0.01   0.00    -0.06   0.05   0.00
  18   6     0.05   0.04  -0.01     0.05   0.06  -0.01    -0.02  -0.00   0.00
  19   6     0.07   0.02  -0.01     0.16  -0.01  -0.02     0.05   0.07  -0.01
  20   6    -0.04   0.02   0.00    -0.03  -0.05   0.01    -0.05   0.05   0.00
  21   1    -0.01  -0.05   0.02     0.03   0.11   0.02     0.00   0.01  -0.00
  22   1    -0.03  -0.06  -0.02     0.05   0.04  -0.00     0.00   0.01   0.00
  23   1     0.00   0.09   0.09     0.01  -0.12  -0.09    -0.00  -0.01  -0.01
  24   1     0.02   0.05   0.02    -0.08  -0.17  -0.16    -0.01  -0.01  -0.01
  25   1     0.04  -0.15  -0.02     0.01   0.21   0.21    -0.00   0.02   0.01
  26   1    -0.30   0.14  -0.20     0.25  -0.17   0.06     0.04  -0.02   0.03
  27   1     0.37  -0.21   0.20    -0.22   0.12  -0.10    -0.09   0.04  -0.04
  28   1    -0.09   0.17  -0.01    -0.16   0.24  -0.01    -0.11   0.20  -0.01
  29   1    -0.28  -0.00   0.04    -0.12  -0.00   0.02    -0.02  -0.00   0.00
  30   1    -0.28  -0.04   0.04    -0.13  -0.01   0.02    -0.54  -0.01   0.07
  31   1     0.10   0.17  -0.01     0.16   0.32  -0.06    -0.03   0.02  -0.00
  32   1     0.10   0.01  -0.01     0.20   0.00  -0.03    -0.16  -0.01   0.02
  33   1     0.03  -0.04   0.00     0.06  -0.10   0.00    -0.27   0.36   0.00
  34   1     0.04  -0.06  -0.00     0.11  -0.13  -0.00    -0.09   0.10   0.00
  35   1    -0.06  -0.10   0.02    -0.10  -0.20   0.03     0.01   0.08  -0.01
  36   1    -0.06   0.01   0.01    -0.17   0.01   0.02     0.10   0.01  -0.01
                     61                     62                     63
                        a                      a                      a 
 Frequencies --  1223.3218              1234.0355              1250.0061
 Red. masses --     6.3964                 4.1630                 6.4718
 Frc consts  --     0.0000                 0.0000                 0.0000
 IR Inten    --     2.2797                45.0436                22.5256
 Raman Activ --     0.0000                 0.0000                 0.0000
 Depolar     --     0.0000                 0.0000                 0.0000
 Atom AN      X      Y      Z        X      Y      Z        X      Y      Z
   1   7    -0.12  -0.01   0.03     0.19  -0.00  -0.03    -0.02   0.00   0.01
   2   6     0.09  -0.01  -0.02    -0.15   0.06  -0.06     0.02  -0.00   0.00
   3   6     0.02   0.04  -0.04    -0.02  -0.00   0.16    -0.02   0.03  -0.03
   4   8    -0.01   0.01   0.01     0.04  -0.12  -0.05     0.07   0.02  -0.00
   5   6    -0.10   0.04   0.01    -0.12   0.10   0.01    -0.20   0.05   0.02
   6   6     0.17  -0.19  -0.00     0.18  -0.15  -0.01     0.01  -0.01   0.00
   7   6     0.12   0.09  -0.03     0.04   0.02  -0.01    -0.10  -0.12   0.02
   8   6    -0.01   0.12  -0.01     0.02   0.06  -0.01     0.08  -0.08  -0.00
   9   6    -0.05  -0.11   0.02    -0.04  -0.09   0.01    -0.03   0.09  -0.00
  10   6    -0.21   0.01   0.03    -0.16   0.05   0.02    -0.04   0.08  -0.00
  11   6     0.05   0.02  -0.01     0.08  -0.01  -0.01     0.05   0.04  -0.01
  12   6    -0.02  -0.07   0.01     0.01  -0.04  -0.00    -0.04  -0.13   0.02
  13   6     0.01   0.15  -0.02     0.00   0.05  -0.01     0.05   0.07  -0.01
  14   6     0.10   0.06  -0.02     0.04   0.04  -0.01     0.07   0.00  -0.01
  15   6     0.23  -0.26  -0.01     0.08  -0.10  -0.00     0.13  -0.30   0.01
  16   6    -0.03  -0.07   0.01    -0.02   0.00   0.00    -0.09  -0.08   0.02
  17   6    -0.03  -0.04   0.01    -0.03  -0.02   0.01    -0.21   0.09   0.02
  18   6    -0.02  -0.06   0.01     0.02   0.00  -0.00     0.09   0.14  -0.02
  19   6    -0.32   0.04   0.04    -0.08   0.03   0.01     0.35   0.08  -0.05
  20   6    -0.01   0.00   0.00    -0.02  -0.01   0.00     0.11  -0.04  -0.01
  21   1     0.02   0.09   0.04    -0.02  -0.13  -0.09     0.00   0.01   0.00
  22   1     0.04   0.00  -0.01    -0.05   0.02   0.03     0.01  -0.01  -0.01
  23   1     0.02  -0.08  -0.04    -0.04   0.11   0.04     0.00  -0.01  -0.01
  24   1    -0.07  -0.16  -0.18     0.13   0.28   0.35    -0.01  -0.02  -0.02
  25   1     0.04   0.13   0.22    -0.08  -0.19  -0.37     0.00   0.02   0.02
  26   1     0.04  -0.04  -0.05     0.15  -0.11   0.09     0.05  -0.01   0.03
  27   1     0.07  -0.03   0.03    -0.35   0.17  -0.14     0.04  -0.02   0.02
  28   1     0.08  -0.03  -0.00    -0.02   0.06  -0.00    -0.17   0.18   0.00
  29   1    -0.02   0.04  -0.00    -0.12   0.01   0.01    -0.30  -0.05   0.04
  30   1     0.06   0.01  -0.01    -0.06  -0.01   0.01     0.28   0.03  -0.04
  31   1     0.09   0.17  -0.03     0.09   0.15  -0.00    -0.08  -0.16   0.02
  32   1    -0.09   0.04   0.01    -0.01   0.02  -0.00    -0.32   0.00   0.04
  33   1     0.01   0.05  -0.01     0.03  -0.02  -0.00    -0.09   0.17  -0.00
  34   1    -0.13   0.17   0.00    -0.03   0.03  -0.00    -0.10   0.09   0.01
  35   1     0.19   0.39  -0.06     0.04   0.10  -0.01    -0.09  -0.03   0.01
  36   1     0.22  -0.00  -0.03     0.03   0.00  -0.00    -0.24   0.03   0.03
                     64                     65                     66
                        a                      a                      a 
 Frequencies --  1274.0273              1290.7878              1314.4267
 Red. masses --     6.4699                 7.3097                 5.6640
 Frc consts  --     0.0000                 0.0000                 0.0000
 IR Inten    --   136.7246                97.9554                66.1251
 Raman Activ --     0.0000                 0.0000                 0.0000
 Depolar     --     0.0000                 0.0000                 0.0000
 Atom AN      X      Y      Z        X      Y      Z        X      Y      Z
   1   7     0.05  -0.01   0.01    -0.01   0.04  -0.01     0.03  -0.18  -0.01
   2   6    -0.03  -0.04  -0.12    -0.01   0.02   0.14    -0.11  -0.05  -0.34
   3   6    -0.20   0.01  -0.01     0.17  -0.10   0.10     0.03   0.07   0.03
   4   8     0.12   0.18   0.00    -0.08  -0.08  -0.02    -0.12  -0.11   0.02
   5   6     0.07  -0.45   0.02     0.32   0.04  -0.04     0.15   0.18  -0.03
   6   6    -0.20   0.03   0.02    -0.17   0.16   0.00     0.02   0.17  -0.02
   7   6     0.04   0.01  -0.01    -0.03  -0.03   0.01    -0.07  -0.03   0.01
   8   6    -0.05   0.01   0.01    -0.03  -0.06   0.01    -0.01  -0.09   0.01
   9   6    -0.06   0.08  -0.00    -0.11   0.07   0.01     0.01  -0.01   0.00
  10   6    -0.04  -0.03   0.01    -0.25  -0.05   0.04    -0.12  -0.12   0.03
  11   6    -0.15  -0.01   0.02    -0.08  -0.17   0.03    -0.00  -0.06   0.00
  12   6     0.02   0.10  -0.01     0.16   0.08  -0.03     0.09   0.02  -0.01
  13   6    -0.04   0.05   0.00    -0.06   0.10  -0.00    -0.02   0.07  -0.00
  14   6     0.05   0.01  -0.01     0.10   0.09  -0.02     0.06   0.07  -0.01
  15   6     0.03  -0.03  -0.00     0.08  -0.15   0.00    -0.02  -0.13   0.01
  16   6     0.01  -0.11   0.01     0.00  -0.14   0.01     0.03  -0.04  -0.00
  17   6    -0.01   0.07  -0.00    -0.09   0.09   0.00    -0.06   0.04   0.00
  18   6    -0.10   0.04   0.01    -0.05   0.07  -0.00     0.03  -0.00  -0.00
  19   6     0.11  -0.07  -0.01     0.19  -0.04  -0.02     0.10   0.08  -0.02
  20   6     0.13  -0.07  -0.01     0.11  -0.06  -0.01    -0.05   0.03   0.00
  21   1     0.00  -0.01  -0.02    -0.02  -0.03   0.00     0.07   0.09   0.05
  22   1    -0.01   0.02   0.01    -0.01  -0.04  -0.01    -0.05   0.21   0.09
  23   1    -0.02   0.03   0.01     0.02  -0.01  -0.01    -0.07   0.07   0.05
  24   1     0.07   0.09   0.24    -0.06  -0.05  -0.21     0.10   0.13   0.39
  25   1    -0.00  -0.02  -0.03    -0.02  -0.06  -0.08     0.16   0.18   0.45
  26   1     0.10  -0.10   0.05    -0.31   0.15  -0.17     0.02   0.00   0.00
  27   1     0.32  -0.11   0.09    -0.28   0.12  -0.12    -0.00  -0.04   0.08
  28   1    -0.08   0.13  -0.00    -0.02   0.01  -0.00     0.06  -0.13   0.01
  29   1     0.14   0.01  -0.02     0.08  -0.01  -0.01    -0.02  -0.03   0.01
  30   1     0.11   0.01  -0.02    -0.01  -0.05   0.01    -0.09  -0.03   0.02
  31   1     0.20   0.42  -0.05     0.11   0.13  -0.02    -0.03  -0.11  -0.01
  32   1     0.05   0.02  -0.01     0.15   0.04  -0.02     0.13   0.03  -0.02
  33   1     0.01   0.01  -0.00     0.06  -0.02  -0.01     0.01   0.03  -0.01
  34   1    -0.08   0.10   0.00    -0.11   0.13   0.00    -0.01   0.01  -0.00
  35   1     0.02   0.06  -0.01    -0.00   0.08  -0.01    -0.01   0.02   0.00
  36   1    -0.04   0.01   0.00    -0.08   0.02   0.01    -0.01   0.00   0.00
                     67                     68                     69
                        a                      a                      a 
 Frequencies --  1327.6067              1335.9997              1353.3602
 Red. masses --     7.0827                 7.4322                 9.0310
[...]
   3   6     0.00  -0.00   0.00    -0.01   0.00  -0.00     0.10   0.26   0.07
   4   8     0.00   0.00  -0.00    -0.03  -0.01   0.01    -0.00   0.01   0.00
   5   6    -0.04  -0.00   0.01     0.15   0.08  -0.03    -0.00   0.00  -0.00
   6   6     0.05   0.18  -0.02    -0.20  -0.05   0.03     0.00  -0.00  -0.00
   7   6     0.20  -0.24  -0.00     0.14  -0.09  -0.01     0.00   0.00  -0.00
   8   6    -0.20   0.12   0.01    -0.16   0.03   0.02     0.00  -0.00   0.00
   9   6    -0.07  -0.17   0.02     0.10   0.23  -0.03     0.00   0.00   0.00
  10   6     0.16   0.10  -0.03    -0.08  -0.15   0.02     0.00  -0.00  -0.00
  11   6    -0.17  -0.05   0.03     0.45   0.21  -0.07     0.00   0.00   0.00
  12   6     0.10   0.06  -0.02    -0.36  -0.31   0.07     0.00  -0.00  -0.00
  13   6    -0.22  -0.00   0.03    -0.26   0.12   0.02    -0.00  -0.00  -0.00
  14   6     0.13  -0.02  -0.01     0.26  -0.22  -0.01     0.00   0.00  -0.00
  15   6    -0.11  -0.19   0.03    -0.13   0.11   0.01     0.00   0.00  -0.00
  16   6    -0.02   0.30  -0.02     0.06   0.01  -0.01     0.00   0.00   0.00
  17   6    -0.19  -0.41   0.06    -0.07  -0.09   0.02    -0.00   0.00   0.00
  18   6     0.20   0.17  -0.04     0.08   0.04  -0.01     0.00  -0.00   0.00
  19   6    -0.00  -0.25   0.02     0.02   0.02  -0.00    -0.00   0.00   0.00
  20   6     0.11   0.33  -0.04     0.06  -0.04  -0.00    -0.00   0.00   0.00
  21   1     0.00   0.00   0.00    -0.00  -0.00  -0.01    -0.00   0.00  -0.00
  22   1    -0.00   0.00   0.00     0.00  -0.00  -0.00    -0.00  -0.00  -0.00
  23   1     0.00   0.00   0.00    -0.00  -0.00  -0.00    -0.00  -0.00  -0.00
  24   1    -0.00  -0.00  -0.00     0.00   0.01   0.00    -0.01   0.00   0.00
  25   1     0.00  -0.00   0.00    -0.00   0.00  -0.00     0.05   0.05  -0.04
  26   1    -0.00   0.00  -0.00     0.00  -0.00   0.00    -0.31  -0.34   0.26
  27   1     0.00   0.00  -0.00    -0.00  -0.00   0.00    -0.05  -0.62  -0.49
  28   1    -0.02   0.05  -0.00    -0.01   0.05  -0.00     0.00  -0.00   0.00
  29   1     0.04   0.04  -0.01     0.02   0.02  -0.00     0.00   0.00   0.00
  30   1     0.06  -0.01  -0.01    -0.10   0.05   0.01     0.00  -0.00  -0.00
  31   1     0.01  -0.02   0.00    -0.01   0.10  -0.01    -0.01   0.01  -0.00
  32   1     0.04   0.01  -0.01     0.05   0.04  -0.01    -0.00   0.00  -0.00
  33   1     0.01   0.03  -0.00    -0.02   0.08  -0.00    -0.00  -0.00  -0.00
  34   1     0.06  -0.02  -0.01     0.00   0.02  -0.00    -0.00  -0.00   0.00
  35   1     0.04   0.09  -0.01     0.01   0.03  -0.00     0.00   0.00   0.00
  36   1    -0.04   0.04   0.00    -0.01   0.01   0.00     0.00   0.00   0.00
                     88                     89                     90
                        a                      a                      a 
 Frequencies --  2955.3522              2972.7383              2994.4013
 Red. masses --     1.5339                 1.9185                 1.5790
 Frc consts  --     0.0000                 0.0000                 0.0000
 IR Inten    --    53.8440                26.1622                 3.1706
 Raman Activ --     0.0000                 0.0000                 0.0000
 Depolar     --     0.0000                 0.0000                 0.0000
 Atom AN      X      Y      Z        X      Y      Z        X      Y      Z
   1   7    -0.00  -0.00  -0.00     0.00   0.00   0.00    -0.00   0.00  -0.00
   2   6     0.07   0.01  -0.02    -0.27   0.03   0.07    -0.04  -0.20   0.09
   3   6    -0.10  -0.03   0.18    -0.03  -0.01   0.05    -0.02  -0.03   0.02
   4   8    -0.01   0.00   0.00    -0.00   0.00  -0.00    -0.00   0.00   0.00
   5   6     0.00   0.00   0.00     0.00   0.00   0.00     0.00   0.00   0.00
   6   6     0.00  -0.00  -0.00     0.00  -0.00  -0.00     0.00  -0.00   0.00
   7   6    -0.00  -0.00   0.00    -0.00  -0.00   0.00    -0.00   0.00   0.00
   8   6     0.00   0.00  -0.00     0.00   0.00  -0.00     0.00   0.00  -0.00
   9   6    -0.00  -0.00   0.00     0.00   0.00  -0.00    -0.00  -0.00   0.00
  10   6     0.00   0.00  -0.00     0.00  -0.00  -0.00    -0.00   0.00  -0.00
  11   6     0.00   0.00   0.00     0.00  -0.00   0.00    -0.00  -0.00   0.00
  12   6     0.00  -0.00  -0.00     0.00  -0.00  -0.00     0.00  -0.00  -0.00
  13   6    -0.00   0.00  -0.00    -0.00   0.00   0.00     0.00  -0.00   0.00
  14   6     0.00  -0.00  -0.00     0.00  -0.00  -0.00    -0.00   0.00   0.00
  15   6     0.00   0.00  -0.00     0.00   0.00  -0.00    -0.00  -0.00   0.00
  16   6     0.00   0.00   0.00     0.00   0.00  -0.00    -0.00   0.00  -0.00
  17   6     0.00  -0.00   0.00     0.00  -0.00  -0.00    -0.00   0.00   0.00
  18   6     0.00  -0.00   0.00     0.00   0.00  -0.00     0.00   0.00  -0.00
  19   6    -0.00  -0.00   0.00    -0.00  -0.00   0.00    -0.00   0.00   0.00
  20   6     0.00   0.00  -0.00    -0.00   0.00  -0.00    -0.00  -0.00  -0.00
  21   1     0.00  -0.00   0.00    -0.02   0.01   0.00     0.01  -0.00  -0.00
  22   1     0.00  -0.00   0.00     0.00   0.00   0.00     0.00  -0.00   0.00
  23   1     0.01   0.01  -0.00    -0.00  -0.00   0.00    -0.01  -0.01   0.01
  24   1    -0.15   0.07   0.02     0.76  -0.37  -0.09    -0.40   0.16   0.06
  25   1    -0.11  -0.13   0.09     0.21   0.27  -0.18     0.53   0.56  -0.39
  26   1     0.45   0.53  -0.33     0.12   0.14  -0.09     0.07   0.08  -0.06
  27   1    -0.06  -0.44  -0.31    -0.01  -0.10  -0.07    -0.00   0.00   0.01
  28   1     0.00   0.00   0.00     0.00   0.00  -0.00     0.00   0.00  -0.00
  29   1    -0.00  -0.00   0.00     0.00  -0.00  -0.00    -0.00  -0.00  -0.00
  30   1     0.00  -0.00  -0.00    -0.00   0.00  -0.00    -0.00   0.00  -0.00
  31   1    -0.01   0.01  -0.00    -0.00   0.00  -0.00    -0.00   0.00  -0.00
  32   1     0.00  -0.00  -0.00    -0.00  -0.00   0.00    -0.00   0.00   0.00
  33   1     0.00   0.00  -0.00    -0.00   0.00   0.00     0.00   0.00   0.00
  34   1    -0.00  -0.00   0.00    -0.00  -0.00   0.00     0.00   0.00   0.00
  35   1    -0.00   0.00   0.00    -0.00   0.00  -0.00     0.00  -0.00  -0.00
  36   1    -0.00   0.00   0.00     0.00  -0.00  -0.00     0.00  -0.00  -0.00
                     91                     92                     93
                        a                      a                      a 
 Frequencies --  3106.8482              3114.9321              3115.3885
 Red. masses --     1.7810                 1.7832                 1.7738
 Frc consts  --     0.0000                 0.0000                 0.0000
 IR Inten    --    32.8383                 1.8144                 4.3714
 Raman Activ --     0.0000                 0.0000                 0.0000
 Depolar     --     0.0000                 0.0000                 0.0000
 Atom AN      X      Y      Z        X      Y      Z        X      Y      Z
   1   7     0.00  -0.00   0.00    -0.00   0.00  -0.00    -0.00   0.00  -0.00
   2   6    -0.00   0.00  -0.00     0.00  -0.00  -0.00    -0.00   0.00   0.00
   3   6     0.00  -0.00   0.00    -0.00   0.00   0.00    -0.00  -0.00   0.00
   4   8    -0.00  -0.00   0.00    -0.00  -0.00   0.00    -0.00  -0.00   0.00
   5   6     0.00   0.00  -0.00    -0.00   0.00   0.00     0.00   0.00  -0.00
   6   6    -0.00   0.00   0.00     0.00   0.00  -0.00     0.01   0.00  -0.00
   7   6    -0.01  -0.00   0.00     0.07   0.04  -0.01     0.16   0.10  -0.03
   8   6    -0.00   0.01  -0.00     0.01  -0.06   0.01     0.01  -0.14   0.01
   9   6     0.00  -0.00  -0.00     0.00  -0.00  -0.00    -0.00   0.00   0.00
  10   6    -0.00   0.00   0.00    -0.00   0.00   0.00     0.00  -0.00  -0.00
  11   6     0.00  -0.00   0.00     0.00  -0.09   0.01    -0.00   0.04  -0.00
  12   6    -0.00   0.00   0.00    -0.02   0.01   0.00     0.01  -0.01  -0.00
  13   6    -0.00   0.01  -0.00    -0.01   0.18  -0.01     0.01  -0.08   0.01
  14   6    -0.01  -0.01   0.00    -0.11  -0.07   0.02     0.05   0.03  -0.01
  15   6     0.00   0.00  -0.00    -0.00  -0.00   0.00     0.00   0.00  -0.00
  16   6     0.06   0.04  -0.01     0.02   0.02  -0.00     0.00   0.00  -0.00
  17   6    -0.22   0.11   0.02     0.01  -0.00  -0.00    -0.02   0.01   0.00
  18   6     0.00  -0.07   0.01    -0.00   0.02  -0.00    -0.00   0.02  -0.00
  19   6    -0.00  -0.00   0.00     0.00  -0.00   0.00     0.00  -0.01   0.00
  20   6     0.00  -0.00  -0.00     0.00  -0.00  -0.00    -0.00   0.00   0.00
  21   1    -0.00   0.00   0.00     0.00  -0.00  -0.00     0.00  -0.00  -0.00
  22   1    -0.00   0.00  -0.00     0.00   0.00   0.00     0.00  -0.00   0.00
  23   1    -0.00  -0.00   0.00    -0.00   0.00  -0.00    -0.00   0.00  -0.00
  24   1     0.00  -0.00  -0.00    -0.00   0.00   0.00     0.00  -0.00  -0.00
  25   1    -0.00  -0.00   0.00     0.00  -0.00   0.00     0.00   0.00  -0.00
  26   1     0.00   0.00  -0.00     0.00   0.00  -0.00     0.00   0.00  -0.00
  27   1     0.00   0.00   0.00     0.00  -0.00  -0.00     0.00   0.00  -0.00
  28   1     0.02   0.02  -0.00    -0.25  -0.16   0.05    -0.58  -0.37   0.12
  29   1     0.00  -0.04   0.00    -0.02   0.23  -0.02    -0.04   0.52  -0.05
  30   1    -0.00   0.01  -0.00    -0.02   0.33  -0.02     0.01  -0.14   0.01
  31   1     0.00  -0.00  -0.00     0.10  -0.05  -0.01    -0.04   0.02   0.00
  32   1     0.00  -0.03   0.00     0.05  -0.65   0.05    -0.02   0.29  -0.02
  33   1     0.03   0.02  -0.01     0.39   0.26  -0.07    -0.18  -0.12   0.03
  34   1    -0.23  -0.15   0.04    -0.08  -0.05   0.01    -0.02  -0.01   0.00
  35   1     0.78  -0.39  -0.06    -0.02   0.01   0.00     0.07  -0.04  -0.01
  36   1    -0.02   0.29  -0.02     0.01  -0.08   0.01     0.00  -0.06   0.01
                     94                     95                     96
                        a                      a                      a 
 Frequencies --  3118.5873              3122.9308              3126.3309
 Red. masses --     1.7833                 1.8337                 1.8871
 Frc consts  --     0.0000                 0.0000                 0.0000
 IR Inten    --    24.6886                 3.7853                13.1598
 Raman Activ --     0.0000                 0.0000                 0.0000
 Depolar     --     0.0000                 0.0000                 0.0000
 Atom AN      X      Y      Z        X      Y      Z        X      Y      Z
   1   7     0.00  -0.00  -0.00     0.00  -0.00   0.00     0.00  -0.00   0.00
   2   6    -0.00   0.00   0.00     0.00   0.00  -0.00     0.00   0.00  -0.00
   3   6     0.00  -0.00  -0.00    -0.00   0.00   0.00     0.00   0.00  -0.00
   4   8     0.00   0.00  -0.00     0.00   0.00  -0.00     0.00   0.00  -0.00
   5   6     0.00  -0.00  -0.00    -0.00   0.00   0.00    -0.00  -0.00   0.00
   6   6    -0.00  -0.00   0.00    -0.00   0.00   0.00    -0.00   0.00   0.00
   7   6    -0.00  -0.00   0.00    -0.05  -0.03   0.01    -0.07  -0.04   0.01
   8   6    -0.00  -0.00   0.00     0.00  -0.04   0.00     0.01  -0.09   0.01
   9   6    -0.00  -0.00   0.00     0.00   0.00  -0.00     0.00  -0.00  -0.00
  10   6     0.00   0.01  -0.00     0.00  -0.00   0.00    -0.00   0.00   0.00
  11   6    -0.01   0.22  -0.02     0.00  -0.02   0.00    -0.00   0.01  -0.00
  12   6     0.08  -0.04  -0.01    -0.01   0.00   0.00     0.01  -0.01  -0.00
  13   6    -0.00   0.06  -0.00     0.01  -0.06   0.00    -0.01   0.09  -0.01
  14   6    -0.07  -0.04   0.01    -0.02  -0.01   0.00     0.08   0.05  -0.01
  15   6    -0.00  -0.00   0.00     0.00   0.01  -0.00     0.00  -0.01   0.00
  16   6     0.02   0.01  -0.00     0.15   0.09  -0.03    -0.12  -0.08   0.02
  17   6     0.00  -0.00  -0.00    -0.01   0.00   0.00    -0.09   0.04   0.01
  18   6    -0.00   0.02  -0.00    -0.01   0.18  -0.02    -0.01   0.13  -0.01
  19   6     0.00   0.00  -0.00     0.00   0.00  -0.00     0.01   0.00  -0.00
  20   6     0.00   0.00  -0.00    -0.00  -0.00   0.00    -0.00   0.00   0.00
  21   1    -0.00   0.00   0.00    -0.00   0.00   0.00    -0.00   0.00   0.00
  22   1     0.00  -0.00   0.00    -0.00   0.00  -0.00    -0.00   0.00  -0.00
  23   1     0.00   0.00  -0.00    -0.00  -0.00   0.00    -0.00  -0.00   0.00
  24   1     0.00  -0.00  -0.00    -0.00   0.00   0.00     0.00  -0.00  -0.00
  25   1    -0.00   0.00  -0.00    -0.00  -0.00   0.00    -0.00  -0.00   0.00
  26   1    -0.00  -0.00   0.00    -0.00  -0.00   0.00    -0.00   0.00   0.00
  27   1     0.00   0.01   0.00    -0.00  -0.00  -0.00    -0.00   0.00   0.00
  28   1     0.01   0.01  -0.00     0.18   0.11  -0.04     0.22   0.14  -0.05
  29   1    -0.00   0.00  -0.00    -0.01   0.12  -0.01    -0.02   0.30  -0.03
  30   1     0.05  -0.80   0.06    -0.01   0.08  -0.01     0.00  -0.03   0.00
  31   1    -0.31   0.16   0.03     0.03  -0.02  -0.00    -0.04   0.02   0.00
  32   1     0.01  -0.23   0.02    -0.01   0.20  -0.02     0.02  -0.30   0.02
  33   1     0.25   0.17  -0.05     0.06   0.04  -0.01    -0.26  -0.17   0.05
  34   1    -0.07  -0.05   0.01    -0.51  -0.33   0.10     0.41   0.27  -0.08
  35   1    -0.01   0.01   0.00     0.02  -0.01  -0.00     0.29  -0.14  -0.02
  36   1     0.01  -0.07   0.01     0.05  -0.65   0.05     0.03  -0.45   0.04
                     97                     98                     99
                        a                      a                      a 
 Frequencies --  3128.0443              3129.8353              3137.4114
 Red. masses --     1.8711                 1.8762                 1.8544
 Frc consts  --     0.0000                 0.0000                 0.0000
 IR Inten    --   122.1613                19.5099                97.6710
 Raman Activ --     0.0000                 0.0000                 0.0000
 Depolar     --     0.0000                 0.0000                 0.0000
 Atom AN      X      Y      Z        X      Y      Z        X      Y      Z
   1   7     0.00  -0.00   0.00     0.00  -0.00  -0.00    -0.00   0.00   0.00
   2   6     0.00  -0.00  -0.00     0.00  -0.00  -0.00    -0.00  -0.00   0.00
   3   6    -0.00   0.00   0.00    -0.00  -0.00  -0.00    -0.00   0.00   0.00
   4   8     0.00   0.00  -0.00     0.00   0.00  -0.00     0.00   0.00  -0.00
   5   6    -0.00  -0.00   0.00     0.00  -0.00  -0.00    -0.01  -0.00   0.00
   6   6    -0.00   0.00   0.00    -0.00   0.00   0.00     0.00   0.00  -0.00
   7   6    -0.09  -0.06   0.02    -0.07  -0.04   0.01    -0.01  -0.01   0.00
   8   6     0.01  -0.16   0.01     0.01  -0.12   0.01     0.00  -0.02   0.00
   9   6     0.00   0.00  -0.00     0.00  -0.00  -0.00     0.00  -0.00   0.00
  10   6     0.00  -0.00  -0.00    -0.00   0.00   0.00     0.00   0.00  -0.00
  11   6     0.00  -0.01   0.00     0.00  -0.00   0.00    -0.01   0.11  -0.01
  12   6    -0.01   0.00   0.00     0.03  -0.02  -0.00    -0.22   0.12   0.02
  13   6     0.01  -0.10   0.01    -0.01   0.09  -0.01    -0.00   0.02  -0.00
  14   6    -0.12  -0.08   0.02     0.11   0.07  -0.02     0.02   0.01  -0.00
  15   6    -0.00  -0.00   0.00     0.00   0.00  -0.00     0.00  -0.00  -0.00
  16   6    -0.04  -0.03   0.01     0.09   0.06  -0.02     0.01   0.01  -0.00
  17   6     0.00  -0.00  -0.00     0.07  -0.03  -0.01     0.01  -0.00  -0.00
  18   6     0.01  -0.06   0.00     0.01  -0.11   0.01     0.00  -0.01   0.00
  19   6     0.00  -0.00   0.00     0.00  -0.00   0.00     0.00  -0.00   0.00
  20   6     0.00   0.00  -0.00    -0.00   0.00   0.00     0.00   0.00  -0.00
  21   1    -0.00   0.00   0.00    -0.00   0.00   0.00     0.01  -0.00  -0.00
  22   1    -0.00   0.00  -0.00     0.00  -0.00   0.00    -0.00   0.00   0.00
  23   1     0.00  -0.00   0.00     0.00   0.00  -0.00    -0.00  -0.00   0.00
  24   1    -0.00   0.00   0.00    -0.00   0.00   0.00    -0.00   0.00   0.00
  25   1    -0.00  -0.00   0.00    -0.00  -0.00  -0.00     0.00   0.00  -0.00
  26   1     0.00   0.00  -0.00    -0.00  -0.00   0.00     0.00   0.00  -0.00
  27   1    -0.00  -0.00  -0.00    -0.00   0.00   0.00    -0.00  -0.01  -0.01
  28   1     0.31   0.20  -0.06     0.23   0.15  -0.05     0.03   0.02  -0.01
  29   1    -0.04   0.56  -0.05    -0.03   0.41  -0.04    -0.00   0.05  -0.00
  30   1    -0.00   0.04  -0.00     0.00  -0.00   0.00     0.02  -0.37   0.03
  31   1     0.03  -0.02  -0.00    -0.12   0.06   0.01     0.77  -0.41  -0.07
  32   1    -0.02   0.35  -0.03     0.02  -0.32   0.02     0.00  -0.08   0.01
  33   1     0.41   0.27  -0.08    -0.37  -0.25   0.07    -0.05  -0.03   0.01
  34   1     0.16   0.10  -0.03    -0.33  -0.22   0.06    -0.03  -0.02   0.01
  35   1    -0.01   0.00   0.00    -0.21   0.10   0.02    -0.02   0.01   0.00
  36   1    -0.02   0.21  -0.02    -0.03   0.37  -0.03    -0.00   0.03  -0.00
                    100                    101                    102
                        a                      a                      a 
 Frequencies --  3262.1359              3264.1269              3279.5190
 Red. masses --     2.0249                 2.0388                 1.3036
 Frc consts  --     0.0000                 0.0000                 0.0000
 IR Inten    --    86.8998                89.4852                29.6411
 Raman Activ --     0.0000                 0.0000                 0.0000
 Depolar     --     0.0000                 0.0000                 0.0000
 Atom AN      X      Y      Z        X      Y      Z        X      Y      Z
   1   7     0.19  -0.10   0.18    -0.21  -0.08   0.17     0.01  -0.15  -0.03
   2   6     0.00  -0.00   0.00    -0.01  -0.00   0.00     0.00  -0.01  -0.00
   3   6    -0.00   0.00   0.00     0.00   0.00  -0.00    -0.00   0.00  -0.00
   4   8    -0.00  -0.00  -0.00     0.00   0.00   0.00     0.00  -0.00  -0.00
   5   6     0.00   0.00   0.00    -0.00  -0.00   0.00    -0.00  -0.00   0.00
   6   6    -0.00   0.00   0.00     0.00  -0.00  -0.00     0.00   0.00   0.00
   7   6     0.00   0.00  -0.00    -0.00  -0.00   0.00     0.00   0.00  -0.00
   8   6     0.00  -0.00   0.00     0.00   0.00  -0.00     0.00   0.00  -0.00
   9   6     0.00   0.00   0.00    -0.00  -0.00   0.00     0.00   0.00   0.00
  10   6     0.00   0.00  -0.00    -0.00   0.00  -0.00     0.00   0.00  -0.00
  11   6    -0.00   0.00   0.00     0.00  -0.00   0.00    -0.00  -0.00   0.00
  12   6    -0.00   0.00  -0.00     0.00  -0.00  -0.00    -0.00   0.00   0.00
  13   6    -0.00   0.00  -0.00     0.00  -0.00   0.00     0.00  -0.00  -0.00
  14   6     0.00   0.00  -0.00    -0.00  -0.00  -0.00     0.00   0.00   0.00
  15   6    -0.00   0.00  -0.00     0.00  -0.00  -0.00    -0.00   0.00  -0.00
  16   6     0.00   0.00  -0.00    -0.00  -0.00   0.00    -0.00  -0.00   0.00
  17   6     0.00  -0.00  -0.00    -0.00   0.00   0.00    -0.00   0.00   0.00
  18   6    -0.00  -0.00   0.00     0.00   0.00  -0.00    -0.00   0.00   0.00
  19   6     0.00   0.00   0.00    -0.00  -0.00   0.00     0.00  -0.00   0.00
  20   6    -0.00   0.00  -0.00     0.00  -0.00  -0.00     0.00   0.00   0.00
  21   1    -0.45   0.21   0.06     0.48  -0.24  -0.02    -0.57   0.26   0.05
  22   1    -0.26   0.19  -0.75    -0.14   0.08  -0.32     0.12  -0.10   0.35
  23   1     0.00  -0.02   0.03     0.45   0.47  -0.29     0.42   0.42  -0.28
  24   1    -0.01   0.00   0.00     0.01  -0.00  -0.00    -0.01   0.01   0.00
  25   1     0.00   0.00  -0.00     0.01   0.01  -0.01     0.01   0.01  -0.01
  26   1     0.00   0.00  -0.00    -0.00  -0.00  -0.00    -0.00  -0.00  -0.00
  27   1     0.00  -0.00  -0.00     0.00   0.00   0.00     0.00   0.00   0.00
  28   1    -0.00  -0.00   0.00     0.00   0.00  -0.00    -0.00  -0.00   0.00
  29   1    -0.00   0.00   0.00     0.00  -0.00   0.00     0.00  -0.00   0.00
  30   1     0.00  -0.00   0.00    -0.00   0.00  -0.00     0.00   0.00  -0.00
  31   1     0.00  -0.00  -0.00    -0.00   0.00   0.00     0.01  -0.00  -0.00
  32   1     0.00  -0.00   0.00    -0.00   0.00  -0.00    -0.00   0.00  -0.00
  33   1    -0.00  -0.00   0.00     0.00   0.00  -0.00    -0.00  -0.00   0.00
  34   1    -0.00  -0.00   0.00     0.00   0.00  -0.00     0.00   0.00   0.00
  35   1    -0.00   0.00   0.00     0.00  -0.00  -0.00     0.00  -0.00   0.00
  36   1    -0.00   0.00  -0.00     0.00  -0.00   0.00     0.00  -0.00   0.00
