 Entering Gaussian System
 *********************************************
 Gaussian 98:
 frequency output generated by the xtb code
 *********************************************
                         Standard orientation:
 --------------------------------------------------------------------
  Center     Atomic     Atomic              Coordinates (Angstroms)
  Number     Number      Type              X           Y           Z
 --------------------------------------------------------------------
    1          7             0       -1.263453   -1.439001    1.297277
    2          6             0       -0.545161   -2.248247    0.274746
    3          6             0       -0.034250   -1.385781   -0.876438
    4          6             0        0.797627   -0.243775   -0.409332
    5          6             0        0.334035    1.003628   -0.142273
    6          6             0        1.343391    1.902904    0.311842
    7          6             0        2.566549    1.332277    0.388179
    8         16             0        2.506068   -0.324853   -0.096298
    9         17             0       -3.231767    0.922436   -0.365370
   10          1             0       -0.608878   -0.799294    1.783134
   11          1             0       -1.724214   -2.022408    2.014850
   12          1             0       -1.982472   -0.844968    0.851938
   13          1             0       -1.205416   -3.038364   -0.105150
   14          1             0        0.295398   -2.766540    0.752114
   15          1             0       -0.882980   -0.993428   -1.449165
   16          1             0        0.548194   -1.989036   -1.583649
   17          1             0       -0.705904    1.274943   -0.250180
   18          1             0        1.145947    2.933975    0.569241
   19          1             0        3.466302    1.826653    0.705605
 --------------------------------------------------------------------
     1 basis functions        1 primitive gaussians
     1 alpha electrons        1 beta electrons

 Harmonic frequencies (cm**-1), IR intensities (km*mol⁻¹),
 Raman scattering activities (A**4/amu), Raman depolarization ratios,
 reduced masses (AMU), force constants (mDyne/A) and normal coordinates:
                      1                      2                      3
                        a                      a                      a 
 Frequencies --  -139.0420               -29.1159                64.4194
 Red. masses --    19.5810                19.6621                22.0491
 Frc consts  --     0.0000                 0.0000                 0.0000
 IR Inten    --   125.1307                 4.4489                17.4857
 Raman Activ --     0.0000                 0.0000                 0.0000
 Depolar     --     0.0000                 0.0000                 0.0000
 Atom AN      X      Y      Z        X      Y      Z        X      Y      Z
   1   7     0.39  -0.37   0.27    -0.12   0.08   0.01     0.09  -0.07  -0.01
   2   6     0.22  -0.17   0.00    -0.02  -0.03   0.16    -0.01  -0.15  -0.01
   3   6    -0.04  -0.00   0.02     0.12  -0.15   0.12     0.07  -0.22  -0.03
   4   6    -0.03  -0.01   0.01     0.06  -0.10   0.11    -0.07  -0.12  -0.03
   5   6    -0.02   0.00  -0.02    -0.06  -0.20   0.41    -0.23  -0.17  -0.08
   6   6    -0.01   0.00  -0.03    -0.09  -0.13   0.32    -0.35  -0.04  -0.06
   7   6    -0.02  -0.01   0.01     0.01   0.03  -0.05    -0.28   0.11  -0.01
   8  16    -0.05  -0.03   0.05     0.23   0.16  -0.50    -0.11   0.15   0.04
   9  17    -0.32   0.45  -0.26    -0.14   0.16  -0.23     0.59   0.30   0.10
  10   1     0.11  -0.05   0.00    -0.05   0.05  -0.02     0.06  -0.08   0.04
  11   1     0.22  -0.13   0.12    -0.03   0.04   0.02    -0.05  -0.00  -0.04
  12   1     0.03  -0.18   0.14    -0.04  -0.01  -0.03     0.09   0.06  -0.01
  13   1     0.06  -0.05   0.01     0.00  -0.01   0.05    -0.03  -0.03   0.00
  14   1     0.10  -0.05  -0.06    -0.02   0.00   0.09    -0.02  -0.07  -0.00
  15   1    -0.04   0.01   0.06     0.05  -0.06  -0.01     0.03  -0.09  -0.05
  16   1    -0.04   0.03  -0.04     0.06  -0.06   0.08     0.05  -0.07   0.03
  17   1    -0.01   0.00  -0.01    -0.03  -0.08   0.17    -0.08  -0.08  -0.03
  18   1    -0.00   0.00  -0.01    -0.05  -0.06   0.14    -0.14  -0.02  -0.03
  19   1    -0.01  -0.01   0.01     0.01   0.04  -0.06    -0.10   0.06   0.00
                      4                      5                      6
                        a                      a                      a 
 Frequencies --    85.9072               121.9686               179.3966
 Red. masses --    22.3661                10.9866                 9.0185
 Frc consts  --     0.0000                 0.0000                 0.0000
 IR Inten    --    17.2765                21.7121                 7.4082
 Raman Activ --     0.0000                 0.0000                 0.0000
 Depolar     --     0.0000                 0.0000                 0.0000
 Atom AN      X      Y      Z        X      Y      Z        X      Y      Z
   1   7    -0.06   0.11  -0.23    -0.40  -0.47  -0.01    -0.28  -0.10  -0.14
   2   6    -0.01  -0.04  -0.07    -0.10  -0.18  -0.03     0.48   0.04   0.28
   3   6     0.30  -0.22  -0.07     0.01   0.03   0.18     0.04  -0.05   0.03
   4   6     0.18  -0.14  -0.05     0.02   0.01   0.23    -0.03   0.09  -0.21
   5   6     0.06  -0.15  -0.20     0.07   0.07   0.05    -0.00   0.08  -0.16
   6   6    -0.06  -0.04  -0.16     0.12   0.14  -0.20     0.00  -0.02   0.04
   7   6    -0.02   0.06   0.01     0.14   0.16  -0.27    -0.04  -0.10   0.15
   8  16     0.26   0.03   0.25     0.11   0.13   0.04    -0.13  -0.06  -0.11
   9  17    -0.49   0.25   0.28     0.04   0.09   0.02     0.02   0.13   0.08
  10   1    -0.02   0.04  -0.07    -0.13  -0.22   0.15    -0.20   0.03   0.05
  11   1    -0.03   0.05  -0.05    -0.22  -0.18  -0.12    -0.13  -0.05  -0.09
  12   1    -0.02   0.03  -0.07    -0.01  -0.03  -0.02    -0.06  -0.08  -0.14
  13   1    -0.01   0.00  -0.03     0.01  -0.05  -0.09     0.31  -0.17   0.14
  14   1    -0.04  -0.03   0.03    -0.05  -0.06   0.01     0.23   0.23   0.16
  15   1     0.13  -0.09  -0.11     0.01   0.03   0.05    -0.04  -0.08   0.04
  16   1     0.14  -0.10   0.05     0.01   0.03   0.03     0.01  -0.01  -0.00
  17   1     0.01  -0.06  -0.09     0.02   0.02   0.03     0.00   0.04  -0.05
  18   1    -0.05  -0.01  -0.08     0.04   0.05  -0.10     0.01  -0.01   0.04
  19   1    -0.03   0.05   0.02     0.05   0.06  -0.12    -0.02  -0.05   0.09
                      7                      8                      9
                        a                      a                      a 
 Frequencies --   232.2231               260.3502               314.5935
 Red. masses --     7.7099                10.4022                10.2799
 Frc consts  --     0.0000                 0.0000                 0.0000
 IR Inten    --     8.7733                 7.8770                 5.4142
 Raman Activ --     0.0000                 0.0000                 0.0000
 Depolar     --     0.0000                 0.0000                 0.0000
 Atom AN      X      Y      Z        X      Y      Z        X      Y      Z
   1   7    -0.02   0.03  -0.31     0.26   0.15  -0.16    -0.03  -0.09   0.09
   2   6     0.11  -0.09  -0.06     0.20  -0.05  -0.03    -0.17  -0.09   0.01
   3   6     0.03  -0.02  -0.00     0.18  -0.07  -0.02     0.35  -0.21   0.10
   4   6    -0.10  -0.01   0.23    -0.16   0.08   0.16    -0.13   0.18   0.02
   5   6    -0.08  -0.00   0.25    -0.08   0.09   0.25     0.03   0.29  -0.14
   6   6     0.03   0.05  -0.07     0.09   0.04   0.02     0.16   0.11   0.02
   7   6     0.04   0.06  -0.29     0.07  -0.04  -0.22     0.05  -0.10   0.21
   8  16    -0.16  -0.07   0.17    -0.32  -0.16   0.08    -0.26   0.05  -0.23
   9  17     0.13   0.03   0.07    -0.13   0.01  -0.04     0.04  -0.02   0.01
  10   1    -0.07   0.31  -0.39     0.13  -0.20   0.18    -0.00   0.05  -0.08
  11   1     0.29   0.06   0.15    -0.23   0.08  -0.21     0.11  -0.03   0.10
  12   1    -0.24  -0.28  -0.07     0.30   0.28  -0.12    -0.10  -0.10   0.08
  13   1     0.07  -0.07   0.01     0.05  -0.02   0.01    -0.11   0.06  -0.06
  14   1     0.05   0.04   0.02     0.05  -0.02   0.00    -0.12  -0.14   0.02
  15   1     0.01  -0.01   0.00     0.06  -0.09  -0.06     0.18  -0.20  -0.18
  16   1     0.04   0.04  -0.01     0.15   0.02   0.04     0.29  -0.10   0.21
  17   1    -0.03   0.00   0.10    -0.02   0.05   0.10     0.02   0.12  -0.05
  18   1     0.03   0.03  -0.06     0.06   0.02  -0.01     0.08   0.03   0.02
  19   1     0.03   0.02  -0.15     0.05  -0.02  -0.13     0.03  -0.08   0.11
                     10                     11                     12
                        a                      a                      a 
 Frequencies --   391.6171               475.8623               531.6837
 Red. masses --    10.8203                12.5687                11.5719
 Frc consts  --     0.0000                 0.0000                 0.0000
 IR Inten    --    14.3861                 1.4582                 0.1359
 Raman Activ --     0.0000                 0.0000                 0.0000
 Depolar     --     0.0000                 0.0000                 0.0000
 Atom AN      X      Y      Z        X      Y      Z        X      Y      Z
   1   7    -0.14  -0.10   0.31     0.02  -0.01  -0.07     0.02   0.00  -0.05
   2   6     0.01   0.38  -0.06    -0.10  -0.28   0.10     0.03  -0.01   0.00
   3   6     0.21   0.05  -0.25    -0.18  -0.24   0.02     0.13   0.18   0.22
   4   6     0.08   0.11  -0.32    -0.05   0.02  -0.47     0.07   0.08   0.27
   5   6    -0.08  -0.07   0.15     0.16   0.05  -0.09    -0.04   0.18  -0.43
   6   6    -0.07  -0.08   0.13     0.12  -0.05   0.36    -0.22  -0.09   0.40
   7   6     0.02   0.05  -0.33     0.25   0.19  -0.22    -0.12   0.00  -0.35
   8  16    -0.07  -0.15   0.20    -0.11   0.22   0.21     0.11  -0.24  -0.03
   9  17     0.04  -0.02  -0.01    -0.01   0.00  -0.00    -0.00   0.00   0.01
  10   1    -0.10  -0.01   0.14     0.04   0.00  -0.07     0.01   0.01  -0.03
  11   1     0.05  -0.17   0.02    -0.03   0.08   0.03     0.00   0.02  -0.00
  12   1    -0.12  -0.06   0.17     0.04   0.01  -0.06     0.01  -0.01  -0.03
  13   1     0.02   0.09  -0.02    -0.06  -0.06   0.04    -0.01   0.05  -0.07
  14   1     0.01   0.12  -0.03    -0.04  -0.10   0.03    -0.03  -0.06   0.01
  15   1     0.12  -0.05  -0.21    -0.10  -0.09   0.05     0.03   0.08   0.09
  16   1     0.13  -0.08   0.07    -0.10  -0.08  -0.03     0.02   0.08   0.02
  17   1    -0.03  -0.04   0.06     0.06   0.08  -0.02    -0.00   0.03  -0.24
  18   1    -0.02  -0.03   0.06    -0.01  -0.04   0.19    -0.05  -0.06   0.25
  19   1     0.01   0.03  -0.14     0.09   0.03  -0.08    -0.05   0.01  -0.05
                     13                     14                     15
                        a                      a                      a 
 Frequencies --   582.7425               674.5952               728.2496
 Red. masses --    12.2209                17.1344                14.6235
 Frc consts  --     0.0000                 0.0000                 0.0000
 IR Inten    --     2.2008                 5.7222                 0.2985
 Raman Activ --     0.0000                 0.0000                 0.0000
 Depolar     --     0.0000                 0.0000                 0.0000
 Atom AN      X      Y      Z        X      Y      Z        X      Y      Z
   1   7    -0.02   0.03   0.09    -0.00  -0.01   0.02     0.01  -0.00  -0.02
   2   6     0.03   0.16  -0.08    -0.09  -0.08  -0.00     0.03   0.02   0.00
   3   6    -0.12  -0.13  -0.31    -0.26  -0.15  -0.22     0.02   0.10   0.10
   4   6    -0.19  -0.34   0.47    -0.36   0.13   0.03    -0.17   0.16  -0.02
   5   6     0.16  -0.08  -0.24    -0.17   0.24   0.02    -0.43   0.03  -0.08
   6   6     0.10  -0.15   0.13    -0.02   0.17   0.05     0.08  -0.56  -0.15
   7   6     0.20   0.08  -0.03    -0.09   0.02  -0.02     0.20  -0.32  -0.06
   8  16    -0.16   0.27  -0.02     0.57  -0.20   0.05     0.16   0.36   0.14
   9  17     0.01  -0.00   0.00     0.00  -0.01  -0.00    -0.00  -0.00  -0.00
  10   1    -0.02  -0.01   0.08     0.05  -0.03  -0.03    -0.01   0.01  -0.00
  11   1     0.02  -0.07  -0.02    -0.01   0.03   0.03    -0.00   0.00  -0.01
  12   1    -0.03   0.02   0.08     0.02   0.03   0.02     0.00  -0.01  -0.02
  13   1     0.07  -0.07   0.11     0.04  -0.15   0.13    -0.01   0.05  -0.04
  14   1     0.11   0.20  -0.04     0.08   0.13  -0.01    -0.02  -0.04  -0.00
  15   1     0.02  -0.03  -0.16    -0.03  -0.19  -0.22    -0.01  -0.00   0.03
  16   1     0.04  -0.04  -0.02     0.10  -0.05   0.08     0.03   0.05   0.02
  17   1     0.07   0.04  -0.14    -0.04   0.12   0.03    -0.11   0.08   0.03
  18   1    -0.03  -0.06   0.06     0.06   0.06   0.03     0.13  -0.15  -0.01
  19   1     0.06  -0.00   0.03    -0.05   0.04   0.01     0.01  -0.03   0.02
                     16                     17                     18
                        a                      a                      a 
 Frequencies --   758.9289               824.6537               844.6913
 Red. masses --     2.6330                12.5290                 4.2263
 Frc consts  --     0.0000                 0.0000                 0.0000
 IR Inten    --    14.8988                24.0476                35.3291
 Raman Activ --     0.0000                 0.0000                 0.0000
 Depolar     --     0.0000                 0.0000                 0.0000
 Atom AN      X      Y      Z        X      Y      Z        X      Y      Z
   1   7     0.01   0.02  -0.00     0.02  -0.01  -0.03     0.01   0.11   0.14
   2   6     0.00  -0.00   0.01     0.04   0.05   0.00     0.23  -0.00   0.07
   3   6    -0.00  -0.01   0.01    -0.00   0.05   0.08     0.10  -0.20  -0.26
   4   6     0.01  -0.01   0.01    -0.12   0.06  -0.01    -0.17  -0.04   0.07
   5   6     0.01  -0.02   0.07    -0.20  -0.05  -0.06    -0.04   0.07   0.01
   6   6     0.02   0.06  -0.13     0.03  -0.21  -0.07     0.02   0.09   0.04
   7   6     0.05   0.10  -0.33     0.37   0.59   0.24    -0.03  -0.01  -0.01
   8  16    -0.01  -0.02   0.02    -0.04  -0.35  -0.10     0.10  -0.02   0.01
   9  17    -0.00  -0.00  -0.00     0.00   0.00   0.00     0.00   0.00   0.01
  10   1    -0.00   0.00   0.01    -0.03   0.02   0.01    -0.33   0.21   0.24
  11   1    -0.00  -0.00  -0.01     0.01  -0.02  -0.02    -0.07  -0.09  -0.12
  12   1    -0.00  -0.01  -0.00    -0.00  -0.02  -0.02    -0.04  -0.20  -0.20
  13   1    -0.01   0.01  -0.00    -0.02   0.06  -0.04    -0.25   0.28  -0.03
  14   1    -0.00  -0.01  -0.00    -0.02  -0.04  -0.01    -0.12  -0.35  -0.05
  15   1    -0.00  -0.01   0.00    -0.01  -0.02   0.01    -0.11  -0.01   0.16
  16   1     0.00   0.00   0.00     0.03   0.03   0.04    -0.10   0.06  -0.27
  17   1    -0.03  -0.05   0.16    -0.05   0.03   0.02     0.00   0.08  -0.00
  18   1    -0.05  -0.06   0.21    -0.17  -0.09  -0.02     0.04   0.04  -0.02
  19   1    -0.16  -0.24   0.83    -0.01   0.36   0.09     0.00  -0.02  -0.01
                     19                     20                     21
                        a                      a                      a 
 Frequencies --   866.6713               888.0270               910.0474
 Red. masses --     3.0006                 6.3160                 3.4044
 Frc consts  --     0.0000                 0.0000                 0.0000
 IR Inten    --     7.1182                 8.3917                13.8341
 Raman Activ --     0.0000                 0.0000                 0.0000
 Depolar     --     0.0000                 0.0000                 0.0000
 Atom AN      X      Y      Z        X      Y      Z        X      Y      Z
   1   7    -0.05   0.01   0.01     0.26  -0.16  -0.20    -0.02  -0.04   0.09
   2   6     0.00  -0.04  -0.00     0.00   0.27   0.09     0.00  -0.08   0.02
   3   6     0.05  -0.00  -0.02    -0.33   0.12   0.26    -0.00   0.10  -0.06
   4   6     0.01   0.03  -0.04    -0.04  -0.07  -0.05     0.03   0.03  -0.04
   5   6    -0.05  -0.02   0.10     0.14  -0.09   0.00    -0.06  -0.11   0.36
   6   6    -0.06  -0.11   0.34    -0.03  -0.00   0.07     0.03   0.02  -0.19
   7   6     0.05   0.06  -0.12    -0.05  -0.03  -0.04     0.01   0.00  -0.01
   8  16     0.01  -0.01  -0.05     0.02   0.05   0.01    -0.01   0.01  -0.02
   9  17     0.00  -0.00   0.00    -0.00   0.00   0.01     0.00  -0.00   0.01
  10   1     0.04  -0.02  -0.03    -0.17   0.11   0.07    -0.02   0.05  -0.04
  11   1     0.01   0.01   0.03    -0.04  -0.07  -0.15    -0.09   0.12   0.07
  12   1    -0.01   0.05   0.07     0.08  -0.20  -0.28     0.06  -0.03  -0.10
  13   1     0.02  -0.03  -0.01    -0.11   0.18  -0.00    -0.01  -0.01   0.01
  14   1    -0.01   0.00   0.04     0.03  -0.06  -0.18     0.03  -0.03  -0.05
  15   1    -0.02   0.01   0.05     0.05  -0.13  -0.23     0.02  -0.00  -0.07
  16   1    -0.02   0.02  -0.05     0.10  -0.14   0.37     0.05   0.03   0.02
  17   1     0.05   0.09  -0.30     0.04  -0.03  -0.03     0.14   0.20  -0.76
  18   1     0.15   0.21  -0.75    -0.01   0.04  -0.14    -0.06  -0.09   0.26
  19   1    -0.05  -0.05   0.26     0.00  -0.05   0.02    -0.01   0.00   0.03
                     22                     23                     24
                        a                      a                      a 
 Frequencies --   912.7650              1018.8968              1040.8875
 Red. masses --     5.2423                 7.1459                 6.2773
 Frc consts  --     0.0000                 0.0000                 0.0000
 IR Inten    --    22.7291                 3.8246                24.7956
 Raman Activ --     0.0000                 0.0000                 0.0000
 Depolar     --     0.0000                 0.0000                 0.0000
 Atom AN      X      Y      Z        X      Y      Z        X      Y      Z
   1   7    -0.08  -0.04   0.32    -0.22   0.16   0.14     0.05   0.35   0.07
   2   6    -0.01  -0.27   0.02     0.37  -0.10  -0.21    -0.03  -0.40  -0.28
   3   6     0.02   0.26  -0.23    -0.13   0.16   0.13    -0.11   0.05   0.16
   4   6     0.14   0.04   0.04    -0.27  -0.08  -0.08     0.16   0.10  -0.04
   5   6     0.04   0.01  -0.12     0.25  -0.13  -0.00    -0.01  -0.01   0.01
   6   6    -0.03  -0.08   0.03    -0.02  -0.03  -0.01    -0.01  -0.03  -0.00
   7   6     0.02   0.01   0.00    -0.06  -0.02  -0.02     0.02  -0.01   0.00
   8  16    -0.06  -0.00  -0.01     0.06   0.03   0.02    -0.04   0.00  -0.01
   9  17    -0.01   0.00   0.01     0.00  -0.00  -0.00     0.01  -0.00   0.00
  10   1    -0.06   0.14  -0.08     0.07  -0.03  -0.04    -0.25   0.12   0.32
  11   1    -0.28   0.36   0.22     0.01   0.08   0.11     0.10  -0.26  -0.21
  12   1     0.16  -0.12  -0.34    -0.06   0.14   0.16    -0.16  -0.05   0.12
  13   1    -0.01  -0.09   0.07     0.08   0.12  -0.33    -0.05  -0.22   0.23
  14   1     0.10  -0.04  -0.15    -0.06  -0.18   0.04     0.11   0.06  -0.10
  15   1     0.10   0.07  -0.21    -0.12  -0.26  -0.04     0.04  -0.02  -0.07
  16   1     0.13   0.08   0.03     0.21   0.18   0.11     0.15   0.14   0.07
  17   1    -0.05  -0.11   0.22     0.08   0.02   0.05    -0.03  -0.13  -0.07
  18   1    -0.00   0.01  -0.11    -0.20  -0.04  -0.05     0.05  -0.00   0.00
  19   1    -0.01   0.02   0.01     0.02  -0.06  -0.03    -0.01   0.03  -0.00
                     25                     26                     27
                        a                      a                      a 
 Frequencies --  1065.4971              1078.2855              1086.5241
 Red. masses --     5.3700                 6.1273                 2.5862
 Frc consts  --     0.0000                 0.0000                 0.0000
 IR Inten    --     8.1027                11.4501                 0.7935
 Raman Activ --     0.0000                 0.0000                 0.0000
 Depolar     --     0.0000                 0.0000                 0.0000
 Atom AN      X      Y      Z        X      Y      Z        X      Y      Z
   1   7     0.07  -0.02  -0.08    -0.06   0.06   0.20    -0.05  -0.02  -0.07
   2   6    -0.14  -0.05   0.17     0.11   0.10  -0.45     0.11  -0.02   0.15
   3   6     0.08   0.09  -0.09    -0.00  -0.30   0.28    -0.14   0.08  -0.14
   4   6    -0.06   0.03  -0.02     0.01  -0.05  -0.02     0.11  -0.02   0.05
   5   6     0.39   0.11   0.10     0.03   0.09   0.04     0.04  -0.02  -0.00
   6   6    -0.09  -0.25  -0.09     0.01  -0.03  -0.00     0.08   0.00   0.01
   7   6    -0.17  -0.13  -0.07    -0.08  -0.04  -0.03    -0.05  -0.06  -0.03
   8  16    -0.01   0.01   0.00    -0.02  -0.00  -0.01    -0.08   0.02  -0.01
   9  17     0.00  -0.00  -0.00    -0.00  -0.00   0.00    -0.00   0.00  -0.00
  10   1    -0.03  -0.01   0.04    -0.04   0.08  -0.01     0.06  -0.05  -0.04
  11   1     0.05  -0.09  -0.07    -0.10   0.13   0.08     0.04  -0.01   0.01
  12   1    -0.02  -0.02   0.02     0.05  -0.02  -0.10    -0.02   0.06   0.08
  13   1    -0.05  -0.05   0.14     0.11  -0.02  -0.15    -0.03   0.09  -0.06
  14   1    -0.03   0.02   0.07     0.14   0.11  -0.22    -0.08  -0.14   0.10
  15   1     0.02   0.05  -0.01     0.06   0.09   0.10    -0.08  -0.16  -0.09
  16   1     0.07   0.11  -0.06    -0.22  -0.28   0.07     0.07   0.04   0.03
  17   1     0.21   0.43   0.17     0.06   0.22   0.06    -0.06  -0.31  -0.09
  18   1    -0.23  -0.11  -0.08     0.19   0.02   0.04     0.54   0.07   0.13
  19   1    -0.29   0.36   0.04    -0.21   0.29   0.05    -0.31   0.48   0.07
                     28                     29                     30
                        a                      a                      a 
 Frequencies --  1162.0029              1194.2397              1224.3555
 Red. masses --     7.6211                 4.5318                 4.6006
 Frc consts  --     0.0000                 0.0000                 0.0000
 IR Inten    --    29.2123                 4.0835                 8.8267
 Raman Activ --     0.0000                 0.0000                 0.0000
 Depolar     --     0.0000                 0.0000                 0.0000
 Atom AN      X      Y      Z        X      Y      Z        X      Y      Z
   1   7     0.12  -0.06   0.05     0.03  -0.08   0.04    -0.12   0.06  -0.09
   2   6    -0.25   0.12  -0.06    -0.07   0.15  -0.13     0.14  -0.14   0.15
   3   6     0.27   0.04   0.19    -0.03  -0.22   0.01     0.12   0.12   0.01
   4   6    -0.47  -0.13  -0.19     0.07   0.24   0.09    -0.36  -0.02  -0.07
   5   6     0.09  -0.25  -0.06     0.11   0.22   0.08     0.03  -0.01   0.01
   6   6     0.10   0.11   0.05     0.04  -0.02   0.00     0.13   0.12   0.06
   7   6    -0.05   0.01  -0.01     0.13  -0.23  -0.04     0.06  -0.16  -0.03
   8  16     0.05   0.01   0.01    -0.01   0.03   0.01     0.04   0.02   0.01
   9  17    -0.00   0.00   0.00    -0.00   0.00   0.00    -0.00   0.00  -0.00
  10   1    -0.04   0.06   0.01    -0.01   0.04  -0.04     0.05  -0.07  -0.00
  11   1    -0.08   0.04  -0.01    -0.06   0.06   0.03     0.07  -0.02   0.01
  12   1     0.05  -0.10  -0.13     0.05  -0.03  -0.07    -0.06   0.09   0.12
  13   1     0.07  -0.10   0.03     0.00  -0.01   0.03    -0.11   0.06   0.10
  14   1     0.02   0.20   0.01    -0.01   0.08   0.00     0.14  -0.12  -0.25
  15   1     0.01   0.07   0.17    -0.18  -0.25   0.12     0.27   0.41  -0.09
  16   1     0.19   0.36  -0.15    -0.01   0.06  -0.10    -0.17  -0.25   0.08
  17   1    -0.01  -0.18  -0.05    -0.10  -0.48  -0.15    -0.06  -0.27  -0.09
  18   1     0.19   0.05   0.05    -0.47  -0.07  -0.11    -0.23  -0.00  -0.04
  19   1    -0.06   0.08   0.01    -0.10   0.17   0.03    -0.09   0.15   0.03
                     31                     32                     33
                        a                      a                      a 
 Frequencies --  1233.3734              1321.0916              1322.1920
 Red. masses --     2.8758                 7.8447                 4.0441
 Frc consts  --     0.0000                 0.0000                 0.0000
 IR Inten    --    34.5001                 7.9968                23.5582
 Raman Activ --     0.0000                 0.0000                 0.0000
 Depolar     --     0.0000                 0.0000                 0.0000
 Atom AN      X      Y      Z        X      Y      Z        X      Y      Z
   1   7     0.21   0.11   0.09     0.00  -0.06   0.02     0.06  -0.16  -0.03
   2   6    -0.13  -0.15   0.01     0.08   0.05  -0.09     0.15   0.02  -0.34
   3   6    -0.00   0.15  -0.11    -0.15  -0.05   0.05     0.13   0.25   0.01
   4   6    -0.09  -0.02   0.02     0.20  -0.15  -0.04    -0.13  -0.00  -0.00
   5   6    -0.01   0.02   0.01    -0.37  -0.21  -0.13     0.06  -0.05  -0.00
   6   6     0.04   0.04   0.01     0.25   0.37   0.15    -0.00  -0.02  -0.01
   7   6     0.03  -0.06  -0.01     0.13  -0.26  -0.05    -0.03   0.04   0.01
   8  16     0.01   0.01   0.00    -0.03   0.03   0.00     0.01  -0.00   0.00
   9  17     0.00  -0.00   0.00     0.00  -0.00   0.00    -0.00  -0.00   0.00
  10   1    -0.11   0.10   0.14    -0.03   0.05  -0.04    -0.10   0.08  -0.01
  11   1    -0.05  -0.05  -0.11    -0.01   0.01   0.01    -0.14   0.17   0.06
  12   1    -0.02  -0.16  -0.08     0.05   0.05   0.01    -0.00   0.04   0.13
  13   1     0.34  -0.13  -0.46    -0.05   0.02   0.09    -0.25  -0.04   0.49
  14   1    -0.23   0.05   0.45    -0.12  -0.02   0.20    -0.22  -0.00   0.38
  15   1     0.07   0.09  -0.10     0.08   0.11  -0.08    -0.09  -0.11   0.07
  16   1    -0.18  -0.27   0.09     0.16   0.19  -0.01    -0.16  -0.27   0.13
  17   1    -0.02  -0.08  -0.03    -0.03   0.27   0.07     0.01  -0.03   0.00
  18   1    -0.09  -0.00  -0.02    -0.27   0.06  -0.03     0.05  -0.00   0.02
  19   1    -0.03   0.05   0.01    -0.13   0.22   0.04     0.01  -0.03  -0.00
                     34                     35                     36
                        a                      a                      a 
 Frequencies --  1338.8010              1376.2815              1403.5264
 Red. masses --     5.0382                 2.3477                 1.8348
 Frc consts  --     0.0000                 0.0000                 0.0000
 IR Inten    --     3.1196               117.8924               103.0719
 Raman Activ --     0.0000                 0.0000                 0.0000
 Depolar     --     0.0000                 0.0000                 0.0000
 Atom AN      X      Y      Z        X      Y      Z        X      Y      Z
   1   7    -0.02   0.07  -0.02    -0.24   0.09   0.14     0.02  -0.22  -0.05
   2   6    -0.17  -0.09   0.10     0.03   0.02  -0.11    -0.06  -0.05   0.06
   3   6     0.27   0.33  -0.08     0.03   0.06   0.03     0.01  -0.01  -0.01
   4   6     0.02  -0.09   0.04    -0.04   0.01  -0.00    -0.01  -0.01  -0.00
   5   6    -0.15  -0.17  -0.08     0.03  -0.01   0.00     0.02   0.03   0.01
   6   6     0.13   0.17   0.07    -0.00  -0.01  -0.00    -0.02  -0.02  -0.01
   7   6     0.03  -0.10  -0.02    -0.01   0.01   0.00     0.00   0.01   0.01
   8  16    -0.01   0.01   0.00     0.00   0.00   0.00     0.00  -0.00   0.00
   9  17     0.00   0.00  -0.00    -0.01   0.00   0.00    -0.01  -0.00  -0.01
  10   1    -0.01  -0.01   0.04     0.12  -0.12  -0.02    -0.44   0.46  -0.03
  11   1     0.06  -0.06  -0.02     0.50  -0.33   0.08     0.17  -0.04   0.09
  12   1    -0.01   0.01  -0.01     0.36   0.08  -0.54     0.35   0.56   0.18
  13   1     0.04  -0.05  -0.05    -0.03  -0.06   0.14     0.05   0.01  -0.13
  14   1     0.18   0.04  -0.31    -0.10  -0.03   0.14     0.05   0.03  -0.05
  15   1    -0.33  -0.47   0.19     0.01  -0.03  -0.05     0.01   0.02  -0.01
  16   1    -0.15  -0.23   0.07    -0.07  -0.05  -0.00    -0.00   0.01  -0.02
  17   1     0.00   0.15   0.05    -0.00  -0.03  -0.01    -0.01  -0.03   0.01
  18   1    -0.09   0.03  -0.00     0.02  -0.00  -0.00     0.02  -0.00   0.01
  19   1    -0.05   0.09   0.01     0.00  -0.01   0.00     0.02  -0.02   0.00
                     37                     38                     39
                        a                      a                      a 
 Frequencies --  1436.1315              1463.3849              1482.5151
 Red. masses --     1.9544                 1.9684                 9.3460
 Frc consts  --     0.0000                 0.0000                 0.0000
 IR Inten    --    96.7614                12.8439                13.2613
 Raman Activ --     0.0000                 0.0000                 0.0000
 Depolar     --     0.0000                 0.0000                 0.0000
 Atom AN      X      Y      Z        X      Y      Z        X      Y      Z
   1   7    -0.01   0.03   0.26    -0.02   0.01   0.02    -0.00  -0.00   0.01
   2   6     0.03   0.00   0.01    -0.01   0.04  -0.02     0.02  -0.13  -0.01
   3   6     0.02   0.04   0.01    -0.06  -0.06  -0.26     0.05   0.09   0.03
   4   6    -0.02  -0.03  -0.01     0.01  -0.03  -0.02    -0.02  -0.36  -0.11
   5   6     0.01   0.02   0.00     0.00   0.05   0.01     0.00   0.27   0.08
   6   6    -0.02  -0.01  -0.01    -0.05   0.01  -0.01    -0.51   0.14  -0.06
   7   6     0.01   0.00   0.00     0.04  -0.02   0.00     0.43  -0.19   0.03
   8  16     0.00  -0.00   0.00     0.00  -0.00   0.00     0.01  -0.01   0.00
   9  17    -0.00  -0.00   0.00    -0.00   0.00   0.00     0.00   0.00   0.00
  10   1     0.20   0.27  -0.58     0.00   0.00  -0.00     0.03  -0.02  -0.01
  11   1    -0.30  -0.37  -0.48     0.03  -0.03   0.00     0.01  -0.02  -0.01
  12   1     0.04   0.06   0.04     0.03   0.01  -0.05     0.01  -0.02  -0.03
  13   1     0.01  -0.03   0.06     0.07  -0.08   0.02    -0.22   0.22  -0.08
  14   1    -0.01  -0.07  -0.03    -0.04  -0.08  -0.03     0.12   0.29   0.11
  15   1     0.00  -0.01  -0.01    -0.23   0.32   0.54    -0.01  -0.03   0.01
  16   1    -0.02  -0.02   0.00     0.45  -0.14   0.47     0.03   0.03   0.01
  17   1    -0.00  -0.01   0.00    -0.01  -0.03  -0.01    -0.02   0.01  -0.00
  18   1     0.01  -0.00   0.00     0.00   0.00   0.00     0.06   0.08   0.03
  19   1     0.00  -0.00   0.00     0.01   0.01   0.00     0.06   0.07   0.03
                     40                     41                     42
                        a                      a                      a 
 Frequencies --  1487.5422              1581.9910              2934.2744
 Red. masses --     4.1415                11.4529                 1.9554
 Frc consts  --     0.0000                 0.0000                 0.0000
 IR Inten    --    18.4229                 0.1295               844.4336
 Raman Activ --     0.0000                 0.0000                 0.0000
 Depolar     --     0.0000                 0.0000                 0.0000
 Atom AN      X      Y      Z        X      Y      Z        X      Y      Z
   1   7    -0.01  -0.01   0.03     0.00  -0.00   0.01     0.15  -0.11   0.11
   2   6     0.03  -0.24   0.01    -0.00  -0.01   0.01    -0.15  -0.00  -0.09
   3   6    -0.03  -0.05  -0.07    -0.05  -0.11  -0.05     0.02  -0.01   0.01
   4   6     0.02   0.18   0.05    -0.09   0.58   0.15     0.00   0.00   0.00
   5   6    -0.01  -0.12  -0.04     0.16  -0.51  -0.11    -0.01   0.00  -0.00
   6   6     0.29  -0.08   0.03    -0.36   0.16  -0.02     0.00  -0.00  -0.00
   7   6    -0.24   0.11  -0.02     0.29  -0.16   0.01    -0.00  -0.00  -0.00
   8  16    -0.01   0.00  -0.00    -0.01  -0.00  -0.00     0.00  -0.00   0.00
   9  17    -0.00   0.00   0.00    -0.00  -0.00  -0.00    -0.00   0.01  -0.00
  10   1     0.04  -0.00  -0.06     0.00   0.01  -0.02    -0.03  -0.05  -0.02
  11   1    -0.00  -0.06  -0.04    -0.00  -0.01  -0.01     0.02   0.01  -0.00
  12   1     0.03  -0.01  -0.05     0.01   0.01   0.00    -0.53   0.41  -0.33
  13   1    -0.37   0.39  -0.18    -0.01   0.01  -0.02     0.18   0.23   0.10
  14   1     0.21   0.51   0.19     0.01   0.01   0.00     0.38  -0.24   0.22
  15   1    -0.03   0.06   0.08     0.01   0.04   0.00    -0.07   0.04  -0.05
  16   1     0.05  -0.05   0.07    -0.05  -0.06  -0.01     0.00  -0.00  -0.00
  17   1     0.01  -0.01  -0.00     0.11   0.09   0.05     0.04  -0.01   0.00
  18   1    -0.04  -0.04  -0.02     0.10   0.08   0.04    -0.00   0.00   0.00
  19   1    -0.03  -0.04  -0.02     0.04   0.04   0.02     0.00   0.00   0.00
                     43                     44                     45
                        a                      a                      a 
 Frequencies --  2939.6885              2946.7484              2966.1772
 Red. masses --     1.9577                 1.9215                 1.5397
 Frc consts  --     0.0000                 0.0000                 0.0000
 IR Inten    --   127.9026               220.5111                11.5272
 Raman Activ --     0.0000                 0.0000                 0.0000
 Depolar     --     0.0000                 0.0000                 0.0000
 Atom AN      X      Y      Z        X      Y      Z        X      Y      Z
   1   7    -0.07   0.05  -0.05    -0.09   0.07  -0.06    -0.01   0.01  -0.01
   2   6    -0.09  -0.01  -0.05    -0.17  -0.08  -0.09     0.03   0.09   0.02
   3   6     0.20  -0.15  -0.04    -0.09   0.08   0.06     0.07   0.01   0.18
   4   6     0.01  -0.00  -0.00    -0.00   0.00   0.00     0.00   0.00   0.00
   5   6     0.00   0.00  -0.00     0.01  -0.00   0.00    -0.00  -0.00  -0.00
   6   6     0.00   0.00   0.00    -0.00  -0.00  -0.00     0.00  -0.00  -0.00
   7   6     0.00   0.00   0.00     0.00   0.00   0.00    -0.00  -0.00  -0.00
   8  16    -0.00  -0.00   0.00     0.00   0.00  -0.00    -0.00  -0.00  -0.00
   9  17     0.00  -0.00   0.00     0.00  -0.00   0.00     0.00  -0.00   0.00
  10   1     0.01   0.01   0.01     0.01   0.02   0.01     0.01   0.01   0.01
  11   1    -0.01  -0.00   0.00    -0.01  -0.01   0.01    -0.00  -0.00   0.00
  12   1     0.23  -0.17   0.14     0.32  -0.24   0.20     0.03  -0.03   0.02
  13   1     0.13   0.16   0.07     0.39   0.46   0.23    -0.24  -0.26  -0.14
  14   1     0.20  -0.13   0.11     0.21  -0.15   0.12     0.15  -0.07   0.08
  15   1    -0.39   0.18  -0.28     0.07  -0.03   0.06    -0.55   0.27  -0.35
  16   1    -0.34   0.36   0.43     0.25  -0.26  -0.29     0.30  -0.30  -0.32
  17   1    -0.01   0.00  -0.00    -0.03   0.01  -0.00     0.01  -0.00   0.00
  18   1     0.00  -0.00  -0.00     0.00  -0.00   0.00    -0.00   0.00   0.00
  19   1    -0.00   0.00  -0.00    -0.00  -0.00  -0.00     0.00   0.00   0.00
                     46                     47                     48
                        a                      a                      a 
 Frequencies --  2971.0773              3065.2723              3077.1545
 Red. masses --     1.5914                 1.8756                 1.8782
 Frc consts  --     0.0000                 0.0000                 0.0000
 IR Inten    --    31.0494               178.2579                17.7652
 Raman Activ --     0.0000                 0.0000                 0.0000
 Depolar     --     0.0000                 0.0000                 0.0000
 Atom AN      X      Y      Z        X      Y      Z        X      Y      Z
   1   7    -0.05   0.03  -0.03    -0.01   0.01  -0.01    -0.00   0.00  -0.00
   2   6    -0.07   0.17  -0.04    -0.00   0.00  -0.00    -0.00   0.00  -0.00
   3   6    -0.07   0.03  -0.07    -0.00   0.00  -0.00    -0.00   0.00  -0.00
   4   6    -0.00  -0.00  -0.00    -0.01  -0.01  -0.00    -0.00  -0.00  -0.00
   5   6     0.01  -0.00   0.00    -0.26   0.07  -0.03    -0.08   0.02  -0.01
   6   6    -0.00   0.00   0.00     0.02  -0.07  -0.02    -0.05   0.25   0.06
   7   6     0.00   0.00   0.00     0.01   0.00   0.00    -0.02  -0.01  -0.01
   8  16     0.00   0.00  -0.00     0.00  -0.00   0.00     0.00  -0.00  -0.00
   9  17     0.00  -0.00   0.00     0.00   0.00   0.00     0.00   0.00  -0.00
  10   1     0.02   0.03   0.02     0.01   0.01   0.00     0.00   0.00   0.00
  11   1    -0.01  -0.00   0.00    -0.00  -0.00   0.00     0.00   0.00  -0.00
  12   1     0.15  -0.12   0.10     0.04  -0.03   0.02     0.01  -0.01   0.00
  13   1    -0.31  -0.32  -0.19    -0.00  -0.00  -0.00     0.00   0.00   0.00
  14   1     0.56  -0.31   0.31     0.00  -0.00   0.00     0.00  -0.00   0.00
  15   1     0.31  -0.15   0.20     0.02  -0.01   0.01     0.00  -0.00   0.00
  16   1    -0.05   0.05   0.04     0.00  -0.00  -0.00     0.00  -0.00  -0.00
  17   1    -0.03   0.01  -0.00     0.88  -0.24   0.09     0.26  -0.07   0.03
  18   1     0.00  -0.00  -0.00    -0.05   0.26   0.06     0.17  -0.87  -0.22
  19   1    -0.00  -0.00  -0.00    -0.02  -0.01  -0.01     0.09   0.05   0.03
                     49                     50                     51
                        a                      a                      a 
 Frequencies --  3133.1797              3150.3389              3191.9467
 Red. masses --     1.8863                 1.8071                 1.7005
 Frc consts  --     0.0000                 0.0000                 0.0000
 IR Inten    --     8.5975                45.0206                31.3323
 Raman Activ --     0.0000                 0.0000                 0.0000
 Depolar     --     0.0000                 0.0000                 0.0000
 Atom AN      X      Y      Z        X      Y      Z        X      Y      Z
   1   7     0.00   0.00   0.00     0.15   0.18   0.08    -0.10  -0.12   0.17
   2   6     0.00   0.00   0.00     0.00   0.01   0.01    -0.00  -0.00   0.00
   3   6     0.00  -0.00   0.00    -0.00   0.00   0.00     0.00   0.00   0.00
   4   6    -0.00  -0.00  -0.00    -0.00  -0.00   0.00     0.00   0.00   0.00
   5   6    -0.00  -0.00  -0.00    -0.00   0.00   0.00    -0.00   0.00   0.00
   6   6    -0.01   0.04   0.01     0.00   0.00   0.00     0.00  -0.00  -0.00
   7   6     0.24   0.12   0.08    -0.00  -0.00  -0.00    -0.00  -0.00  -0.00
   8  16     0.00  -0.00  -0.00    -0.00  -0.00  -0.00     0.00   0.00   0.00
   9  17     0.00   0.00   0.00     0.00  -0.00   0.00    -0.00   0.00  -0.00
  10   1    -0.00  -0.00  -0.00    -0.62  -0.58  -0.45    -0.09  -0.09  -0.04
  11   1     0.00   0.00  -0.00    -0.03  -0.05   0.09     0.43   0.56  -0.65
  12   1    -0.00   0.00  -0.00     0.08  -0.03   0.05     0.02  -0.04   0.03
  13   1    -0.00  -0.00  -0.00    -0.02  -0.02  -0.01    -0.00  -0.00  -0.00
  14   1    -0.00  -0.00  -0.00     0.01  -0.01   0.00     0.00  -0.00   0.00
  15   1    -0.00   0.00  -0.00     0.00  -0.00   0.00    -0.00   0.00  -0.00
  16   1     0.00  -0.00  -0.00     0.00  -0.00  -0.00     0.00  -0.00  -0.00
  17   1     0.00   0.00   0.00     0.01  -0.00   0.00     0.00  -0.00   0.00
  18   1     0.02  -0.10  -0.03    -0.00   0.00  -0.00    -0.00   0.00   0.00
  19   1    -0.80  -0.43  -0.28     0.00   0.00   0.00     0.00   0.00   0.00
