20
 energy: -27.569643496743 gnorm: 0.000355744890 xtb: 6.5.1 (fef0646)
N            0.81683822173325       -0.03510275910200       -0.02342737835862
C            2.28378742499269        0.18608923741897       -0.02826783635792
C            2.90629583358038       -0.36664345945016        1.25144740878390
C            4.43366858167423       -0.36499920817588        1.19868962294680
C            5.03693294910337        1.04000032666898        1.17410799711863
C            6.54065711325077        0.99135889050835        1.29741636679378
O            7.16823360702105        2.16949994921405        1.30401905441385
O            7.18036557105204       -0.03163732558450        1.38568009128093
H            0.38810330181711        0.34083963188348       -0.87688833187015
H            0.39279029378303        0.42602027754283        0.79013392872599
H            0.60983066462901       -1.03951070041224        0.03247892297194
H            2.47467962690972        1.25467724423435       -0.11347102740276
H            2.71862454391912       -0.31774818298027       -0.89151278445108
H            2.58761827246884       -1.39932187539011        1.39600877484297
H            2.58171256365471        0.21391313000735        2.11550292093502
H            4.78567218025415       -0.91669417035680        0.32573379346677
H            4.82618894656455       -0.88560726022923        2.07391689814817
H            4.65018879503751        1.63072643373789        2.00797308899462
H            4.79996109661205        1.55238385476327        0.24000051125907
H            6.57537041194243        2.93966596570169        1.23026797775804
