      -----------------------------------------------------------      
     |                   =====================                   |     
     |                           x T B                           |     
     |                   =====================                   |     
     |                         S. Grimme                         |     
     |          Mulliken Center for Theoretical Chemistry        |     
     |                    University of Bonn                     |     
      -----------------------------------------------------------      

   * xtb version 6.5.1 (fef0646) compiled by 'conda@b96dff2e9fd6' on 2023-01-04

   xtb is free software: you can redistribute it and/or modify it under
   the terms of the GNU Lesser General Public License as published by
   the Free Software Foundation, either version 3 of the License, or
   (at your option) any later version.
   
   xtb is distributed in the hope that it will be useful,
   but WITHOUT ANY WARRANTY; without even the implied warranty of
   MERCHANTABILITY or FITNESS FOR A PARTICULAR PURPOSE.  See the
   GNU Lesser General Public License for more details.
   
   Cite this work as:
   * C. Bannwarth, E. Caldeweyher, S. Ehlert, A. Hansen, P. Pracht,
     J. Seibert, S. Spicher, S. Grimme, WIREs Comput. Mol. Sci., 2020, 11,
     e01493. DOI: 10.1002/wcms.1493
   
   for GFN2-xTB:
   * C. Bannwarth, S. Ehlert and S. Grimme., J. Chem. Theory Comput., 2019,
     15, 1652-1671. DOI: 10.1021/acs.jctc.8b01176
   for GFN1-xTB:
   * S. Grimme, C. Bannwarth, P. Shushkov, J. Chem. Theory Comput., 2017,
     13, 1989-2009. DOI: 10.1021/acs.jctc.7b00118
   for GFN0-xTB:
   * P. Pracht, E. Caldeweyher, S. Ehlert, S. Grimme, ChemRxiv, 2019, preprint.
     DOI: 10.26434/chemrxiv.8326202.v1
   for GFN-FF:
   * S. Spicher and S. Grimme, Angew. Chem. Int. Ed., 2020, 59, 15665-15673.
     DOI: 10.1002/anie.202004239
   
   for ALPB and GBSA implicit solvation:
   * S. Ehlert, M. Stahn, S. Spicher, S. Grimme, J. Chem. Theory Comput.,
     2021, 17, 4250-4261. DOI: 10.1021/acs.jctc.1c00471
   
   for DFT-D4:
   * E. Caldeweyher, C. Bannwarth and S. Grimme, J. Chem. Phys., 2017,
     147, 034112. DOI: 10.1063/1.4993215
   * E. Caldeweyher, S. Ehlert, A. Hansen, H. Neugebauer, S. Spicher,
     C. Bannwarth and S. Grimme, J. Chem. Phys., 2019, 150, 154122.
     DOI: 10.1063/1.5090222
   * E. Caldeweyher, J.-M. Mewes, S. Ehlert and S. Grimme, Phys. Chem. Chem. Phys.
     2020, 22, 8499-8512. DOI: 10.1039/D0CP00502A
   
   for sTDA-xTB:
   * S. Grimme and C. Bannwarth, J. Chem. Phys., 2016, 145, 054103.
     DOI: 10.1063/1.4959605
   
   in the mass-spec context:
   * V. Asgeirsson, C. Bauer and S. Grimme, Chem. Sci., 2017, 8, 4879.
     DOI: 10.1039/c7sc00601b
   * J. Koopman and S. Grimme, ACS Omega 2019, 4, 12, 15120-15133.
     DOI: 10.1021/acsomega.9b02011
   
   for metadynamics refer to:
   * S. Grimme, J. Chem. Theory Comput., 2019, 155, 2847-2862
     DOI: 10.1021/acs.jctc.9b00143
   
   for SPH calculations refer to:
   * S. Spicher and S. Grimme, J. Chem. Theory Comput., 2021, 17, 1701-1714
     DOI: 10.1021/acs.jctc.0c01306
   
   with help from (in alphabetical order)
   P. Atkinson, C. Bannwarth, F. Bohle, G. Brandenburg, E. Caldeweyher
   M. Checinski, S. Dohm, S. Ehlert, S. Ehrlich, I. Gerasimov, C. Hölzer
   A. Katbashev, J. Koopman, C. Lavigne, S. Lehtola, F. März, M. Müller,
   F. Musil, H. Neugebauer, J. Pisarek, C. Plett, P. Pracht, F. Pultar,
   J. Seibert, P. Shushkov, S. Spicher, M. Stahn, M. Steiner, T. Strunk,
   J. Stückrath, T. Rose, and J. Unsleber
   
 * started run on 2023/01/23 at 14:27:55.495     

           -------------------------------------------------
          |                Calculation Setup                |
           -------------------------------------------------

          program call               : xtb init.xyz --opt -c 0 -u 0 -P 16
          hostname                   : gpg-woodward
          coordinate file            : init.xyz
          omp threads                :                    16

   ID    Z sym.   atoms
    1    7 N      1
    2    6 C      2, 3, 5
    3   16 S      4
    4   17 Cl     6
    5    1 H      7-16

molecular fragmentation (1/2 indicates fragments):
1111121111111111
# atoms in fragment 1/2:    15     1
 fragment masses (1/2) :       92.18       35.45
CMA distance (Bohr)    :   9.339
constraining FC (au)   :  0.0500

           -------------------------------------------------
          |                 G F N 2 - x T B                 |
           -------------------------------------------------

        Reference                      10.1021/acs.jctc.8b01176
      * Hamiltonian:
        H0-scaling (s, p, d)           1.850000    2.230000    2.230000
        zeta-weighting                 0.500000
      * Dispersion:
        s8                             2.700000
        a1                             0.520000
        a2                             5.000000
        s9                             5.000000
      * Repulsion:
        kExp                           1.500000    1.000000
        rExp                           1.000000
      * Coulomb:
        alpha                          2.000000
        third order                    shell-resolved
        anisotropic                    true
        a3                             3.000000
        a5                             4.000000
        cn-shift                       1.200000
        cn-exp                         4.000000
        max-rad                        5.000000


          ...................................................
          :                      SETUP                      :
          :.................................................:
          :  # basis functions                  46          :
          :  # atomic orbitals                  44          :
          :  # shells                           24          :
          :  # electrons                        40          :
          :  max. iterations                   250          :
          :  Hamiltonian                  GFN2-xTB          :
          :  restarted?                      false          :
          :  GBSA solvation                  false          :
          :  PC potential                    false          :
          :  electronic temp.          300.0000000     K    :
          :  accuracy                    1.0000000          :
          :  -> integral cutoff          0.2500000E+02      :
          :  -> integral neglect         0.1000000E-07      :
          :  -> SCF convergence          0.1000000E-05 Eh   :
          :  -> wf. convergence          0.1000000E-03 e    :
          :  Broyden damping             0.4000000          :
          ...................................................

 iter      E             dE          RMSdq      gap      omega  full diag
   1    -22.2679987 -0.222680E+02  0.470E+00    5.04       0.0  T
   2    -22.3964708 -0.128472E+00  0.253E+00    4.13       1.0  T
   3    -22.4001787 -0.370791E-02  0.136E+00    3.29       1.0  T
   4    -22.4014892 -0.131052E-02  0.494E-01    2.68       1.0  T
   5    -22.4019808 -0.491641E-03  0.319E-01    2.63       1.0  T
   6    -22.4023285 -0.347679E-03  0.185E-01    2.61       1.0  T
   7    -22.4024889 -0.160410E-03  0.108E-01    2.62       1.0  T
   8    -22.4025554 -0.664642E-04  0.360E-02    2.63       1.0  T
   9    -22.4025583 -0.294781E-05  0.121E-02    2.63       2.1  T
  10    -22.4025588 -0.442638E-06  0.522E-03    2.63       4.8  T
  11    -22.4025588 -0.240145E-07  0.150E-03    2.63      16.7  T
  12    -22.4025588 -0.472549E-08  0.619E-04    2.63      40.4  T
  13    -22.4025588 -0.462755E-09  0.163E-04    2.63     153.2  T

   *** convergence criteria satisfied after 13 iterations ***

         #    Occupation            Energy/Eh            Energy/eV
      -------------------------------------------------------------
         1        2.0000           -0.9482611             -25.8035
       ...           ...                  ...                  ...
        14        2.0000           -0.5092728             -13.8580
        15        2.0000           -0.5008362             -13.6284
        16        2.0000           -0.4806042             -13.0779
        17        2.0000           -0.3927992             -10.6886
        18        2.0000           -0.3493251              -9.5056
        19        2.0000           -0.3366251              -9.1600
        20        2.0000           -0.3364752              -9.1560 (HOMO)
        21                         -0.2397739              -6.5246 (LUMO)
        22                         -0.1778683              -4.8400
        23                         -0.0799648              -2.1760
        24                         -0.0477079              -1.2982
        25                         -0.0341565              -0.9294
       ...                                ...                  ...
        44                          0.3894102              10.5964
      -------------------------------------------------------------
                  HL-Gap            0.0967013 Eh            2.6314 eV
             Fermi-level           -0.2881245 Eh           -7.8403 eV

 SCC (total)                   0 d,  0 h,  0 min,  0.022 sec
 SCC setup                      ...        0 min,  0.000 sec (  0.930%)
 Dispersion                     ...        0 min,  0.000 sec (  1.483%)
 classical contributions        ...        0 min,  0.000 sec (  0.494%)
 integral evaluation            ...        0 min,  0.001 sec (  5.101%)
 iterations                     ...        0 min,  0.018 sec ( 81.188%)
 molecular gradient             ...        0 min,  0.002 sec (  8.204%)
 printout                       ...        0 min,  0.000 sec (  1.169%)

         :::::::::::::::::::::::::::::::::::::::::::::::::::::
         ::                     SUMMARY                     ::
         :::::::::::::::::::::::::::::::::::::::::::::::::::::
         :: total energy             -22.203846610091 Eh    ::
         :: gradient norm              0.056436451402 Eh/a0 ::
         :: HOMO-LUMO gap              2.631376470535 eV    ::
         ::.................................................::
         :: SCC energy               -22.402558786951 Eh    ::
         :: -> isotropic ES            0.091064895987 Eh    ::
         :: -> anisotropic ES         -0.022236375702 Eh    ::
         :: -> anisotropic XC          0.004100446833 Eh    ::
         :: -> dispersion             -0.009247539217 Eh    ::
         :: repulsion energy           0.198729701257 Eh    ::
         :: add. restraining           0.000000000000 Eh    ::
         :: total charge               0.000000000000 e     ::
         :::::::::::::::::::::::::::::::::::::::::::::::::::::

      ----------------------------------------------------------- 
     |                   =====================                   |
     |                        A N C O P T                        |
     |                   =====================                   |
     |               Approximate Normal Coordinate               |
     |                Rational Function Optimizer                |
      ----------------------------------------------------------- 

          ...................................................
          :                      SETUP                      :
          :.................................................:
          :   optimization level            normal          :
          :   max. optcycles                   200          :
          :   ANC micro-cycles                  20          :
          :   degrees of freedom                42          :
          :.................................................:
          :   RF solver                   davidson          :
          :   write xtbopt.log                true          :
          :   linear?                        false          :
          :   energy convergence         0.5000000E-05 Eh   :
          :   grad. convergence          0.1000000E-02 Eh/α :
          :   maximium RF displ.         1.0000000          :
          :   Hlow (freq-cutoff)         0.1000000E-01      :
          :   Hmax (freq-cutoff)         5.0000000          :
          :   S6 in model hess.         20.0000000          :
          ...................................................

generating ANC from model Hessian ...
Using Lindh-Hessian (1995)
 Shifting diagonal of input Hessian by    9.8080556053910285E-003
 Lowest  eigenvalues of input Hessian
    0.000000    0.000000    0.000000    0.000000    0.000000    0.000000
    0.010000    0.010865    0.011637    0.012730    0.014697    0.016069
    0.018526    0.025368    0.034060    0.051962    0.056667    0.059512
 Highest eigenvalues
    1.087861    1.139343    1.171597    1.287037    1.443327    1.509984


........................................................................
.............................. CYCLE    1 ..............................
........................................................................
   1    -22.4025588 -0.224026E+02  0.597E-05    2.63       0.0  T
   2    -22.4025588 -0.586908E-11  0.444E-05    2.63     562.7  T
   3    -22.4025588 -0.533618E-11  0.233E-05    2.63    1074.0  T
     SCC iter.                  ...        0 min,  0.004 sec
     gradient                   ...        0 min,  0.002 sec
 * total energy  :   -22.2038466 Eh     change       -0.4401457E-10 Eh
   gradient norm :     0.0564357 Eh/α   predicted     0.0000000E+00 (-100.00%)
   displ. norm   :     0.2530742 α      lambda       -0.9289531E-02
   maximum displ.:     0.1458996 α      in ANC's #10, #27, #19, ...

........................................................................
.............................. CYCLE    2 ..............................
........................................................................
   1    -22.4092108 -0.224092E+02  0.344E-01    2.83       0.0  T
   2    -22.4094551 -0.244313E-03  0.207E-01    2.93       1.0  T
   3    -22.4094829 -0.277829E-04  0.753E-02    3.04       1.0  T
   4    -22.4094920 -0.911427E-05  0.388E-02    3.06       1.0  T
   5    -22.4094961 -0.403650E-05  0.296E-02    3.06       1.0  T
   6    -22.4095010 -0.495940E-05  0.136E-02    3.06       1.8  T
   7    -22.4095021 -0.102424E-05  0.520E-03    3.06       4.8  T
   8    -22.4095022 -0.156415E-06  0.172E-03    3.06      14.5  T
   9    -22.4095022 -0.523999E-08  0.669E-04    3.06      37.4  T
  10    -22.4095022 -0.454097E-09  0.270E-04    3.06      92.7  T
     SCC iter.                  ...        0 min,  0.012 sec
     gradient                   ...        0 min,  0.002 sec
 * total energy  :   -22.2102274 Eh     change       -0.6380831E-02 Eh
   gradient norm :     0.0471593 Eh/α   predicted    -0.4942247E-02 ( -22.55%)
   displ. norm   :     0.2211631 α      lambda       -0.6123593E-02
   maximum displ.:     0.1423117 α      in ANC's #27, #19, #10, ...

........................................................................
.............................. CYCLE    3 ..............................
........................................................................
   1    -22.4131569 -0.224132E+02  0.295E-01    3.09       0.0  T
   2    -22.4133883 -0.231442E-03  0.177E-01    3.20       1.0  T
   3    -22.4134104 -0.220167E-04  0.693E-02    3.30       1.0  T
   4    -22.4134178 -0.740755E-05  0.336E-02    3.34       1.0  T
   5    -22.4134208 -0.306784E-05  0.254E-02    3.34       1.0  T
   6    -22.4134245 -0.365519E-05  0.127E-02    3.34       2.0  T
   7    -22.4134255 -0.983860E-06  0.639E-03    3.34       3.9  T
   8    -22.4134257 -0.255952E-06  0.150E-03    3.34      16.7  T
   9    -22.4134257 -0.539119E-08  0.647E-04    3.34      38.6  T
  10    -22.4134257 -0.623810E-09  0.289E-04    3.34      86.5  T
     SCC iter.                  ...        0 min,  0.012 sec
     gradient                   ...        0 min,  0.002 sec
 * total energy  :   -22.2146442 Eh     change       -0.4416711E-02 Eh
   gradient norm :     0.0340576 Eh/α   predicted    -0.3211555E-02 ( -27.29%)
   displ. norm   :     0.2231785 α      lambda       -0.4025152E-02
   maximum displ.:     0.1300858 α      in ANC's #27, #8, #10, ...

........................................................................
.............................. CYCLE    4 ..............................
........................................................................
   1    -22.4148790 -0.224149E+02  0.307E-01    3.35       0.0  T
   2    -22.4151909 -0.311919E-03  0.181E-01    3.51       1.0  T
   3    -22.4152194 -0.284857E-04  0.752E-02    3.63       1.0  T
   4    -22.4152282 -0.874154E-05  0.360E-02    3.68       1.0  T
   5    -22.4152318 -0.362048E-05  0.272E-02    3.69       1.0  T
   6    -22.4152362 -0.445542E-05  0.140E-02    3.68       1.8  T
   7    -22.4152375 -0.128530E-05  0.719E-03    3.68       3.5  T
   8    -22.4152379 -0.383029E-06  0.183E-03    3.68      13.7  T
   9    -22.4152379 -0.985914E-08  0.706E-04    3.68      35.4  T
  10    -22.4152379 -0.771163E-09  0.359E-04    3.68      69.6  T
     SCC iter.                  ...        0 min,  0.012 sec
     gradient                   ...        0 min,  0.002 sec
 * total energy  :   -22.2177462 Eh     change       -0.3102018E-02 Eh
   gradient norm :     0.0258535 Eh/α   predicted    -0.2112818E-02 ( -31.89%)
   displ. norm   :     0.3016236 α      lambda       -0.3889732E-02
   maximum displ.:     0.1629833 α      in ANC's #27, #40, #2, ...

........................................................................
.............................. CYCLE    5 ..............................
........................................................................
   1    -22.4171515 -0.224172E+02  0.411E-01    3.74       0.0  T
   2    -22.4177257 -0.574144E-03  0.239E-01    3.98       1.0  T
   3    -22.4177897 -0.639975E-04  0.104E-01    4.16       1.0  T
   4    -22.4178101 -0.204385E-04  0.553E-02    4.16       1.0  T
   5    -22.4178194 -0.931663E-05  0.425E-02    4.16       1.0  T
   6    -22.4178324 -0.129778E-04  0.219E-02    4.16       1.1  T
   7    -22.4178357 -0.327121E-05  0.120E-02    4.16       2.1  T
   8    -22.4178369 -0.120334E-05  0.304E-03    4.16       8.2  T
   9    -22.4178369 -0.232626E-07  0.125E-03    4.16      20.1  T
  10    -22.4178369 -0.201556E-08  0.587E-04    4.16      42.6  T
  11    -22.4178369 -0.610729E-09  0.220E-04    4.16     113.7  T
     SCC iter.                  ...        0 min,  0.013 sec
     gradient                   ...        0 min,  0.002 sec
 * total energy  :   -22.2206953 Eh     change       -0.2949172E-02 Eh
   gradient norm :     0.0186147 Eh/α   predicted    -0.2121809E-02 ( -28.05%)
   displ. norm   :     0.3811466 α      lambda       -0.3109695E-02
   maximum displ.:     0.1692661 α      in ANC's #2, #10, #27, ...

........................................................................
.............................. CYCLE    6 ..............................
........................................................................
   1    -22.4194136 -0.224194E+02  0.308E-01    4.18       0.0  T
   2    -22.4197469 -0.333339E-03  0.173E-01    4.18       1.0  T
   3    -22.4197777 -0.307998E-04  0.732E-02    4.18       1.0  T
   4    -22.4197841 -0.640901E-05  0.307E-02    4.18       1.0  T
   5    -22.4197865 -0.242222E-05  0.220E-02    4.18       1.1  T
   6    -22.4197891 -0.260725E-05  0.134E-02    4.18       1.9  T
   7    -22.4197904 -0.127732E-05  0.787E-03    4.18       3.2  T
   8    -22.4197911 -0.652386E-06  0.271E-03    4.18       9.2  T
   9    -22.4197911 -0.326058E-07  0.111E-03    4.18      22.6  T
  10    -22.4197911 -0.313828E-08  0.628E-04    4.18      39.8  T
  11    -22.4197911 -0.128665E-08  0.307E-04    4.18      81.4  T
     SCC iter.                  ...        0 min,  0.013 sec
     gradient                   ...        0 min,  0.002 sec
 * total energy  :   -22.2224723 Eh     change       -0.1776950E-02 Eh
   gradient norm :     0.0090242 Eh/α   predicted    -0.1780723E-02 (   0.21%)
   displ. norm   :     0.1425201 α      lambda       -0.4303855E-03
   maximum displ.:     0.0918182 α      in ANC's #2, #5, #10, ...

........................................................................
.............................. CYCLE    7 ..............................
........................................................................
   1    -22.4194479 -0.224194E+02  0.696E-02    4.20       0.0  T
   2    -22.4194531 -0.522943E-05  0.413E-02    4.20       1.0  T
   3    -22.4194543 -0.119273E-05  0.127E-02    4.20       2.0  T
   4    -22.4194547 -0.341918E-06  0.760E-03    4.20       3.3  T
   5    -22.4194549 -0.185850E-06  0.576E-03    4.20       4.3  T
   6    -22.4194551 -0.200562E-06  0.408E-03    4.20       6.1  T
   7    -22.4194552 -0.154148E-06  0.152E-03    4.20      16.5  T
   8    -22.4194552 -0.182096E-07  0.561E-04    4.20      44.6  T
   9    -22.4194552 -0.827072E-09  0.210E-04    4.20     119.0  T
     SCC iter.                  ...        0 min,  0.008 sec
     gradient                   ...        0 min,  0.001 sec
 * total energy  :   -22.2227210 Eh     change       -0.2487045E-03 Eh
   gradient norm :     0.0055627 Eh/α   predicted    -0.2195627E-03 ( -11.72%)
   displ. norm   :     0.1829516 α      lambda       -0.2831342E-03
   maximum displ.:     0.1104856 α      in ANC's #2, #5, #4, ...

........................................................................
.............................. CYCLE    8 ..............................
........................................................................
   1    -22.4198801 -0.224199E+02  0.899E-02    4.22       0.0  T
   2    -22.4198998 -0.197051E-04  0.503E-02    4.22       1.0  T
   3    -22.4199023 -0.252501E-05  0.206E-02    4.22       1.2  T
   4    -22.4199031 -0.829176E-06  0.109E-02    4.22       2.3  T
   5    -22.4199036 -0.439052E-06  0.741E-03    4.22       3.4  T
   6    -22.4199039 -0.367654E-06  0.470E-03    4.22       5.3  T
   7    -22.4199041 -0.208205E-06  0.203E-03    4.22      12.3  T
   8    -22.4199042 -0.278609E-07  0.859E-04    4.22      29.1  T
   9    -22.4199042 -0.221372E-08  0.227E-04    4.22     110.0  T
     SCC iter.                  ...        0 min,  0.008 sec
     gradient                   ...        0 min,  0.001 sec
 * total energy  :   -22.2228358 Eh     change       -0.1148144E-03 Eh
   gradient norm :     0.0039584 Eh/α   predicted    -0.1463044E-03 (  27.43%)
   displ. norm   :     0.0442259 α      lambda       -0.7149673E-04
   maximum displ.:     0.0261585 α      in ANC's #2, #6, #1, ...

........................................................................
.............................. CYCLE    9 ..............................
........................................................................
   1    -22.4198183 -0.224198E+02  0.304E-02    4.21       0.0  T
   2    -22.4198202 -0.195527E-05  0.179E-02    4.21       1.4  T
   3    -22.4198205 -0.323543E-06  0.765E-03    4.21       3.3  T
   4    -22.4198207 -0.132030E-06  0.467E-03    4.21       5.4  T
   5    -22.4198207 -0.754291E-07  0.357E-03    4.21       7.0  T
   6    -22.4198208 -0.102104E-06  0.175E-03    4.21      14.2  T
   7    -22.4198209 -0.224693E-07  0.830E-04    4.21      30.1  T
   8    -22.4198209 -0.571032E-08  0.356E-04    4.21      70.3  T
     SCC iter.                  ...        0 min,  0.007 sec
     gradient                   ...        0 min,  0.001 sec
 * total energy  :   -22.2228862 Eh     change       -0.5042609E-04 Eh
   gradient norm :     0.0023284 Eh/α   predicted    -0.3581976E-04 ( -28.97%)
   displ. norm   :     0.0640992 α      lambda       -0.4937269E-04
   maximum displ.:     0.0417308 α      in ANC's #2, #1, #6, ...

........................................................................
.............................. CYCLE   10 ..............................
........................................................................
   1    -22.4198125 -0.224198E+02  0.324E-02    4.21       0.0  T
   2    -22.4198146 -0.210806E-05  0.179E-02    4.21       1.4  T
   3    -22.4198148 -0.214158E-06  0.677E-03    4.21       3.7  T
   4    -22.4198149 -0.650142E-07  0.330E-03    4.21       7.6  T
   5    -22.4198149 -0.294470E-07  0.236E-03    4.21      10.6  T
   6    -22.4198150 -0.310087E-07  0.141E-03    4.21      17.7  T
   7    -22.4198150 -0.134416E-07  0.756E-04    4.21      33.1  T
   8    -22.4198150 -0.497858E-08  0.325E-04    4.21      76.8  T
     SCC iter.                  ...        0 min,  0.007 sec
     gradient                   ...        0 min,  0.001 sec
 * total energy  :   -22.2229200 Eh     change       -0.3379920E-04 Eh
   gradient norm :     0.0012278 Eh/α   predicted    -0.2478893E-04 ( -26.66%)
   displ. norm   :     0.0979996 α      lambda       -0.2504227E-04
   maximum displ.:     0.0681011 α      in ANC's #2, #1, #4, ...

........................................................................
.............................. CYCLE   11 ..............................
........................................................................
   1    -22.4198206 -0.224198E+02  0.395E-02    4.20       0.0  T
   2    -22.4198217 -0.108559E-05  0.215E-02    4.20       1.2  T
   3    -22.4198218 -0.140756E-06  0.582E-03    4.20       4.3  T
   4    -22.4198219 -0.501761E-07  0.306E-03    4.20       8.2  T
   5    -22.4198219 -0.211751E-07  0.187E-03    4.20      13.4  T
   6    -22.4198219 -0.131862E-07  0.116E-03    4.20      21.6  T
   7    -22.4198219 -0.643441E-08  0.500E-04    4.20      50.0  T
   8    -22.4198219 -0.143574E-08  0.206E-04    4.20     121.4  T
     SCC iter.                  ...        0 min,  0.007 sec
     gradient                   ...        0 min,  0.001 sec
 * total energy  :   -22.2229439 Eh     change       -0.2388786E-04 Eh
   gradient norm :     0.0015618 Eh/α   predicted    -0.1257505E-04 ( -47.36%)
   displ. norm   :     0.0935600 α      lambda       -0.2015662E-04
   maximum displ.:     0.0602679 α      in ANC's #2, #1, #8, ...

........................................................................
.............................. CYCLE   12 ..............................
........................................................................
   1    -22.4199267 -0.224199E+02  0.375E-02    4.20       0.0  T
   2    -22.4199269 -0.245449E-06  0.200E-02    4.20       1.2  T
   3    -22.4199270 -0.977697E-07  0.435E-03    4.20       5.8  T
   4    -22.4199270 -0.261864E-07  0.226E-03    4.20      11.0  T
   5    -22.4199270 -0.149321E-07  0.158E-03    4.20      15.8  T
   6    -22.4199271 -0.120683E-07  0.653E-04    4.20      38.3  T
   7    -22.4199271 -0.221596E-08  0.177E-04    4.20     140.9  T
     SCC iter.                  ...        0 min,  0.006 sec
     gradient                   ...        0 min,  0.001 sec
 * total energy  :   -22.2229693 Eh     change       -0.2539593E-04 Eh
   gradient norm :     0.0017259 Eh/α   predicted    -0.1011769E-04 ( -60.16%)
   displ. norm   :     0.2241341 α      lambda       -0.4401319E-04
   maximum displ.:     0.1307427 α      in ANC's #2, #1, #8, ...

........................................................................
.............................. CYCLE   13 ..............................
........................................................................
   1    -22.4199508 -0.224200E+02  0.942E-02    4.19       0.0  T
   2    -22.4199520 -0.123017E-05  0.499E-02    4.19       1.0  T
   3    -22.4199525 -0.528247E-06  0.104E-02    4.19       2.4  T
   4    -22.4199527 -0.144639E-06  0.472E-03    4.19       5.3  T
   5    -22.4199527 -0.575484E-07  0.357E-03    4.19       7.0  T
   6    -22.4199528 -0.613943E-07  0.139E-03    4.19      18.0  T
   7    -22.4199528 -0.973885E-08  0.350E-04    4.19      71.4  T
   8    -22.4199528 -0.300471E-09  0.128E-04    4.19     195.1  T
     SCC iter.                  ...        0 min,  0.007 sec
     gradient                   ...        0 min,  0.001 sec
 * total energy  :   -22.2230126 Eh     change       -0.4329043E-04 Eh
   gradient norm :     0.0015348 Eh/α   predicted    -0.2249825E-04 ( -48.03%)
   displ. norm   :     0.1148898 α      lambda       -0.1568975E-04
   maximum displ.:     0.0710520 α      in ANC's #1, #2, #8, ...

........................................................................
.............................. CYCLE   14 ..............................
........................................................................
   1    -22.4201589 -0.224202E+02  0.528E-02    4.20       0.0  T
   2    -22.4201593 -0.386131E-06  0.276E-02    4.20       1.0  T
   3    -22.4201594 -0.142353E-06  0.555E-03    4.20       4.5  T
   4    -22.4201595 -0.324486E-07  0.268E-03    4.20       9.3  T
   5    -22.4201595 -0.195300E-07  0.179E-03    4.20      14.0  T
   6    -22.4201595 -0.136429E-07  0.858E-04    4.20      29.1  T
   7    -22.4201595 -0.393955E-08  0.250E-04    4.20      99.8  T
     SCC iter.                  ...        0 min,  0.006 sec
     gradient                   ...        0 min,  0.001 sec
 * total energy  :   -22.2230285 Eh     change       -0.1590285E-04 Eh
   gradient norm :     0.0010620 Eh/α   predicted    -0.7890763E-05 ( -50.38%)
   displ. norm   :     0.0771329 α      lambda       -0.9826030E-05
   maximum displ.:     0.0489233 α      in ANC's #1, #2, #8, ...

........................................................................
.............................. CYCLE   15 ..............................
........................................................................
   1    -22.4201945 -0.224202E+02  0.372E-02    4.20       0.0  T
   2    -22.4201947 -0.191268E-06  0.195E-02    4.20       1.3  T
   3    -22.4201948 -0.716583E-07  0.372E-03    4.20       6.7  T
   4    -22.4201948 -0.136322E-07  0.192E-03    4.20      13.0  T
   5    -22.4201948 -0.118906E-07  0.124E-03    4.20      20.2  T
   6    -22.4201948 -0.716910E-08  0.499E-04    4.20      50.1  T
   7    -22.4201948 -0.132177E-08  0.151E-04    4.20     165.3  T
     SCC iter.                  ...        0 min,  0.006 sec
     gradient                   ...        0 min,  0.001 sec
 * total energy  :   -22.2230383 Eh     change       -0.9753301E-05 Eh
   gradient norm :     0.0007863 Eh/α   predicted    -0.4926147E-05 ( -49.49%)
   displ. norm   :     0.0573473 α      lambda       -0.7478257E-05
   maximum displ.:     0.0327242 α      in ANC's #1, #4, #2, ...

........................................................................
.............................. CYCLE   16 ..............................
........................................................................
   1    -22.4201761 -0.224202E+02  0.285E-02    4.21       0.0  T
   2    -22.4201762 -0.182280E-06  0.151E-02    4.21       1.7  T
   3    -22.4201763 -0.477954E-07  0.296E-03    4.21       8.4  T
   4    -22.4201763 -0.100103E-07  0.164E-03    4.21      15.3  T
   5    -22.4201763 -0.648329E-08  0.967E-04    4.21      25.8  T
   6    -22.4201763 -0.338474E-08  0.625E-04    4.21      40.0  T
     SCC iter.                  ...        0 min,  0.005 sec
     gradient                   ...        0 min,  0.001 sec
 * total energy  :   -22.2230459 Eh     change       -0.7622152E-05 Eh
   gradient norm :     0.0007315 Eh/α   predicted    -0.3743983E-05 ( -50.88%)
   displ. norm   :     0.0546158 α      lambda       -0.6660865E-05
   maximum displ.:     0.0409248 α      in ANC's #4, #1, #2, ...

........................................................................
.............................. CYCLE   17 ..............................
........................................................................
   1    -22.4200806 -0.224201E+02  0.203E-02    4.21       0.0  T
   2    -22.4200807 -0.646128E-07  0.110E-02    4.21       2.3  T
   3    -22.4200807 -0.227038E-07  0.194E-03    4.21      12.9  T
   4    -22.4200807 -0.352096E-08  0.989E-04    4.21      25.3  T
   5    -22.4200807 -0.291647E-08  0.609E-04    4.21      41.1  T
     SCC iter.                  ...        0 min,  0.004 sec
     gradient                   ...        0 min,  0.001 sec
 * total energy  :   -22.2230532 Eh     change       -0.7347230E-05 Eh
   gradient norm :     0.0006625 Eh/α   predicted    -0.3334256E-05 ( -54.62%)
   displ. norm   :     0.0620766 α      lambda       -0.6258488E-05
   maximum displ.:     0.0425322 α      in ANC's #4, #3, #2, ...

........................................................................
.............................. CYCLE   18 ..............................
........................................................................
   1    -22.4199811 -0.224200E+02  0.245E-02    4.21       0.0  T
   2    -22.4199812 -0.854700E-07  0.138E-02    4.21       1.8  T
   3    -22.4199812 -0.574287E-07  0.294E-03    4.21       8.5  T
   4    -22.4199812 -0.174271E-07  0.164E-03    4.21      15.2  T
   5    -22.4199812 -0.823917E-08  0.119E-03    4.21      21.1  T
   6    -22.4199813 -0.792512E-08  0.273E-04    4.21      91.4  T
   7    -22.4199813 -0.271285E-09  0.133E-04    4.21     187.5  T
     SCC iter.                  ...        0 min,  0.006 sec
     gradient                   ...        0 min,  0.001 sec
 * total energy  :   -22.2230598 Eh     change       -0.6583727E-05 Eh
   gradient norm :     0.0005826 Eh/α   predicted    -0.3136095E-05 ( -52.37%)
   displ. norm   :     0.0565980 α      lambda       -0.4220016E-05
   maximum displ.:     0.0379282 α      in ANC's #4, #3, #5, ...

........................................................................
.............................. CYCLE   19 ..............................
........................................................................
   1    -22.4200150 -0.224200E+02  0.239E-02    4.20       0.0  T
   2    -22.4200151 -0.116319E-06  0.126E-02    4.20       2.0  T
   3    -22.4200151 -0.416768E-07  0.290E-03    4.20       8.6  T
   4    -22.4200151 -0.115344E-07  0.131E-03    4.20      19.1  T
   5    -22.4200151 -0.470650E-08  0.988E-04    4.20      25.3  T
   6    -22.4200151 -0.540669E-08  0.404E-04    4.20      61.8  T
     SCC iter.                  ...        0 min,  0.005 sec
     gradient                   ...        0 min,  0.001 sec
 * total energy  :   -22.2230633 Eh     change       -0.3432265E-05 Eh
   gradient norm :     0.0006913 Eh/α   predicted    -0.2113675E-05 ( -38.42%)
   displ. norm   :     0.0381564 α      lambda       -0.1654506E-05
   maximum displ.:     0.0231603 α      in ANC's #2, #1, #4, ...

   *** GEOMETRY OPTIMIZATION CONVERGED AFTER 19 ITERATIONS ***

------------------------------------------------------------------------
 total energy gain   :        -0.0192166 Eh      -12.0586 kcal/mol
 total RMSD          :         0.4411053 a0        0.2334 Å
 total power (kW/mol):        -2.6554362 (step) -240.5574 (real)
------------------------------------------------------------------------

 ANCopt (total)                0 d,  0 h,  0 min,  0.210 sec
 optimizer setup                ...        0 min,  0.000 sec (  0.071%)
 model hessian                  ...        0 min,  0.004 sec (  1.687%)
 ANC generation                 ...        0 min,  0.001 sec (  0.383%)
 coordinate transformation      ...        0 min,  0.000 sec (  0.191%)
 single point calculation       ...        0 min,  0.199 sec ( 94.668%)
 optimization log               ...        0 min,  0.002 sec (  0.727%)
 hessian update                 ...        0 min,  0.001 sec (  0.246%)
 rational function              ...        0 min,  0.002 sec (  1.110%)

================
 final structure:
================
16
 xtb: 6.5.1 (fef0646)
N            1.01055904439544       -0.16581743625612       -0.05866065005791
C            2.46126865407503       -0.26871656401626       -0.11297536140627
C            2.97239537634699       -1.56442657933796       -0.73667437738074
S            2.37589560975889       -1.71956451750402       -2.46492314022534
C            3.32457987071651       -3.18301581593831       -2.94907856672162
Cl           0.24288207197118        2.29094956450719        1.37427801540685
H            0.58780746699983        1.16573265218780        0.69731832857469
H            0.61154843981104       -0.94745256268683        0.45275357184051
H            0.62438219324001       -0.16991157544076       -0.99784296120875
H            2.84539079945468       -0.19036219048434        0.90790204925056
H            2.83175459726976        0.58247006564623       -0.68783650312226
H            2.61391191171196       -2.43437924019267       -0.18157387762221
H            4.06213966259563       -1.57180566107124       -0.76059439489708
H            3.05132272994948       -3.40656460860565       -3.97499139245896
H            3.06368067211773       -4.01754002698845       -2.30363140982706
H            4.38727089958521       -2.96449550381825       -2.88539933014400

 Bond Distances (Angstroems)
 ---------------------------
N1-C2=1.4554         N1-H8=1.0157         N1-H9=1.0155         C2-N1=1.4554         C2-C3=1.5261         C2-H10=1.0936        
C2-H11=1.0919        C3-C2=1.5261         C3-S4=1.8349         C3-H12=1.0925        C3-H13=1.0900        S4-C3=1.8349         
S4-C5=1.8100         C5-S4=1.8100         C5-H14=1.0850        C5-H15=1.0868        C5-H16=1.0868        Cl6-H7=1.3577        
H7-Cl6=1.3577        H8-N1=1.0157         H9-N1=1.0155         H10-C2=1.0936        H11-C2=1.0919        H12-C3=1.0925        
H13-C3=1.0900        H14-C5=1.0850        H15-C5=1.0868        H16-C5=1.0868        
 C  H  Rav=1.0895 sigma=0.0031  Rmin=1.0850  Rmax=1.0936     7
 C  C  Rav=1.5261 sigma=0.0000  Rmin=1.5261  Rmax=1.5261     1
 N  H  Rav=1.0156 sigma=0.0001  Rmin=1.0155  Rmax=1.0157     2
 N  C  Rav=1.4554 sigma=0.0000  Rmin=1.4554  Rmax=1.4554     1
 S  C  Rav=1.8224 sigma=0.0124  Rmin=1.8100  Rmax=1.8349     2
 Cl H  Rav=1.3577 sigma=0.0000  Rmin=1.3577  Rmax=1.3577     1

 selected bond angles (degree)
 --------------------
H8-N1-C2=110.85                H9-N1-C2=110.14                H9-N1-H8=108.25                C3-C2-N1=114.15                
H10-C2-N1=108.07               H10-C2-C3=108.95               H11-C2-N1=107.62               H11-C2-C3=109.45               
H11-C2-H10=108.45              S4-C3-C2=110.36                H12-C3-C2=111.01               H12-C3-S4=107.73               
H13-C3-C2=110.46               H13-C3-S4=107.68               H13-C3-H12=109.50              C5-S4-C3= 98.62                
H14-C5-S4=106.71               H15-C5-S4=109.64               H15-C5-H14=110.05              H16-C5-S4=109.53               
H16-C5-H14=110.07              H16-C5-H15=110.75              

 selected dihedral angles (degree)
 ---------------------------------
C3-C2-N1-H8= 57.22            C3-C2-N1-H9=297.45            H10-C2-N1-H8=295.85           H10-C2-N1-H9=176.07           
H11-C2-N1-H8=178.92           H11-C2-N1-H9= 59.14           S4-C3-C2-N1= 60.19            S4-C3-C2-H10=181.08           
S4-C3-C2-H11=299.51           H12-C3-C2-N1=300.82           H12-C3-C2-H10= 61.71          H12-C3-C2-H11=180.14          
H13-C3-C2-N1=179.16           H13-C3-C2-H10=300.05          H13-C3-C2-H11= 58.48          C5-S4-C3-C2=172.56            
C5-S4-C3-H12=293.91           C5-S4-C3-H13= 51.93           H14-C5-S4-C3=179.07           H15-C5-S4-C3= 59.91           
H16-C5-S4-C3=298.19           

 CMA Distance (Angstroems)
 ---------------------------
R(CMA):  5.1510
           -------------------------------------------------
          |                Final Singlepoint                |
           -------------------------------------------------

          ...................................................
          :                      SETUP                      :
          :.................................................:
          :  # basis functions                  46          :
          :  # atomic orbitals                  44          :
          :  # shells                           24          :
          :  # electrons                        40          :
          :  max. iterations                   250          :
          :  Hamiltonian                  GFN2-xTB          :
          :  restarted?                      false          :
          :  GBSA solvation                  false          :
          :  PC potential                    false          :
          :  electronic temp.          300.0000000     K    :
          :  accuracy                    1.0000000          :
          :  -> integral cutoff          0.2500000E+02      :
          :  -> integral neglect         0.1000000E-07      :
          :  -> SCF convergence          0.1000000E-05 Eh   :
          :  -> wf. convergence          0.1000000E-03 e    :
          :  Broyden damping             0.4000000          :
          ...................................................

 iter      E             dE          RMSdq      gap      omega  full diag
   1    -22.4200151 -0.224200E+02  0.133E-04    4.20       0.0  T
   2    -22.4200151 -0.359854E-10  0.999E-05    4.20     250.2  T
   3    -22.4200151 -0.320135E-10  0.781E-05    4.20     320.0  T

   *** convergence criteria satisfied after 3 iterations ***

         #    Occupation            Energy/Eh            Energy/eV
      -------------------------------------------------------------
         1        2.0000           -1.0183337             -27.7103
       ...           ...                  ...                  ...
        14        2.0000           -0.4789936             -13.0341
        15        2.0000           -0.4755008             -12.9390
        16        2.0000           -0.4538491             -12.3499
        17        2.0000           -0.4048310             -11.0160
        18        2.0000           -0.3953809             -10.7589
        19        2.0000           -0.3953129             -10.7570
        20        2.0000           -0.3713466             -10.1049 (HOMO)
        21                         -0.2168496              -5.9008 (LUMO)
        22                         -0.1527631              -4.1569
        23                         -0.0575497              -1.5660
        24                         -0.0227367              -0.6187
        25                         -0.0121154              -0.3297
       ...                                ...                  ...
        44                          0.4082876              11.1101
      -------------------------------------------------------------
                  HL-Gap            0.1544970 Eh            4.2041 eV
             Fermi-level           -0.2940981 Eh           -8.0028 eV

 SCC (total)                   0 d,  0 h,  0 min,  0.005 sec
 SCC setup                      ...        0 min,  0.000 sec (  1.300%)
 Dispersion                     ...        0 min,  0.000 sec (  1.687%)
 classical contributions        ...        0 min,  0.000 sec (  0.450%)
 integral evaluation            ...        0 min,  0.001 sec ( 11.515%)
 iterations                     ...        0 min,  0.003 sec ( 55.085%)
 molecular gradient             ...        0 min,  0.001 sec ( 26.652%)
 printout                       ...        0 min,  0.000 sec (  1.404%)

         :::::::::::::::::::::::::::::::::::::::::::::::::::::
         ::                     SUMMARY                     ::
         :::::::::::::::::::::::::::::::::::::::::::::::::::::
         :: total energy             -22.223063253482 Eh    ::
         :: gradient norm              0.000689301596 Eh/a0 ::
         :: HOMO-LUMO gap              4.204078594714 eV    ::
         ::.................................................::
         :: SCC energy               -22.420015141358 Eh    ::
         :: -> isotropic ES            0.029091475944 Eh    ::
         :: -> anisotropic ES         -0.004771901073 Eh    ::
         :: -> anisotropic XC          0.011911752639 Eh    ::
         :: -> dispersion             -0.009609525559 Eh    ::
         :: repulsion energy           0.196981041871 Eh    ::
         :: add. restraining           0.000000000000 Eh    ::
         :: total charge              -0.000000000000 e     ::
         :::::::::::::::::::::::::::::::::::::::::::::::::::::

           -------------------------------------------------
          |                Property Printout                |
           -------------------------------------------------

    * Orbital Energies and Occupations

         #    Occupation            Energy/Eh            Energy/eV
      -------------------------------------------------------------
         1        2.0000           -1.0183337             -27.7103
       ...           ...                  ...                  ...
         8        2.0000           -0.5439377             -14.8013
         9        2.0000           -0.5389712             -14.6662
        10        2.0000           -0.5211072             -14.1800
        11        2.0000           -0.5154799             -14.0269
        12        2.0000           -0.5013147             -13.6415
        13        2.0000           -0.4984562             -13.5637
        14        2.0000           -0.4789936             -13.0341
        15        2.0000           -0.4755008             -12.9390
        16        2.0000           -0.4538491             -12.3499
        17        2.0000           -0.4048310             -11.0160
        18        2.0000           -0.3953809             -10.7589
        19        2.0000           -0.3953129             -10.7570
        20        2.0000           -0.3713466             -10.1049 (HOMO)
        21                         -0.2168496              -5.9008 (LUMO)
        22                         -0.1527631              -4.1569
        23                         -0.0575497              -1.5660
        24                         -0.0227367              -0.6187
        25                         -0.0121154              -0.3297
        26                          0.0063837               0.1737
        27                          0.0300548               0.8178
        28                          0.0649392               1.7671
        29                          0.0649734               1.7680
        30                          0.0710031               1.9321
        31                          0.0710070               1.9322
       ...                                ...                  ...
        44                          0.4082876              11.1101
      -------------------------------------------------------------
                  HL-Gap            0.1544970 Eh            4.2041 eV
             Fermi-level           -0.2940981 Eh           -8.0028 eV

     #   Z          covCN         q      C6AA      α(0)
     1   7 N        2.670    -0.306    27.881     7.842
     2   6 C        3.764     0.003    20.574     6.465
     3   6 C        3.792    -0.016    20.877     6.507
     4  16 S        1.972    -0.215   150.245    20.630
     5   6 C        3.745    -0.047    21.487     6.612
     6  17 Cl       0.839    -0.469   114.551    16.373
     7   1 H        0.880     0.332     0.625     1.237
     8   1 H        0.860     0.169     1.281     1.773
     9   1 H        0.860     0.180     1.216     1.728
    10   1 H        0.924     0.059     2.211     2.326
    11   1 H        0.924     0.066     2.127     2.281
    12   1 H        0.924     0.041     2.432     2.439
    13   1 H        0.925     0.047     2.362     2.404
    14   1 H        0.925     0.062     2.181     2.310
    15   1 H        0.925     0.048     2.344     2.394
    16   1 H        0.925     0.048     2.340     2.392

 Mol. C6AA /au·bohr⁶  :       3077.360609
 Mol. C8AA /au·bohr⁸  :      90172.539075
 Mol. α(0) /au        :         85.711823


Wiberg/Mayer (AO) data.
largest (>0.10) Wiberg bond orders for each atom

 ---------------------------------------------------------------------------
     #   Z sym  total        # sym  WBO       # sym  WBO       # sym  WBO
 ---------------------------------------------------------------------------
     1   7 N    3.227 --     2 C    1.019     8 H    0.957     9 H    0.951
                             7 H    0.184
     2   6 C    3.978 --     1 N    1.019     3 C    1.005    11 H    0.972
                            10 H    0.967
     3   6 C    3.983 --     2 C    1.005     4 S    0.985    12 H    0.976
                            13 H    0.974
     4  16 S    2.075 --     5 C    1.012     3 C    0.985
     5   6 C    3.980 --     4 S    1.012    15 H    0.985    16 H    0.985
                            14 H    0.981
     6  17 Cl   0.782 --     7 H    0.703
     7   1 H    0.890 --     6 Cl   0.703     1 N    0.184
     8   1 H    0.972 --     1 N    0.957
     9   1 H    0.968 --     1 N    0.951
    10   1 H    0.996 --     2 C    0.967
    11   1 H    0.996 --     2 C    0.972
    12   1 H    0.998 --     3 C    0.976
    13   1 H    0.997 --     3 C    0.974
    14   1 H    0.996 --     5 C    0.981
    15   1 H    0.998 --     5 C    0.985
    16   1 H    0.998 --     5 C    0.985
 ---------------------------------------------------------------------------

Topologies differ in total number of bonds
Writing topology from bond orders to xtbtopo.mol

molecular dipole:
                 x           y           z       tot (Debye)
 q only:        0.902      -1.842      -0.655
   full:        1.135      -2.112      -0.503       6.228
molecular quadrupole (traceless):
                xx          xy          yy          xz          yz          zz
 q only:        9.525      -5.310      -5.338      -0.798      -4.793      -4.188
  q+dip:        9.846      -9.181      -1.993      -2.742      -2.134      -7.852
   full:        9.604     -10.096      -1.924      -2.568      -1.322      -7.681

           -------------------------------------------------
          |                Geometry Summary                 |
           -------------------------------------------------

      molecular mass/u    :      127.6360434
   center of mass at/Å    :        1.7942912      -0.3960638      -0.6782834
  moments of inertia/u·Å² :        0.5761865E+02   0.9423973E+03   0.9718334E+03
rotational constants/cm⁻¹ :        0.2925725E+00   0.1788803E-01   0.1734622E-01

 * 11 selected distances

     #   Z          #   Z                                           value/Å
     1   7 N        2   6 C                                       1.4553684
     2   6 C        3   6 C                                       1.5261441 (max)
     1   7 N        8   1 H                                       1.0157301
     1   7 N        9   1 H                                       1.0154865 (min)
     2   6 C       10   1 H                                       1.0935630
     2   6 C       11   1 H                                       1.0918993
     3   6 C       12   1 H                                       1.0924582
     3   6 C       13   1 H                                       1.0900319
     5   6 C       14   1 H                                       1.0849612
     5   6 C       15   1 H                                       1.0867848
     5   6 C       16   1 H                                       1.0867928

 * 4 distinct bonds (by element types)

   Z      Z             #   av. dist./Å        max./Å        min./Å
   1 H    6 C           7     1.0894987     1.0935630     1.0849612
   6 C    6 C           1     1.5261441     1.5261441     1.5261441
   1 H    7 N           2     1.0156083     1.0157301     1.0154865
   6 C    7 N           1     1.4553684     1.4553684     1.4553684


optimized geometry written to: xtbopt.xyz


           -------------------------------------------------
          | TOTAL ENERGY              -22.223063253482 Eh   |
          | GRADIENT NORM               0.000689301596 Eh/α |
          | HOMO-LUMO GAP               4.204078594714 eV   |
           -------------------------------------------------

------------------------------------------------------------------------
 * finished run on 2023/01/23 at 14:27:55.749     
------------------------------------------------------------------------
 total:
 * wall-time:     0 d,  0 h,  0 min,  0.253 sec
 *  cpu-time:     0 d,  0 h,  0 min, 25.140 sec
 * ratio c/w:    99.246 speedup
 SCF:
 * wall-time:     0 d,  0 h,  0 min,  0.022 sec
 *  cpu-time:     0 d,  0 h,  0 min,  3.050 sec
 * ratio c/w:   138.796 speedup
 ANC optimizer:
 * wall-time:     0 d,  0 h,  0 min,  0.215 sec
 *  cpu-time:     0 d,  0 h,  0 min, 20.124 sec
 * ratio c/w:    93.429 speedup

