16
 energy: -22.223063253482 gnorm: 0.000689301596 xtb: 6.5.1 (fef0646)
N            1.01055904439544       -0.16581743625612       -0.05866065005791
C            2.46126865407503       -0.26871656401626       -0.11297536140627
C            2.97239537634699       -1.56442657933796       -0.73667437738074
S            2.37589560975889       -1.71956451750402       -2.46492314022534
C            3.32457987071651       -3.18301581593831       -2.94907856672162
Cl           0.24288207197118        2.29094956450719        1.37427801540685
H            0.58780746699983        1.16573265218780        0.69731832857469
H            0.61154843981104       -0.94745256268683        0.45275357184051
H            0.62438219324001       -0.16991157544076       -0.99784296120875
H            2.84539079945468       -0.19036219048434        0.90790204925056
H            2.83175459726976        0.58247006564623       -0.68783650312226
H            2.61391191171196       -2.43437924019267       -0.18157387762221
H            4.06213966259563       -1.57180566107124       -0.76059439489708
H            3.05132272994948       -3.40656460860565       -3.97499139245896
H            3.06368067211773       -4.01754002698845       -2.30363140982706
H            4.38727089958521       -2.96449550381825       -2.88539933014400
