17
 energy: -17.281492728239 gnorm: 0.000315125639 xtb: 6.5.1 (fef0646)
N            0.91993322352112        0.08227889528554        0.13165309720057
C            2.40033685382154        0.05481441507280        0.05333000815249
C            2.90410345585464       -1.09847917326301       -0.81830381534691
C            2.43113007411054       -0.95170412442153       -2.26437636146586
C            4.43039426657984       -1.12224487523700       -0.75886921203332
H            0.60686887920570        0.83824804702269        0.75038297347788
H            0.56683616284946       -0.81109552643652        0.49413288733572
H            0.52488525850578        0.23524469664923       -0.80313197046984
H            2.80702351791951       -0.05052737444970        1.05892614305017
H            2.75141425191533        0.99900632188641       -0.36392294212700
H            2.53435610444855       -2.04735766527953       -0.41785992936885
H            2.70898714682141        0.02098942023259       -2.66386193194886
H            1.35796749676710       -1.08899660633911       -2.36485899206572
H            2.90593925788106       -1.70695173195677       -2.88582582114626
H            4.84569720759042       -0.20153631795698       -1.16180284749909
H            4.82226400759392       -1.95032405932773       -1.34350335390183
H            4.78112283461407       -1.23888434148139        0.26347206815674
