 Entering Gaussian System
 *********************************************
 Gaussian 98:
 frequency output generated by the xtb code
 *********************************************
                         Standard orientation:
 --------------------------------------------------------------------
  Center     Atomic     Atomic              Coordinates (Angstroms)
  Number     Number      Type              X           Y           Z
 --------------------------------------------------------------------
    1          7             0       -4.765535   -0.220777   -0.945063
    2          6             0       -5.051797    0.383417    0.386307
    3          6             0       -4.233120    1.647773    0.634492
    4          6             0       -2.755821    1.388226    0.628517
    5          6             0       -1.986123    1.673890   -0.489616
    6          6             0       -0.636215    1.398113   -0.508940
    7          6             0       -0.007894    0.819201    0.593709
    8          6             0        1.416795    0.514014    0.613274
    9          6             0        2.231202    0.549178   -0.450739
   10          6             0        3.655650    0.245450   -0.428603
   11          6             0        4.365553    0.083798    0.760845
   12          6             0        5.716982   -0.201689    0.759600
   13          9             0        6.388586   -0.351110    1.934888
   14          6             0        6.380437   -0.330224   -0.448182
   15          6             0        5.699924   -0.170183   -1.637390
   16          6             0        4.352515    0.116174   -1.630596
   17          6             0       -0.788501    0.535047    1.714282
   18          6             0       -2.137830    0.811514    1.727806
   19         17             0       -6.621652   -3.177978   -1.360161
   20          1             0       -5.305530   -1.087924   -1.097560
   21          1             0       -3.767116   -0.454152   -1.031836
   22          1             0       -4.998744    0.435213   -1.706613
   23          1             0       -4.837088   -0.351593    1.170698
   24          1             0       -6.124196    0.598713    0.467070
   25          1             0       -4.511744    2.105967    1.590512
   26          1             0       -4.471218    2.395443   -0.128939
   27          1             0       -2.456824    2.117711   -1.350445
   28          1             0       -0.059886    1.644188   -1.383073
   29          1             0        1.823687    0.218573    1.563603
   30          1             0        1.815309    0.798538   -1.410258
   31          1             0        3.874557    0.193303    1.709146
   32          1             0        7.432486   -0.554440   -0.439425
   33          1             0        6.224340   -0.269737   -2.573681
   34          1             0        3.822943    0.239626   -2.559944
   35          1             0       -0.323141    0.087326    2.576151
   36          1             0       -2.728158    0.577989    2.597819
 --------------------------------------------------------------------
     1 basis functions        1 primitive gaussians
     1 alpha electrons        1 beta electrons

 Harmonic frequencies (cm**-1), IR intensities (km*mol⁻¹),
 Raman scattering activities (A**4/amu), Raman depolarization ratios,
 reduced masses (AMU), force constants (mDyne/A) and normal coordinates:
                      1                      2                      3
                        a                      a                      a 
 Frequencies --  -141.7295               -78.4004               -50.9875
 Red. masses --    24.1306                 8.3272                10.3358
 Frc consts  --     0.0000                 0.0000                 0.0000
 IR Inten    --    36.6438                 0.1115                 0.2106
 Raman Activ --     0.0000                 0.0000                 0.0000
 Depolar     --     0.0000                 0.0000                 0.0000
 Atom AN      X      Y      Z        X      Y      Z        X      Y      Z
   1   7     0.27   0.41  -0.04     0.01  -0.01  -0.06    -0.02   0.06  -0.01
   2   6     0.06   0.19   0.00     0.00  -0.02  -0.05    -0.02   0.03   0.01
   3   6     0.04   0.16   0.13    -0.00  -0.01  -0.05    -0.01   0.02   0.04
   4   6     0.03   0.09   0.07     0.00  -0.00  -0.02    -0.01  -0.01   0.02
   5   6     0.00   0.03   0.03     0.03   0.05   0.01    -0.09  -0.37  -0.13
   6   6    -0.01  -0.02  -0.00     0.05   0.11   0.07    -0.10  -0.41  -0.16
   7   6     0.01  -0.01  -0.00     0.02   0.15   0.10    -0.03  -0.10  -0.03
   8   6     0.00  -0.02  -0.01     0.06   0.30   0.17    -0.03  -0.12  -0.04
   9   6     0.01   0.00  -0.01    -0.11  -0.45   0.02     0.00  -0.05  -0.01
  10   6     0.00   0.00  -0.01    -0.06  -0.25   0.01     0.01  -0.03   0.00
  11   6     0.00   0.00  -0.00    -0.02  -0.24  -0.01    -0.03  -0.17   0.00
  12   6    -0.00  -0.00  -0.00     0.03  -0.00  -0.04    -0.00  -0.05   0.01
  13   9    -0.00  -0.01   0.00     0.05  -0.00  -0.06    -0.02  -0.15   0.01
  14   6     0.00  -0.00   0.00     0.05   0.22  -0.05     0.05   0.16   0.01
  15   6     0.01  -0.00  -0.00     0.00   0.17  -0.03     0.07   0.27   0.01
  16   6     0.01  -0.00  -0.01    -0.05  -0.08  -0.00     0.05   0.19   0.01
  17   6     0.02   0.01   0.02    -0.01   0.10   0.07     0.05   0.24   0.11
  18   6     0.04   0.06   0.05    -0.02   0.01  -0.00     0.06   0.29   0.14
  19  17    -0.37  -0.63  -0.14    -0.02  -0.04  -0.04     0.05   0.11   0.01
  20   1     0.13   0.10  -0.04    -0.00   0.00  -0.02     0.00   0.01  -0.00
  21   1     0.09   0.17   0.01     0.00  -0.01  -0.01    -0.00   0.03  -0.01
  22   1     0.06   0.12   0.00     0.01   0.00  -0.01    -0.02   0.02   0.00
  23   1     0.01   0.03  -0.02    -0.00  -0.01  -0.02    -0.00   0.00  -0.00
  24   1     0.01   0.04  -0.02     0.00  -0.00  -0.02    -0.00   0.01   0.00
  25   1     0.02   0.02   0.05    -0.00  -0.00  -0.01    -0.00   0.00   0.01
  26   1     0.01   0.07   0.06     0.00  -0.01  -0.01    -0.00   0.01   0.02
  27   1    -0.00   0.01   0.01     0.01   0.02   0.00    -0.04  -0.18  -0.07
  28   1    -0.01  -0.02  -0.01     0.03   0.06   0.04    -0.05  -0.21  -0.09
  29   1    -0.00  -0.02  -0.01     0.06   0.34   0.11    -0.02  -0.05  -0.01
  30   1     0.00   0.01  -0.00    -0.09  -0.39  -0.03     0.01   0.02  -0.00
  31   1    -0.00   0.00  -0.00    -0.01  -0.14   0.00    -0.02  -0.11   0.00
  32   1     0.00  -0.00   0.00     0.03   0.12  -0.02     0.02   0.07   0.00
  33   1     0.00  -0.00   0.00     0.00   0.10  -0.01     0.03   0.13   0.00
  34   1     0.00  -0.00  -0.00    -0.02  -0.03   0.00     0.02   0.09   0.00
  35   1     0.01   0.00   0.00    -0.00   0.03   0.02     0.03   0.14   0.06
  36   1     0.01   0.03   0.02    -0.02  -0.01  -0.01     0.03   0.16   0.07
                      4                      5                      6
                        a                      a                      a 
 Frequencies --    17.1906                28.4030                39.0402
 Red. masses --    16.0673                19.1533                18.4259
 Frc consts  --     0.0000                 0.0000                 0.0000
 IR Inten    --     5.6883                 5.1315                 2.2428
 Raman Activ --     0.0000                 0.0000                 0.0000
 Depolar     --     0.0000                 0.0000                 0.0000
 Atom AN      X      Y      Z        X      Y      Z        X      Y      Z
   1   7     0.15   0.01  -0.09    -0.04  -0.00  -0.07    -0.08  -0.25   0.00
   2   6     0.04  -0.12  -0.05    -0.01  -0.09  -0.02     0.03  -0.17   0.00
   3   6    -0.07  -0.07   0.08     0.03  -0.12   0.08     0.01  -0.14  -0.10
   4   6    -0.05   0.04   0.10     0.03  -0.13   0.07     0.02  -0.05  -0.07
   5   6    -0.09  -0.05   0.04    -0.01  -0.23   0.02     0.03  -0.01  -0.06
   6   6    -0.07   0.02   0.04    -0.00  -0.19   0.01     0.05   0.11  -0.02
   7   6    -0.01   0.19   0.10     0.04  -0.05   0.06     0.08   0.20   0.02
   8   6    -0.01   0.22   0.08     0.06   0.02   0.06     0.09   0.26   0.05
   9   6    -0.05   0.13   0.05     0.02  -0.06   0.03     0.10   0.23   0.05
  10   6    -0.06   0.06   0.01     0.03  -0.01   0.01     0.08   0.16   0.04
  11   6    -0.02   0.07  -0.01     0.10   0.21   0.01     0.07  -0.01   0.03
  12   6    -0.05  -0.09  -0.06     0.09   0.19  -0.01     0.04  -0.12   0.01
  13   9    -0.02  -0.10  -0.10     0.18   0.44  -0.02     0.04  -0.31   0.00
  14   6    -0.13  -0.27  -0.09     0.03  -0.01  -0.02     0.03  -0.12   0.00
  15   6    -0.17  -0.25  -0.06    -0.02  -0.20  -0.02     0.05   0.07   0.01
  16   6    -0.13  -0.09  -0.02    -0.02  -0.22   0.00     0.08   0.22   0.03
  17   6     0.03   0.29   0.16     0.08   0.04   0.11     0.08   0.18   0.01
  18   6     0.01   0.22   0.15     0.07   0.00   0.11     0.05   0.06  -0.03
  19  17     0.42  -0.09  -0.18    -0.41   0.23  -0.24    -0.52  -0.11   0.01
  20   1     0.08  -0.02  -0.04    -0.07   0.04  -0.06    -0.09  -0.03  -0.01
  21   1     0.05   0.05  -0.02    -0.03  -0.06  -0.01    -0.04  -0.14   0.00
  22   1     0.01   0.01  -0.01     0.05   0.04  -0.00     0.03  -0.05   0.00
  23   1     0.02  -0.05  -0.03    -0.01  -0.04  -0.02     0.02  -0.04   0.00
  24   1     0.01  -0.06  -0.02     0.00  -0.01  -0.00     0.01  -0.05   0.02
  25   1    -0.04  -0.05   0.03     0.01  -0.05   0.03    -0.00  -0.02  -0.04
  26   1    -0.03  -0.01   0.04     0.01  -0.02   0.04    -0.01  -0.06  -0.04
  27   1    -0.04  -0.05   0.00    -0.01  -0.10  -0.01     0.00  -0.03  -0.03
  28   1    -0.03  -0.02  -0.00    -0.01  -0.08  -0.01     0.02   0.04  -0.00
  29   1     0.01   0.09   0.03     0.03   0.04   0.02     0.03   0.09   0.02
  30   1    -0.02   0.02   0.01    -0.01  -0.06   0.00     0.03   0.06   0.01
  31   1     0.01   0.06   0.00     0.04   0.11   0.00     0.02  -0.02   0.01
  32   1    -0.05  -0.12  -0.04     0.01  -0.00  -0.01    -0.00  -0.07  -0.00
  33   1    -0.07  -0.11  -0.02    -0.02  -0.10  -0.01     0.01   0.03   0.00
  34   1    -0.05  -0.02   0.00    -0.02  -0.11   0.00     0.03   0.11   0.01
  35   1     0.02   0.12   0.06     0.03   0.04   0.04     0.03   0.08   0.01
  36   1     0.01   0.08   0.06     0.03   0.02   0.04     0.02   0.01  -0.01
                      7                      8                      9
                        a                      a                      a 
 Frequencies --    66.6266                98.1788               112.7367
 Red. masses --    12.0070                11.5809                16.2231
 Frc consts  --     0.0000                 0.0000                 0.0000
 IR Inten    --     2.4714                16.5142                34.4214
 Raman Activ --     0.0000                 0.0000                 0.0000
 Depolar     --     0.0000                 0.0000                 0.0000
 Atom AN      X      Y      Z        X      Y      Z        X      Y      Z
   1   7    -0.05  -0.00  -0.12    -0.35   0.35  -0.25    -0.47  -0.03   0.37
   2   6    -0.06   0.14  -0.18    -0.18   0.10  -0.10    -0.14   0.16   0.33
   3   6    -0.00   0.11  -0.26    -0.01  -0.05   0.09     0.00   0.13   0.00
   4   6    -0.02   0.03  -0.10    -0.03  -0.21  -0.01    -0.00   0.06  -0.05
   5   6     0.10  -0.03  -0.02    -0.06  -0.19  -0.03     0.00   0.02  -0.06
   6   6     0.09  -0.09   0.12    -0.04  -0.08  -0.04     0.01   0.01  -0.05
   7   6    -0.03  -0.10   0.18     0.03   0.03  -0.03     0.01   0.05  -0.03
   8   6    -0.03  -0.16   0.26     0.08   0.26   0.03     0.02   0.03  -0.00
   9   6     0.00   0.07   0.29     0.05   0.05  -0.00     0.04  -0.01   0.02
  10   6    -0.00   0.04   0.17     0.07   0.12   0.02     0.04  -0.05   0.03
  11   6     0.13   0.00   0.09     0.07   0.11   0.02     0.06  -0.03   0.02
  12   6     0.13  -0.00  -0.09     0.04  -0.02   0.02     0.07  -0.02   0.00
  13   9     0.35  -0.04  -0.23     0.04  -0.11   0.02     0.14   0.05  -0.02
  14   6    -0.02   0.02  -0.18     0.03  -0.10   0.02     0.05  -0.04  -0.01
  15   6    -0.16   0.05  -0.09     0.04  -0.03   0.02     0.03  -0.08   0.00
  16   6    -0.15   0.07   0.08     0.06   0.08   0.02     0.03  -0.08   0.02
  17   6    -0.15  -0.05   0.11     0.04  -0.12  -0.06     0.01   0.09  -0.03
  18   6    -0.14   0.02  -0.03     0.01  -0.24  -0.05     0.01   0.10  -0.04
  19  17     0.00  -0.07   0.07     0.12  -0.02   0.22     0.12  -0.24  -0.38
  20   1    -0.00  -0.01  -0.00     0.01   0.03  -0.03    -0.12  -0.02   0.13
  21   1    -0.01   0.01  -0.02    -0.07   0.22  -0.14    -0.13  -0.01   0.05
  22   1    -0.02  -0.03  -0.06    -0.23   0.07  -0.04    -0.17  -0.03   0.09
  23   1    -0.04   0.06  -0.03    -0.06  -0.02  -0.07    -0.02   0.07   0.11
  24   1    -0.02   0.06  -0.07    -0.04   0.06   0.00    -0.03   0.08   0.14
  25   1    -0.02   0.07  -0.10     0.03  -0.05   0.05     0.03   0.10  -0.02
  26   1     0.03   0.01  -0.10     0.02   0.03   0.07    -0.00   0.00  -0.03
  27   1     0.06  -0.01  -0.02    -0.03  -0.06  -0.01     0.00  -0.01  -0.02
  28   1     0.05  -0.04   0.05    -0.02  -0.01  -0.01     0.00  -0.01  -0.02
  29   1    -0.03  -0.11   0.06     0.04   0.18   0.03    -0.00   0.01   0.00
  30   1     0.01   0.09   0.10    -0.01  -0.09  -0.02     0.02  -0.00   0.00
  31   1     0.07  -0.00   0.04     0.02   0.04   0.01     0.02  -0.01   0.01
  32   1    -0.01   0.00  -0.09     0.00  -0.07   0.01     0.02  -0.01  -0.01
  33   1    -0.08   0.02  -0.05     0.01  -0.02   0.01     0.00  -0.03  -0.00
  34   1    -0.08   0.03   0.05     0.02   0.03   0.01     0.00  -0.03   0.01
  35   1    -0.08  -0.02   0.05     0.02  -0.03  -0.02    -0.00   0.03  -0.00
  36   1    -0.07   0.02  -0.02     0.01  -0.09  -0.02     0.00   0.04  -0.01
                     10                     11                     12
                        a                      a                      a 
 Frequencies --   134.3726               162.9541               180.1285
 Red. masses --     8.8048                12.4778                 8.1167
 Frc consts  --     0.0000                 0.0000                 0.0000
 IR Inten    --    13.3612                 0.4683                 5.3362
 Raman Activ --     0.0000                 0.0000                 0.0000
 Depolar     --     0.0000                 0.0000                 0.0000
 Atom AN      X      Y      Z        X      Y      Z        X      Y      Z
   1   7     0.33  -0.10   0.32     0.18   0.05   0.04    -0.06  -0.08  -0.09
   2   6    -0.14   0.24   0.04     0.01  -0.16   0.09    -0.38   0.19  -0.26
   3   6     0.02   0.14   0.01    -0.19  -0.05   0.16    -0.09  -0.04   0.05
   4   6    -0.02  -0.10  -0.05    -0.17   0.07  -0.02    -0.09  -0.10   0.14
   5   6    -0.05  -0.19  -0.09    -0.24   0.08  -0.07    -0.10   0.04   0.16
   6   6    -0.05  -0.17  -0.09    -0.22   0.06  -0.17    -0.08   0.16   0.08
   7   6    -0.03  -0.04  -0.03    -0.14   0.06  -0.21     0.02   0.12   0.02
   8   6     0.03   0.23   0.06    -0.12   0.06  -0.09     0.01  -0.04  -0.11
   9   6    -0.03  -0.00   0.01     0.06   0.02   0.06     0.07   0.11  -0.06
  10   6    -0.00   0.13   0.02     0.07  -0.07   0.17     0.05  -0.11  -0.05
  11   6     0.01   0.13   0.01     0.14  -0.12   0.14     0.04  -0.16  -0.05
  12   6    -0.02   0.00  -0.00     0.18  -0.04   0.03     0.07  -0.04  -0.01
  13   9    -0.02  -0.07  -0.02     0.44  -0.02  -0.07     0.07  -0.00   0.00
  14   6    -0.06  -0.11  -0.01     0.11   0.03  -0.01     0.13   0.10   0.01
  15   6    -0.05  -0.01  -0.01     0.03  -0.03   0.04     0.12  -0.03  -0.00
  16   6    -0.02   0.12   0.01     0.02  -0.07   0.14     0.09  -0.14  -0.03
  17   6    -0.04  -0.14  -0.07    -0.11   0.00  -0.20     0.07   0.13   0.06
  18   6    -0.05  -0.18  -0.08    -0.11  -0.01  -0.10     0.03   0.00   0.12
  19  17     0.06   0.07  -0.06    -0.03   0.10   0.03     0.05  -0.09   0.04
  20   1    -0.01   0.05   0.02     0.10  -0.01  -0.02    -0.14   0.06  -0.07
  21   1     0.07  -0.17   0.25     0.07   0.08   0.01    -0.05  -0.20   0.12
  22   1     0.30  -0.02   0.03     0.02   0.02   0.03     0.20  -0.00  -0.07
  23   1    -0.16   0.11   0.08     0.04  -0.05   0.01    -0.28   0.05  -0.03
  24   1    -0.04   0.13  -0.12    -0.01  -0.11   0.03    -0.10   0.17  -0.21
  25   1     0.03   0.06   0.00    -0.04  -0.06   0.07    -0.04  -0.05   0.03
  26   1     0.03   0.04  -0.00    -0.11   0.00   0.08     0.03   0.04   0.05
  27   1    -0.02  -0.06  -0.03    -0.08   0.03  -0.01    -0.04   0.01   0.05
  28   1    -0.01  -0.05  -0.03    -0.08   0.01  -0.06    -0.04   0.06   0.02
  29   1     0.03   0.20   0.05    -0.07   0.02  -0.01    -0.02  -0.12  -0.06
  30   1    -0.04  -0.13  -0.02     0.06   0.02   0.00     0.05   0.14  -0.00
  31   1     0.01   0.05   0.01     0.05  -0.05   0.05     0.00  -0.06  -0.02
  32   1    -0.03  -0.08  -0.01     0.04   0.03  -0.02     0.05   0.08   0.01
  33   1    -0.02  -0.02  -0.00    -0.01  -0.00  -0.00     0.04   0.00   0.00
  34   1    -0.01   0.05   0.01    -0.01  -0.02   0.05     0.03  -0.06  -0.02
  35   1    -0.01  -0.04  -0.02    -0.02  -0.01  -0.07     0.04   0.05   0.02
  36   1    -0.02  -0.06  -0.03    -0.01  -0.02  -0.02     0.03  -0.01   0.05
                     13                     14                     15
                        a                      a                      a 
 Frequencies --   218.4946               228.0766               246.1580
 Red. masses --     9.9505                12.5907                 5.8230
 Frc consts  --     0.0000                 0.0000                 0.0000
 IR Inten    --     5.5233                 3.6760                 3.1349
 Raman Activ --     0.0000                 0.0000                 0.0000
 Depolar     --     0.0000                 0.0000                 0.0000
 Atom AN      X      Y      Z        X      Y      Z        X      Y      Z
   1   7     0.08   0.08   0.08     0.06   0.00   0.03     0.18  -0.17   0.14
   2   6     0.05   0.01   0.09    -0.04   0.03  -0.01    -0.14   0.05  -0.04
   3   6     0.12  -0.04   0.02     0.02  -0.01  -0.01    -0.11   0.05  -0.12
   4   6     0.08  -0.17  -0.12     0.01  -0.08  -0.01    -0.11  -0.05   0.03
   5   6     0.05  -0.18  -0.15     0.01  -0.05  -0.01    -0.05  -0.06   0.06
   6   6     0.08   0.02  -0.06     0.02   0.03   0.02    -0.03  -0.00   0.11
   7   6     0.08   0.18   0.02     0.03   0.07   0.03     0.00   0.02   0.10
   8   6     0.04   0.16   0.08     0.02   0.04   0.02     0.04   0.03   0.00
   9   6     0.04   0.35   0.10     0.01   0.07   0.01     0.03   0.03  -0.03
  10   6    -0.09  -0.10   0.05    -0.03  -0.09  -0.01     0.06   0.01  -0.11
  11   6    -0.12  -0.22   0.04    -0.11  -0.47  -0.02     0.07   0.08  -0.11
  12   6    -0.08  -0.00   0.01    -0.06  -0.19  -0.01     0.06   0.04  -0.04
  13   9    -0.10  -0.04  -0.00     0.06   0.56   0.01    -0.08  -0.08   0.03
  14   6    -0.05   0.34  -0.01    -0.08  -0.31  -0.01     0.14   0.06   0.00
  15   6    -0.15  -0.03  -0.01    -0.02  -0.04  -0.01     0.14  -0.02  -0.01
  16   6    -0.20  -0.30   0.02     0.06   0.32  -0.01     0.11  -0.10  -0.08
  17   6     0.08   0.01  -0.04     0.03  -0.00   0.01    -0.06   0.03   0.08
  18   6     0.06  -0.17  -0.11     0.01  -0.08  -0.01    -0.08  -0.01   0.05
  19  17     0.00   0.04  -0.00    -0.03   0.04  -0.01    -0.12   0.08  -0.06
  20   1     0.06   0.00   0.02     0.09  -0.05   0.04     0.38  -0.28   0.19
  21   1     0.03   0.08   0.01     0.04   0.10  -0.00     0.15   0.39  -0.03
  22   1    -0.02   0.02   0.03    -0.06  -0.05  -0.01    -0.31  -0.25  -0.03
  23   1     0.02  -0.00   0.02    -0.03   0.01   0.01    -0.07   0.06   0.04
  24   1     0.01   0.01   0.03    -0.01   0.02  -0.02    -0.04   0.01  -0.08
  25   1     0.08  -0.00   0.01     0.01   0.00  -0.00    -0.05   0.06  -0.06
  26   1     0.03  -0.01   0.01     0.02  -0.00  -0.00     0.01  -0.01  -0.07
  27   1     0.00  -0.08  -0.05    -0.00  -0.02  -0.00    -0.00  -0.02   0.01
  28   1     0.02   0.01  -0.02     0.01   0.02   0.01    -0.01   0.01   0.03
  29   1    -0.02  -0.09  -0.01    -0.00  -0.02  -0.00     0.02  -0.00  -0.01
  30   1     0.04   0.25   0.05     0.01   0.07   0.01     0.00   0.02  -0.00
  31   1    -0.04  -0.09   0.01    -0.04  -0.20  -0.00     0.02   0.03  -0.03
  32   1     0.01   0.22  -0.01    -0.03  -0.11  -0.00     0.04   0.03   0.01
  33   1    -0.05  -0.00  -0.01    -0.00   0.01  -0.00     0.05  -0.01   0.00
  34   1    -0.08  -0.15   0.01     0.05   0.24  -0.00     0.04  -0.06  -0.03
  35   1     0.03   0.01  -0.01     0.01   0.00   0.00    -0.03   0.01   0.03
  36   1     0.01  -0.07  -0.05     0.00  -0.03  -0.01    -0.02  -0.01   0.02
                     16                     17                     18
                        a                      a                      a 
 Frequencies --   285.7687               303.9358               352.5184
 Red. masses --     9.6963                 9.9686                10.0043
 Frc consts  --     0.0000                 0.0000                 0.0000
 IR Inten    --     0.9400                 2.1928                 6.0023
 Raman Activ --     0.0000                 0.0000                 0.0000
 Depolar     --     0.0000                 0.0000                 0.0000
 Atom AN      X      Y      Z        X      Y      Z        X      Y      Z
   1   7    -0.01  -0.19  -0.00    -0.09  -0.19  -0.12     0.05   0.17   0.04
   2   6    -0.07   0.12  -0.14     0.23   0.09  -0.13     0.05  -0.02   0.11
   3   6     0.17  -0.06   0.09     0.06   0.22  -0.09     0.01   0.03  -0.35
   4   6     0.16  -0.07   0.07     0.05   0.25   0.30    -0.04  -0.21   0.08
   5   6     0.05   0.07   0.02    -0.06   0.06   0.19    -0.07  -0.16   0.09
   6   6     0.04   0.09  -0.15    -0.15  -0.23  -0.07    -0.04   0.11   0.10
   7   6     0.04  -0.00  -0.20    -0.06  -0.10  -0.06    -0.03   0.09   0.06
   8   6    -0.05  -0.11  -0.12     0.02   0.29  -0.06    -0.06   0.00  -0.24
   9   6    -0.05  -0.15  -0.08     0.03   0.22  -0.05    -0.07  -0.02  -0.26
  10   6    -0.08  -0.00   0.17     0.00   0.07   0.02    -0.06  -0.03  -0.03
  11   6    -0.09   0.11   0.21    -0.04  -0.17   0.01    -0.13   0.06   0.07
  12   6    -0.10   0.05   0.09    -0.01  -0.03   0.01    -0.12   0.01   0.11
  13   9     0.20  -0.07  -0.08     0.05   0.02  -0.01     0.35  -0.07  -0.15
  14   6    -0.22   0.01   0.03     0.02   0.11   0.01    -0.10  -0.02   0.13
  15   6    -0.20   0.08   0.04    -0.03  -0.11   0.01     0.04   0.04   0.09
  16   6    -0.18   0.06   0.13    -0.02  -0.07   0.02     0.03  -0.01   0.02
  17   6     0.23   0.05  -0.09     0.00  -0.23  -0.04     0.02   0.04   0.10
  18   6     0.24   0.02   0.07     0.03  -0.04   0.17    -0.03  -0.13   0.13
  19  17    -0.05  -0.00  -0.03    -0.02  -0.04  -0.02     0.02   0.02   0.01
  20   1     0.12  -0.15   0.12    -0.07  -0.05   0.07    -0.01   0.08  -0.06
  21   1     0.03   0.11  -0.03    -0.04  -0.10  -0.10     0.01   0.02   0.02
  22   1    -0.15  -0.18  -0.06    -0.07  -0.10  -0.06     0.06   0.11   0.05
  23   1    -0.13   0.03  -0.01     0.12   0.05  -0.03     0.09   0.01   0.03
  24   1    -0.01   0.12  -0.11     0.06  -0.00   0.00     0.01  -0.06   0.08
  25   1     0.05  -0.07   0.05    -0.08   0.08  -0.07    -0.05   0.21  -0.21
  26   1     0.07   0.04   0.07     0.07   0.03  -0.07     0.09  -0.13  -0.26
  27   1    -0.02   0.04   0.04    -0.04   0.02   0.07    -0.04  -0.06   0.03
  28   1     0.00   0.04  -0.05    -0.07  -0.12  -0.05    -0.01   0.06   0.04
  29   1    -0.02  -0.01  -0.03     0.03   0.16  -0.00     0.02  -0.03  -0.09
  30   1     0.00  -0.07  -0.04     0.01   0.01  -0.03     0.01   0.01  -0.08
  31   1    -0.02   0.05   0.06    -0.02  -0.10   0.01    -0.05   0.05   0.01
  32   1    -0.07  -0.02  -0.00     0.02   0.08   0.00    -0.03  -0.01   0.07
  33   1    -0.06   0.03   0.01    -0.01  -0.05   0.00     0.03   0.03   0.04
  34   1    -0.08   0.02   0.05    -0.01  -0.02   0.01     0.02  -0.00  -0.00
  35   1     0.11   0.03  -0.04     0.02  -0.11  -0.04     0.03   0.03   0.02
  36   1     0.09   0.01   0.04     0.02  -0.03   0.06    -0.00  -0.04   0.04
                     19                     20                     21
                        a                      a                      a 
 Frequencies --   362.2263               389.3667               397.8049
 Red. masses --     8.8291                10.5542                 9.3006
 Frc consts  --     0.0000                 0.0000                 0.0000
 IR Inten    --     1.1332                 3.7337                 0.7443
 Raman Activ --     0.0000                 0.0000                 0.0000
 Depolar     --     0.0000                 0.0000                 0.0000
 Atom AN      X      Y      Z        X      Y      Z        X      Y      Z
   1   7    -0.01  -0.03  -0.01     0.00   0.02  -0.01    -0.03  -0.13  -0.05
   2   6     0.01   0.01  -0.02     0.10   0.04   0.00     0.15   0.08  -0.08
   3   6     0.00   0.01   0.04     0.05   0.08  -0.14     0.03   0.12   0.20
   4   6     0.00   0.03   0.00     0.00  -0.07   0.18     0.01   0.14  -0.04
   5   6    -0.08  -0.37  -0.16    -0.15  -0.12   0.07    -0.02  -0.07  -0.10
   6   6     0.08   0.35   0.15    -0.10   0.14  -0.13    -0.01  -0.06   0.05
   7   6    -0.01  -0.02  -0.00    -0.01   0.19  -0.14     0.01   0.17   0.16
   8   6     0.01   0.04  -0.00    -0.07  -0.05   0.08     0.01   0.07   0.03
   9   6    -0.01   0.02  -0.01     0.04  -0.10   0.18    -0.04   0.05  -0.03
  10   6     0.00   0.02  -0.00     0.00  -0.19   0.11    -0.07  -0.23  -0.11
  11   6    -0.01  -0.02  -0.00     0.21   0.12  -0.01    -0.08   0.17  -0.03
  12   6    -0.00   0.00   0.00     0.16  -0.12  -0.11    -0.15  -0.19   0.06
  13   9     0.02  -0.00  -0.01    -0.30   0.10   0.18     0.21   0.05  -0.12
  14   6     0.01   0.01   0.01     0.08  -0.18  -0.17    -0.08  -0.19   0.11
  15   6     0.00  -0.02   0.01    -0.02   0.25  -0.08     0.16   0.32   0.06
  16   6     0.01  -0.00   0.00    -0.09  -0.07   0.05     0.04  -0.19  -0.06
  17   6    -0.09  -0.40  -0.16     0.08   0.02  -0.13    -0.08  -0.02   0.06
  18   6     0.08   0.39   0.15     0.06  -0.12   0.12    -0.09  -0.08  -0.10
  19  17    -0.00  -0.00  -0.00     0.00  -0.00  -0.00    -0.01  -0.02  -0.01
  20   1    -0.01  -0.01   0.01    -0.02   0.02   0.01    -0.04  -0.03   0.07
  21   1    -0.00  -0.01  -0.01    -0.01  -0.02  -0.02    -0.02  -0.07  -0.06
  22   1    -0.00  -0.01  -0.01     0.00   0.01   0.00    -0.04  -0.08  -0.04
  23   1    -0.01   0.00  -0.01     0.07   0.03   0.00     0.05   0.03  -0.02
  24   1     0.00   0.01  -0.01     0.03  -0.01   0.03     0.04   0.01  -0.01
  25   1     0.01  -0.02   0.03    -0.04   0.12  -0.10     0.03  -0.10   0.13
  26   1    -0.01   0.02   0.03     0.09  -0.04  -0.13    -0.04   0.13   0.16
  27   1    -0.05  -0.23  -0.10    -0.10  -0.07   0.03     0.00  -0.07  -0.06
  28   1     0.06   0.24   0.10    -0.07   0.05  -0.06     0.00  -0.07   0.00
  29   1     0.01   0.02  -0.00    -0.08  -0.09   0.03     0.00  -0.07  -0.02
  30   1    -0.01  -0.02  -0.01     0.03   0.05   0.06    -0.00   0.10   0.01
  31   1    -0.00  -0.02  -0.00     0.12   0.13   0.01    -0.02   0.22  -0.03
  32   1     0.00   0.01   0.00     0.02  -0.07  -0.10    -0.02  -0.05   0.07
  33   1     0.00  -0.01   0.00    -0.02   0.18  -0.04     0.11   0.25   0.03
  34   1     0.00  -0.00  -0.00    -0.05  -0.01   0.03     0.04  -0.06  -0.03
  35   1    -0.06  -0.25  -0.10     0.07  -0.02  -0.07    -0.05  -0.05   0.01
  36   1     0.05   0.25   0.10     0.05  -0.07   0.05    -0.06  -0.07  -0.06
                     22                     23                     24
                        a                      a                      a 
 Frequencies --   429.8738               458.3491               478.4690
 Red. masses --     9.7241                10.3512                12.8353
 Frc consts  --     0.0000                 0.0000                 0.0000
 IR Inten    --     0.4762                 0.4857                 7.1158
 Raman Activ --     0.0000                 0.0000                 0.0000
 Depolar     --     0.0000                 0.0000                 0.0000
 Atom AN      X      Y      Z        X      Y      Z        X      Y      Z
   1   7    -0.02  -0.11  -0.05     0.00  -0.01   0.01    -0.00  -0.02  -0.01
   2   6     0.27   0.15  -0.06     0.06   0.04  -0.00    -0.01  -0.01  -0.01
   3   6     0.16   0.16   0.12     0.15  -0.04   0.04    -0.13   0.08   0.03
   4   6     0.04  -0.09  -0.01     0.08  -0.16  -0.15    -0.08   0.14   0.01
   5   6    -0.12  -0.16  -0.11     0.05   0.07  -0.10    -0.00  -0.08   0.00
   6   6    -0.07   0.16   0.01     0.00   0.01   0.10     0.02  -0.04   0.13
   7   6    -0.11   0.25   0.09    -0.20  -0.18   0.09     0.14   0.11   0.13
   8   6    -0.18  -0.14  -0.03    -0.16   0.11  -0.33     0.13  -0.02  -0.20
   9   6    -0.13  -0.16   0.00    -0.10   0.14  -0.29     0.08  -0.06  -0.23
  10   6    -0.03   0.07  -0.01    -0.08   0.05   0.18     0.06  -0.05  -0.05
  11   6     0.02  -0.03  -0.05     0.15  -0.03   0.04     0.17  -0.03  -0.06
  12   6     0.10   0.27  -0.03     0.15  -0.19  -0.12     0.22   0.02   0.19
  13   9    -0.02  -0.11  -0.02    -0.13   0.09   0.08     0.15  -0.06   0.50
  14   6     0.13   0.08   0.01     0.19  -0.07  -0.12    -0.18   0.04  -0.08
  15   6     0.01  -0.26   0.03    -0.03   0.10   0.02    -0.29   0.04  -0.07
  16   6     0.09   0.20   0.03    -0.07  -0.10   0.23    -0.25   0.09  -0.20
  17   6    -0.05   0.13   0.10    -0.08  -0.01   0.24     0.01   0.00   0.03
  18   6    -0.10  -0.21  -0.01    -0.07   0.03   0.03    -0.02  -0.04  -0.11
  19  17    -0.00  -0.01  -0.01    -0.00  -0.00  -0.00    -0.00  -0.00  -0.00
  20   1    -0.06  -0.02   0.09    -0.00  -0.00   0.02    -0.01  -0.00   0.00
  21   1    -0.03  -0.09  -0.08    -0.00  -0.00  -0.01    -0.00  -0.01  -0.00
  22   1    -0.04  -0.08  -0.04    -0.01  -0.01  -0.00     0.00  -0.01  -0.01
  23   1     0.12   0.06  -0.02    -0.00   0.01  -0.00     0.03   0.01  -0.00
  24   1     0.08   0.02   0.02     0.02   0.04  -0.00    -0.01  -0.04   0.01
  25   1     0.07  -0.04   0.08     0.09  -0.05   0.04    -0.04  -0.00   0.02
  26   1     0.05   0.12   0.11     0.03   0.03   0.06    -0.05   0.03   0.02
  27   1    -0.07  -0.09  -0.04     0.03   0.08  -0.01     0.02  -0.08  -0.04
  28   1    -0.01   0.03   0.01     0.08   0.04   0.09    -0.00  -0.06   0.02
  29   1    -0.07  -0.10  -0.02     0.05   0.09  -0.11     0.08  -0.04  -0.09
  30   1    -0.02   0.00   0.01     0.05  -0.04  -0.13     0.06  -0.00  -0.08
  31   1    -0.01  -0.14  -0.01     0.13   0.02   0.06     0.01  -0.01  -0.03
  32   1     0.02  -0.03   0.01     0.06   0.01  -0.08    -0.05  -0.00  -0.14
  33   1    -0.03  -0.20   0.00    -0.06   0.10  -0.03    -0.06  -0.01  -0.01
  34   1     0.05   0.06  -0.00    -0.03  -0.04   0.07    -0.10   0.04  -0.04
  35   1     0.00   0.04   0.02    -0.02   0.06   0.10    -0.04  -0.05   0.01
  36   1    -0.06  -0.10  -0.03    -0.07   0.09  -0.00    -0.01  -0.07  -0.05
                     25                     26                     27
                        a                      a                      a 
 Frequencies --   488.3749               530.3338               563.7928
 Red. masses --    11.4962                 9.4921                10.5814
 Frc consts  --     0.0000                 0.0000                 0.0000
 IR Inten    --     3.1527                11.0888                 6.7425
 Raman Activ --     0.0000                 0.0000                 0.0000
 Depolar     --     0.0000                 0.0000                 0.0000
 Atom AN      X      Y      Z        X      Y      Z        X      Y      Z
   1   7    -0.00  -0.00  -0.01     0.01  -0.06  -0.03     0.00  -0.00  -0.00
   2   6    -0.07  -0.05  -0.00     0.17   0.11  -0.04     0.05   0.03  -0.01
   3   6    -0.18   0.06   0.01    -0.15   0.26   0.06     0.02   0.03   0.00
   4   6    -0.08   0.24   0.06    -0.24  -0.26  -0.07    -0.04  -0.18  -0.09
   5   6     0.03  -0.09   0.03    -0.09  -0.12   0.09    -0.03   0.08   0.01
   6   6     0.05  -0.07   0.11    -0.01   0.11   0.13    -0.06  -0.06   0.04
   7   6     0.22   0.18   0.14     0.09  -0.26  -0.12    -0.06  -0.17  -0.03
   8   6     0.16  -0.04  -0.16     0.17  -0.09  -0.00     0.05   0.22  -0.03
   9   6     0.10  -0.09  -0.19     0.21  -0.02   0.03     0.15   0.09   0.03
  10   6     0.03  -0.08   0.27     0.20   0.15   0.05     0.02  -0.48   0.01
  11   6    -0.06   0.02   0.28    -0.05  -0.00   0.15    -0.03  -0.04   0.09
  12   6    -0.08   0.13  -0.17    -0.13  -0.21   0.02     0.07   0.58   0.03
  13   9    -0.28   0.02  -0.28    -0.06   0.08  -0.04    -0.06  -0.12   0.00
  14   6     0.04  -0.01  -0.08    -0.14   0.08  -0.03    -0.14  -0.15  -0.03
  15   6     0.04  -0.04  -0.06     0.01  -0.01  -0.13     0.04   0.09  -0.11
  16   6     0.08   0.04   0.31     0.02  -0.06  -0.03     0.04   0.02  -0.05
  17   6     0.05  -0.03  -0.03     0.02   0.19  -0.05    -0.03  -0.07   0.03
  18   6     0.02  -0.03  -0.13    -0.06  -0.06  -0.08    -0.01   0.07   0.03
  19  17    -0.00  -0.00   0.00     0.00  -0.01  -0.01     0.00  -0.00  -0.00
  20   1     0.00  -0.00  -0.02    -0.05   0.00   0.07    -0.01   0.00   0.02
  21   1     0.00   0.00   0.01    -0.02  -0.08  -0.05    -0.00  -0.02  -0.01
  22   1     0.01   0.01   0.00    -0.01  -0.05  -0.04     0.00  -0.01  -0.01
  23   1    -0.00  -0.01  -0.00     0.19   0.07  -0.01     0.04   0.02  -0.00
  24   1    -0.03  -0.04  -0.00     0.03  -0.10   0.05     0.01  -0.01   0.01
  25   1    -0.07   0.01  -0.00    -0.01   0.00   0.06     0.03  -0.01   0.01
  26   1    -0.07   0.01  -0.00    -0.03   0.13   0.07     0.01   0.03   0.02
  27   1     0.03  -0.12  -0.06     0.02   0.08   0.06     0.02   0.12   0.04
  28   1    -0.01  -0.11  -0.01    -0.01   0.20   0.08     0.02   0.07   0.05
  29   1     0.09  -0.07  -0.08     0.04   0.06   0.03    -0.01  -0.01  -0.02
  30   1     0.09   0.01  -0.07     0.03  -0.09  -0.00     0.10   0.14   0.01
  31   1     0.06  -0.03   0.12    -0.02   0.03   0.03    -0.04  -0.05   0.01
  32   1     0.00  -0.03   0.02    -0.03   0.09   0.02    -0.07  -0.20   0.01
  33   1    -0.04  -0.02  -0.04     0.02   0.02  -0.03     0.03   0.01  -0.02
  34   1    -0.02   0.03   0.12    -0.04  -0.03   0.02    -0.01   0.07   0.01
  35   1    -0.04  -0.10  -0.03     0.01   0.20   0.06     0.00   0.08   0.05
  36   1     0.01  -0.11  -0.06     0.05   0.07   0.05     0.01   0.13   0.04
                     28                     29                     30
                        a                      a                      a 
 Frequencies --   594.7855               611.1739               639.0450
 Red. masses --    10.7101                11.2203                 9.2558
 Frc consts  --     0.0000                 0.0000                 0.0000
 IR Inten    --     1.3834                 0.2297                 1.5224
 Raman Activ --     0.0000                 0.0000                 0.0000
 Depolar     --     0.0000                 0.0000                 0.0000
 Atom AN      X      Y      Z        X      Y      Z        X      Y      Z
   1   7    -0.00   0.03   0.02     0.01   0.00  -0.01     0.00  -0.00  -0.00
   2   6     0.00  -0.02   0.02     0.01   0.02  -0.01     0.01   0.01  -0.00
   3   6     0.20  -0.15  -0.03    -0.03   0.04  -0.05    -0.02   0.02  -0.00
   4   6     0.16   0.06  -0.00    -0.02   0.03  -0.11    -0.04  -0.12  -0.04
   5   6    -0.09   0.10  -0.14    -0.35   0.16  -0.24     0.03   0.05   0.05
   6   6    -0.12   0.03  -0.01    -0.37  -0.01   0.26    -0.00  -0.08  -0.02
   7   6    -0.18   0.12   0.10     0.01  -0.07   0.09     0.02   0.02   0.01
   8   6    -0.10   0.02  -0.12     0.01  -0.03   0.08     0.04   0.13   0.02
   9   6     0.27  -0.12   0.11    -0.03  -0.03   0.07    -0.02  -0.04  -0.03
  10   6     0.34   0.02   0.04    -0.03   0.01  -0.02    -0.12  -0.45  -0.00
  11   6    -0.03   0.05   0.23     0.00   0.01  -0.04     0.06   0.25  -0.01
  12   6    -0.12  -0.14   0.07    -0.00  -0.03  -0.01    -0.05  -0.29  -0.01
  13   9    -0.05   0.04   0.06     0.00   0.00  -0.02    -0.00  -0.01  -0.01
  14   6    -0.26   0.12  -0.09     0.04   0.01   0.02     0.08   0.26   0.01
  15   6     0.11  -0.07  -0.35    -0.01  -0.01   0.05    -0.09  -0.35   0.03
  16   6     0.14   0.01  -0.15    -0.01   0.01   0.00     0.05   0.32   0.02
  17   6    -0.10  -0.07   0.17     0.37  -0.16   0.22    -0.03  -0.07  -0.05
  18   6    -0.08   0.01   0.10     0.41   0.02  -0.28    -0.00   0.06   0.03
  19  17    -0.00   0.00   0.00     0.00  -0.00  -0.00    -0.00   0.00   0.00
  20   1     0.01   0.00  -0.01    -0.00   0.00   0.00    -0.00   0.00   0.01
  21   1     0.00   0.03   0.00    -0.00  -0.01  -0.00    -0.00  -0.01  -0.00
  22   1    -0.01   0.02   0.02     0.00  -0.00  -0.01     0.00  -0.01  -0.00
  23   1    -0.09  -0.03   0.01     0.02   0.01   0.00     0.03   0.01  -0.00
  24   1     0.02   0.09  -0.03    -0.00  -0.01   0.00    -0.00  -0.02   0.01
  25   1     0.05  -0.01  -0.02    -0.03   0.06  -0.05     0.01  -0.01   0.01
  26   1     0.05  -0.06  -0.03     0.02  -0.02  -0.06    -0.00   0.02   0.01
  27   1    -0.06  -0.04  -0.05    -0.05   0.05  -0.08     0.02   0.06   0.03
  28   1     0.01  -0.10  -0.00    -0.07  -0.01   0.10    -0.00   0.01   0.00
  29   1    -0.08   0.02  -0.00    -0.01  -0.02   0.03     0.00  -0.07  -0.02
  30   1     0.12  -0.05   0.00    -0.04   0.01   0.04     0.03   0.09   0.00
  31   1    -0.06   0.04   0.03     0.00   0.01  -0.01     0.06   0.28  -0.00
  32   1    -0.06   0.08   0.02     0.01   0.01   0.00     0.06   0.23  -0.00
  33   1     0.08  -0.03  -0.07    -0.01  -0.00   0.01    -0.01  -0.01   0.00
  34   1    -0.04   0.01   0.00     0.01   0.00  -0.01     0.06   0.29   0.01
  35   1    -0.03  -0.09   0.01     0.07  -0.04   0.09    -0.00   0.02   0.00
  36   1    -0.09  -0.03  -0.03     0.09   0.03  -0.09     0.02   0.07   0.03
                     31                     32                     33
                        a                      a                      a 
 Frequencies --   681.4343               739.4643               752.3551
 Red. masses --    10.6227                11.6491                 6.1375
 Frc consts  --     0.0000                 0.0000                 0.0000
 IR Inten    --     1.3789                26.4636                 4.7930
 Raman Activ --     0.0000                 0.0000                 0.0000
 Depolar     --     0.0000                 0.0000                 0.0000
 Atom AN      X      Y      Z        X      Y      Z        X      Y      Z
   1   7     0.01   0.00   0.00     0.01   0.02   0.02    -0.01  -0.00  -0.01
   2   6     0.05   0.07  -0.01     0.09   0.02   0.01     0.00  -0.04   0.01
   3   6     0.00   0.03  -0.02     0.17  -0.12  -0.01     0.03  -0.02   0.03
   4   6    -0.12  -0.45  -0.18     0.01  -0.02  -0.01     0.05   0.16   0.06
   5   6     0.01   0.26   0.14    -0.12   0.06  -0.01    -0.02  -0.09  -0.06
   6   6    -0.10  -0.24  -0.06    -0.12   0.04   0.09    -0.01  -0.04  -0.01
   7   6     0.12   0.41   0.16     0.05  -0.02  -0.00    -0.02  -0.09  -0.03
   8   6     0.06  -0.01   0.02     0.18  -0.08  -0.09     0.09   0.36   0.04
   9   6    -0.04  -0.15  -0.06     0.34  -0.01   0.04    -0.01  -0.38  -0.06
  10   6     0.04   0.20   0.01     0.15  -0.05  -0.03     0.05   0.08   0.00
  11   6    -0.01  -0.03   0.01     0.12  -0.03  -0.11     0.04   0.08  -0.01
  12   6    -0.00  -0.03  -0.00     0.03   0.02   0.01    -0.02  -0.17  -0.00
  13   9     0.01   0.02   0.01    -0.15   0.03  -0.33    -0.02   0.05  -0.06
  14   6    -0.00  -0.02  -0.01     0.06  -0.02   0.20     0.03   0.09   0.03
  15   6     0.01   0.07   0.00    -0.26   0.04   0.45    -0.04   0.10   0.09
  16   6    -0.01  -0.04   0.02    -0.21   0.03  -0.12    -0.02   0.11  -0.02
  17   6    -0.07  -0.23  -0.14    -0.13   0.08  -0.04    -0.04  -0.05  -0.00
  18   6     0.03   0.27   0.09    -0.14   0.05   0.04    -0.05  -0.10  -0.02
  19  17     0.00  -0.00  -0.00     0.00  -0.00  -0.00     0.00  -0.00  -0.00
  20   1    -0.01   0.01   0.04    -0.01   0.01   0.02     0.00  -0.00  -0.02
  21   1    -0.00  -0.02  -0.00    -0.00  -0.01  -0.04    -0.00   0.00  -0.02
  22   1     0.00  -0.02  -0.02    -0.03   0.01   0.02    -0.01   0.02   0.01
  23   1     0.09   0.04  -0.01    -0.08  -0.01   0.01    -0.07  -0.02   0.01
  24   1     0.01  -0.05   0.04     0.04   0.11  -0.05     0.01   0.05  -0.03
  25   1     0.07  -0.03   0.03     0.05  -0.01  -0.01    -0.02   0.02  -0.02
  26   1     0.02   0.05   0.04     0.05  -0.05  -0.02    -0.00  -0.04  -0.02
  27   1     0.00   0.08   0.04    -0.06  -0.04  -0.02     0.03   0.13   0.05
  28   1    -0.06  -0.12  -0.05    -0.05  -0.07  -0.01     0.04   0.15   0.07
  29   1     0.01  -0.11  -0.03     0.05   0.07   0.00    -0.06  -0.32  -0.08
  30   1     0.00   0.06   0.00     0.11  -0.08  -0.01     0.10   0.33   0.05
  31   1    -0.01  -0.08   0.01     0.02   0.01  -0.05    -0.03  -0.16  -0.01
  32   1    -0.01  -0.05  -0.01     0.02   0.02  -0.01    -0.04  -0.19  -0.01
  33   1    -0.02  -0.04  -0.00    -0.04   0.03   0.15    -0.06  -0.20   0.02
  34   1    -0.03  -0.12   0.00    -0.01   0.04  -0.05    -0.07  -0.28  -0.01
  35   1    -0.04  -0.11  -0.05    -0.08  -0.04  -0.02     0.02   0.18   0.08
  36   1     0.02   0.10   0.04    -0.07  -0.04  -0.02     0.01   0.13   0.05
                     34                     35                     36
                        a                      a                      a 
 Frequencies --   764.3768               789.6750               804.8360
 Red. masses --     9.1632                 5.6299                 6.2731
 Frc consts  --     0.0000                 0.0000                 0.0000
 IR Inten    --    17.0250                42.0209                 5.3992
 Raman Activ --     0.0000                 0.0000                 0.0000
 Depolar     --     0.0000                 0.0000                 0.0000
 Atom AN      X      Y      Z        X      Y      Z        X      Y      Z
   1   7    -0.03  -0.03  -0.02     0.00   0.01   0.02    -0.00   0.03   0.04
   2   6    -0.18  -0.00  -0.04     0.04   0.03  -0.01    -0.01   0.06  -0.04
   3   6    -0.28   0.20  -0.03     0.04  -0.03  -0.02     0.00  -0.03  -0.08
   4   6     0.03  -0.05  -0.02    -0.04  -0.08  -0.03    -0.03  -0.13  -0.05
   5   6     0.19   0.00  -0.04    -0.01   0.05   0.07     0.03   0.13   0.09
   6   6     0.19   0.03  -0.16    -0.01   0.07   0.09     0.03   0.22   0.13
   7   6    -0.18   0.07   0.02     0.02  -0.10  -0.04    -0.06  -0.34  -0.14
   8   6    -0.27   0.06  -0.16     0.00  -0.12  -0.00     0.06   0.29   0.07
   9   6     0.17  -0.03   0.16    -0.01   0.22   0.02    -0.07  -0.23  -0.03
  10   6     0.12  -0.04  -0.01    -0.10  -0.28  -0.01     0.00   0.12   0.00
  11   6     0.08   0.03  -0.05     0.02   0.20  -0.00    -0.03  -0.05  -0.00
  12   6     0.01  -0.05   0.02    -0.06  -0.22  -0.01     0.01   0.04  -0.01
  13   9    -0.08   0.03  -0.17     0.04   0.04   0.04     0.01  -0.01   0.02
  14   6     0.01   0.03   0.10     0.04   0.21  -0.02    -0.00  -0.05  -0.01
  15   6    -0.08   0.04   0.17     0.06   0.11  -0.05     0.00  -0.03  -0.02
  16   6    -0.06   0.04  -0.13     0.06   0.18   0.03    -0.00  -0.04   0.02
  17   6     0.16  -0.13   0.25     0.00   0.11  -0.03     0.03   0.16   0.04
  18   6     0.14  -0.05   0.10     0.01   0.08  -0.01     0.02   0.10   0.03
  19  17    -0.00   0.00   0.00     0.00  -0.00  -0.00    -0.00   0.00  -0.00
  20   1     0.04  -0.03  -0.05    -0.00   0.00   0.01     0.01   0.00   0.03
  21   1     0.01   0.03   0.13    -0.00  -0.01  -0.01     0.00   0.01   0.06
  22   1     0.07  -0.03  -0.05    -0.01  -0.00   0.00     0.02  -0.03  -0.03
  23   1     0.21   0.04  -0.04     0.01   0.01   0.00     0.10   0.03  -0.02
  24   1    -0.08  -0.23   0.13     0.01   0.01   0.00    -0.01  -0.05   0.07
  25   1    -0.05  -0.02   0.04     0.03  -0.03   0.01     0.05  -0.08   0.03
  26   1    -0.08   0.13   0.06     0.02   0.01   0.01     0.00   0.06   0.05
  27   1     0.04  -0.03  -0.02    -0.03  -0.14  -0.05    -0.06  -0.33  -0.12
  28   1     0.12  -0.06  -0.02    -0.06  -0.13  -0.05    -0.09  -0.33  -0.14
  29   1    -0.12   0.05  -0.01     0.04   0.17   0.04    -0.05  -0.16  -0.03
  30   1     0.13  -0.05  -0.00    -0.04  -0.08  -0.01     0.04   0.21   0.04
  31   1    -0.04  -0.06  -0.04    -0.05  -0.25   0.01     0.01   0.08  -0.00
  32   1    -0.01  -0.05   0.01    -0.08  -0.39  -0.00     0.03   0.10  -0.00
  33   1     0.00  -0.05   0.07    -0.07  -0.31  -0.02     0.01   0.07  -0.01
  34   1    -0.01  -0.06  -0.05    -0.07  -0.33   0.00     0.01   0.05   0.01
  35   1     0.10  -0.06   0.03    -0.05  -0.14  -0.07    -0.05  -0.21  -0.09
  36   1     0.02  -0.02   0.02    -0.02  -0.13  -0.06    -0.04  -0.22  -0.09
                     37                     38                     39
                        a                      a                      a 
 Frequencies --   841.7352               850.1593               857.0603
 Red. masses --     5.1316                 3.8578                 3.4451
 Frc consts  --     0.0000                 0.0000                 0.0000
 IR Inten    --    23.4871                 3.4991                 2.7824
 Raman Activ --     0.0000                 0.0000                 0.0000
 Depolar     --     0.0000                 0.0000                 0.0000
 Atom AN      X      Y      Z        X      Y      Z        X      Y      Z
   1   7     0.14  -0.02  -0.08     0.04  -0.02  -0.04     0.00   0.03   0.02
   2   6     0.13  -0.05   0.13     0.02  -0.02   0.05     0.01   0.02  -0.02
   3   6    -0.15   0.10   0.22    -0.06   0.06   0.08    -0.00  -0.04  -0.02
   4   6    -0.14  -0.12  -0.07    -0.03  -0.05  -0.02    -0.01  -0.01  -0.00
   5   6     0.14  -0.01   0.13     0.02  -0.04  -0.02    -0.03  -0.16  -0.05
   6   6     0.13   0.02   0.03     0.02  -0.05  -0.06    -0.04  -0.20  -0.07
   7   6    -0.07  -0.01  -0.00    -0.03  -0.01  -0.00    -0.00  -0.04  -0.01
   8   6    -0.21   0.09  -0.09    -0.03   0.02  -0.01    -0.00   0.04  -0.00
   9   6    -0.00  -0.03   0.08     0.01  -0.02   0.01    -0.01  -0.04  -0.00
  10   6     0.03   0.01   0.00     0.02   0.03   0.00     0.01   0.00   0.00
  11   6     0.04   0.10  -0.01    -0.08  -0.39   0.00     0.03   0.13   0.00
  12   6     0.00  -0.01   0.01     0.02   0.05   0.00     0.00  -0.01   0.00
  13   9    -0.01   0.01  -0.02    -0.01  -0.02  -0.01    -0.00   0.01  -0.01
  14   6    -0.01  -0.04   0.01     0.03   0.09   0.00    -0.02  -0.06   0.00
  15   6     0.00  -0.03   0.00     0.02   0.10   0.01    -0.01  -0.04   0.00
  16   6    -0.01  -0.04  -0.04     0.02   0.13  -0.01    -0.01  -0.03  -0.01
  17   6     0.06  -0.01   0.02     0.03   0.07   0.07     0.05   0.23   0.08
  18   6     0.10   0.07  -0.13     0.03   0.08   0.03     0.04   0.21   0.07
  19  17     0.00  -0.00  -0.00     0.00  -0.00  -0.00     0.00   0.00  -0.00
  20   1    -0.12   0.07   0.10    -0.03   0.01   0.01    -0.01   0.01   0.06
  21   1    -0.03  -0.13  -0.39    -0.01  -0.04  -0.11    -0.00  -0.01   0.02
  22   1    -0.18   0.06   0.10    -0.05   0.02   0.03     0.01  -0.02  -0.03
  23   1    -0.28  -0.02   0.11    -0.07  -0.01   0.03     0.02  -0.01  -0.02
  24   1     0.03   0.12  -0.28     0.00   0.02  -0.07     0.00  -0.01   0.02
  25   1    -0.06   0.24  -0.05    -0.02   0.09  -0.01     0.01  -0.02   0.00
  26   1    -0.03  -0.15  -0.12    -0.01  -0.04  -0.04    -0.01  -0.00   0.00
  27   1     0.07  -0.10  -0.03     0.03   0.09   0.03     0.06   0.30   0.13
  28   1     0.03  -0.11  -0.02     0.04   0.10   0.04     0.08   0.36   0.16
  29   1    -0.10   0.01  -0.01    -0.00   0.01  -0.00    -0.02  -0.03  -0.00
  30   1     0.05   0.02   0.00     0.01  -0.01  -0.00     0.01   0.07   0.01
  31   1    -0.06  -0.17  -0.01     0.13   0.68  -0.01    -0.05  -0.23   0.00
  32   1     0.01   0.06   0.01    -0.03  -0.14  -0.00     0.02   0.09   0.00
  33   1     0.03   0.08   0.01    -0.06  -0.27  -0.00     0.02   0.10   0.00
  34   1     0.01   0.05  -0.01    -0.04  -0.20  -0.01     0.01   0.05   0.00
  35   1    -0.00  -0.04  -0.01    -0.03  -0.17  -0.06    -0.10  -0.42  -0.17
  36   1     0.04  -0.01  -0.04    -0.03  -0.14  -0.06    -0.08  -0.40  -0.16
                     40                     41                     42
                        a                      a                      a 
 Frequencies --   878.6091               881.5848               896.2317
 Red. masses --     8.7177                 4.2192                 5.9739
 Frc consts  --     0.0000                 0.0000                 0.0000
 IR Inten    --    12.3050                 0.6044                12.1822
 Raman Activ --     0.0000                 0.0000                 0.0000
 Depolar     --     0.0000                 0.0000                 0.0000
 Atom AN      X      Y      Z        X      Y      Z        X      Y      Z
   1   7    -0.02   0.10   0.28     0.00   0.03   0.05    -0.05   0.02  -0.18
   2   6     0.16   0.03  -0.17     0.03   0.01  -0.03    -0.07   0.05   0.07
   3   6     0.03  -0.21  -0.33    -0.01  -0.04  -0.05     0.18  -0.06   0.22
   4   6    -0.10   0.11   0.02    -0.02   0.02   0.00    -0.05   0.02   0.00
   5   6     0.08  -0.16   0.28     0.01  -0.02   0.04     0.06  -0.19   0.15
   6   6    -0.02  -0.10   0.19    -0.00  -0.03   0.01     0.00   0.01   0.24
   7   6    -0.02   0.06   0.00    -0.01   0.01  -0.00    -0.01   0.03   0.02
   8   6    -0.28   0.06  -0.13    -0.04   0.04  -0.01    -0.22   0.06  -0.10
   9   6    -0.00  -0.01   0.11    -0.01  -0.04   0.01    -0.01  -0.02   0.08
  10   6     0.03   0.00   0.01     0.03   0.10   0.00     0.02   0.01   0.01
  11   6     0.01  -0.04  -0.01    -0.00  -0.03   0.00     0.01  -0.02  -0.00
  12   6     0.02   0.02   0.01    -0.01  -0.08   0.00     0.01  -0.00   0.01
  13   9    -0.02  -0.00  -0.02    -0.00   0.02  -0.01    -0.01   0.00  -0.02
  14   6    -0.01  -0.05   0.01     0.07   0.35   0.01    -0.00   0.01   0.01
  15   6     0.01   0.00  -0.00     0.00   0.01   0.00     0.01   0.00  -0.00
  16   6     0.01   0.06  -0.05    -0.08  -0.35  -0.02     0.00  -0.00  -0.04
  17   6     0.04   0.00  -0.14     0.01   0.00  -0.01    -0.05   0.10  -0.18
  18   6     0.11   0.03  -0.22     0.02   0.01  -0.02     0.05   0.05  -0.26
  19  17     0.00  -0.00  -0.00     0.00  -0.00  -0.00    -0.00   0.00  -0.00
  20   1    -0.03   0.05   0.04    -0.01   0.01   0.03     0.07  -0.07   0.06
  21   1    -0.01   0.03  -0.02    -0.00  -0.01  -0.01     0.02   0.01   0.26
  22   1    -0.05   0.09   0.14    -0.01   0.01   0.01     0.15  -0.21  -0.28
  23   1     0.01   0.09   0.04    -0.00   0.01   0.00     0.08  -0.14  -0.15
  24   1     0.06   0.08  -0.06     0.01   0.01  -0.01     0.00   0.03   0.21
  25   1     0.01  -0.36   0.05    -0.00  -0.05   0.01     0.05   0.21  -0.05
  26   1    -0.06   0.14   0.13    -0.01   0.01   0.02     0.11  -0.17  -0.11
  27   1     0.09  -0.01   0.07     0.01   0.00   0.01     0.13   0.17   0.10
  28   1    -0.02   0.03   0.06     0.00   0.03   0.02    -0.05  -0.19  -0.02
  29   1    -0.14   0.05   0.00    -0.03  -0.05  -0.01    -0.11   0.04   0.00
  30   1     0.04  -0.02   0.01     0.00  -0.00   0.00     0.04  -0.00   0.00
  31   1    -0.01   0.08  -0.02     0.01   0.05  -0.00    -0.01   0.05  -0.01
  32   1     0.02   0.08   0.01    -0.12  -0.58  -0.01    -0.00  -0.00   0.00
  33   1     0.01  -0.03   0.01     0.00  -0.01   0.00     0.01  -0.02   0.01
  34   1    -0.02  -0.10  -0.02     0.12   0.57   0.00     0.01   0.01  -0.01
  35   1    -0.01   0.07   0.00    -0.00  -0.00  -0.00    -0.08  -0.04  -0.05
  36   1     0.10   0.03  -0.01     0.01  -0.02  -0.01     0.06   0.11  -0.02
                     43                     44                     45
                        a                      a                      a 
 Frequencies --   898.1159               914.6501               915.4354
 Red. masses --     3.2366                 5.5719                 4.1266
 Frc consts  --     0.0000                 0.0000                 0.0000
 IR Inten    --     2.8128                 6.0145                 2.3853
 Raman Activ --     0.0000                 0.0000                 0.0000
 Depolar     --     0.0000                 0.0000                 0.0000
 Atom AN      X      Y      Z        X      Y      Z        X      Y      Z
   1   7    -0.00  -0.06   0.04    -0.08  -0.31  -0.18    -0.02  -0.11  -0.07
   2   6     0.01  -0.04  -0.01    -0.10  -0.08   0.16    -0.03  -0.02   0.06
   3   6    -0.03   0.07  -0.09     0.20   0.25  -0.01     0.06   0.10   0.00
   4   6     0.02  -0.02  -0.01     0.01  -0.02  -0.01     0.01  -0.01  -0.01
   5   6    -0.07  -0.23  -0.16     0.02   0.05   0.14    -0.02  -0.15  -0.02
   6   6     0.05   0.25   0.05    -0.08  -0.13   0.10     0.01   0.11   0.10
   7   6     0.01   0.00  -0.00     0.01  -0.00  -0.01     0.00  -0.00  -0.00
   8   6     0.07  -0.02   0.03    -0.08   0.03  -0.03    -0.03   0.01  -0.01
   9   6    -0.00  -0.01  -0.02    -0.00  -0.01   0.03     0.00   0.01   0.01
  10   6    -0.02   0.00  -0.00     0.01   0.00   0.00    -0.00  -0.00   0.00
  11   6    -0.01   0.01  -0.01     0.01   0.01   0.00     0.00   0.01  -0.00
  12   6    -0.01  -0.00  -0.01     0.00  -0.01   0.00    -0.00  -0.00  -0.00
  13   9     0.01  -0.00   0.02    -0.01   0.00  -0.01     0.00  -0.00   0.00
  14   6     0.00   0.00  -0.01    -0.00  -0.01   0.00    -0.00  -0.01  -0.00
  15   6    -0.00  -0.00  -0.00     0.01   0.03  -0.00     0.01   0.03  -0.00
  16   6    -0.00  -0.01   0.02    -0.01  -0.03  -0.01    -0.00  -0.02  -0.00
  17   6     0.03   0.06   0.08    -0.01   0.15  -0.06    -0.06  -0.25  -0.14
  18   6    -0.03  -0.08   0.05     0.00  -0.05  -0.09     0.07   0.31   0.10
  19  17     0.00  -0.00   0.00    -0.00   0.00   0.01    -0.00   0.00   0.00
  20   1    -0.00   0.01  -0.11     0.14  -0.11  -0.52     0.05  -0.04  -0.18
  21   1     0.00   0.03  -0.09     0.04   0.16   0.01     0.02   0.06  -0.00
  22   1    -0.04   0.12   0.14     0.03   0.23   0.20     0.01   0.08   0.07
  23   1    -0.04   0.06   0.08    -0.05   0.07   0.13    -0.02   0.02   0.04
  24   1    -0.00  -0.00  -0.08    -0.02   0.02   0.01    -0.01   0.00   0.00
  25   1     0.00  -0.08   0.03     0.14   0.03   0.04     0.06   0.02   0.02
  26   1    -0.04   0.08   0.05     0.07   0.13   0.06     0.02   0.05   0.02
  27   1     0.08   0.54   0.21    -0.00  -0.15  -0.04     0.04   0.16   0.07
  28   1    -0.10  -0.44  -0.21    -0.01   0.14   0.09    -0.04  -0.14  -0.05
  29   1     0.04   0.02   0.01    -0.05  -0.00   0.00    -0.02  -0.01  -0.00
  30   1     0.00   0.03   0.00     0.01   0.01   0.01     0.00  -0.03  -0.00
  31   1    -0.00  -0.02   0.00    -0.01  -0.02  -0.00    -0.01  -0.01  -0.00
  32   1    -0.00  -0.01  -0.00     0.01   0.03   0.00     0.01   0.03   0.00
  33   1    -0.01   0.01  -0.01    -0.01  -0.06   0.00    -0.01  -0.05  -0.00
  34   1     0.01   0.02   0.01     0.02   0.07  -0.00     0.01   0.03  -0.00
  35   1    -0.02  -0.24  -0.09    -0.06  -0.16  -0.09     0.09   0.46   0.18
  36   1     0.03   0.19   0.10     0.05   0.11   0.04    -0.10  -0.54  -0.22
                     46                     47                     48
                        a                      a                      a 
 Frequencies --   919.0096               961.6515               976.4949
 Red. masses --     3.4769                 2.4142                10.2988
 Frc consts  --     0.0000                 0.0000                 0.0000
 IR Inten    --     0.2072                79.7237               100.3456
 Raman Activ --     0.0000                 0.0000                 0.0000
 Depolar     --     0.0000                 0.0000                 0.0000
 Atom AN      X      Y      Z        X      Y      Z        X      Y      Z
   1   7     0.01   0.04   0.03    -0.00  -0.00   0.00    -0.00  -0.00   0.00
   2   6     0.01   0.01  -0.02     0.01   0.00  -0.00     0.00   0.00  -0.01
   3   6    -0.03  -0.03  -0.00     0.00  -0.01   0.00     0.01  -0.00   0.00
   4   6    -0.00   0.00   0.00    -0.01  -0.01   0.00    -0.01  -0.00   0.01
   5   6    -0.00   0.01  -0.01    -0.01   0.00  -0.00     0.00  -0.01   0.02
   6   6     0.01   0.01  -0.02    -0.01  -0.01   0.00     0.01   0.03  -0.04
   7   6    -0.00  -0.00  -0.00     0.02  -0.02  -0.01    -0.03  -0.02   0.01
   8   6     0.01   0.00   0.01     0.02   0.21   0.02    -0.02   0.02   0.13
   9   6     0.00   0.01  -0.00     0.12   0.19   0.06    -0.32   0.12  -0.13
  10   6    -0.01  -0.05  -0.00    -0.02  -0.01  -0.01     0.06  -0.03   0.08
  11   6     0.02   0.09  -0.00    -0.07   0.01   0.01     0.40  -0.09   0.07
  12   6    -0.01  -0.05  -0.00    -0.04   0.01  -0.04     0.24  -0.05   0.22
  13   9     0.00  -0.00   0.00     0.03  -0.00   0.05    -0.19   0.04  -0.27
  14   6    -0.04  -0.17  -0.00     0.09  -0.02  -0.03    -0.39   0.08   0.15
  15   6     0.08   0.37   0.00    -0.02  -0.00   0.01     0.08  -0.02  -0.03
  16   6    -0.04  -0.17   0.00    -0.01   0.03   0.00     0.07  -0.00  -0.12
  17   6     0.01   0.00   0.02    -0.00   0.03   0.01     0.01   0.01  -0.00
  18   6    -0.01  -0.02   0.01    -0.00  -0.00   0.00     0.03   0.01  -0.04
  19  17     0.00   0.00  -0.00     0.00   0.00   0.00    -0.00  -0.00   0.00
  20   1    -0.02   0.01   0.07     0.00  -0.00  -0.00     0.00  -0.00  -0.01
  21   1    -0.01  -0.02  -0.00    -0.00   0.00   0.00     0.00   0.00   0.00
  22   1    -0.01  -0.03  -0.02     0.00   0.00   0.00     0.00   0.01   0.01
  23   1     0.01  -0.01  -0.02    -0.00   0.00  -0.00     0.00   0.00   0.00
  24   1     0.00  -0.00  -0.00     0.00   0.01   0.00     0.00   0.00   0.00
  25   1    -0.02  -0.01  -0.01    -0.00  -0.00  -0.00    -0.00  -0.00  -0.00
  26   1    -0.01  -0.02  -0.01     0.00  -0.00  -0.00     0.01   0.00  -0.00
  27   1    -0.00   0.00  -0.00    -0.00   0.02   0.01    -0.01   0.00   0.02
  28   1     0.00  -0.00  -0.01     0.02  -0.03   0.00    -0.04  -0.00  -0.04
  29   1     0.00  -0.02  -0.00    -0.15  -0.62  -0.14     0.09  -0.15  -0.05
  30   1    -0.01  -0.02  -0.00    -0.11  -0.64  -0.10    -0.16  -0.08  -0.03
  31   1    -0.01  -0.04   0.00    -0.06  -0.01  -0.02     0.24  -0.05   0.10
  32   1     0.07   0.35   0.00     0.02  -0.01  -0.01    -0.11   0.02   0.01
  33   1    -0.15  -0.70  -0.01    -0.04   0.02  -0.02     0.24  -0.05   0.12
  34   1     0.07   0.33   0.01    -0.00  -0.04  -0.01     0.01  -0.01  -0.03
  35   1    -0.00  -0.02  -0.00    -0.02  -0.04  -0.01     0.00  -0.01  -0.01
  36   1     0.00   0.03   0.01     0.00   0.01   0.00     0.01   0.00  -0.01
                     49                     50                     51
                        a                      a                      a 
 Frequencies --   993.4945              1012.8989              1024.3262
 Red. masses --    10.5887                 7.8152                 8.2954
 Frc consts  --     0.0000                 0.0000                 0.0000
 IR Inten    --     1.3567                 0.9494                15.2615
 Raman Activ --     0.0000                 0.0000                 0.0000
 Depolar     --     0.0000                 0.0000                 0.0000
 Atom AN      X      Y      Z        X      Y      Z        X      Y      Z
   1   7     0.00   0.00  -0.00     0.17   0.03  -0.06    -0.19   0.02   0.33
   2   6    -0.01  -0.00   0.00    -0.27   0.00   0.10     0.18  -0.15  -0.46
   3   6    -0.00   0.00  -0.00     0.00   0.01  -0.07    -0.04   0.10   0.28
   4   6     0.01   0.00   0.00     0.20   0.03   0.01     0.01  -0.11   0.02
   5   6    -0.01   0.01  -0.03     0.00   0.08  -0.24     0.02   0.10  -0.20
   6   6    -0.01  -0.02   0.04    -0.09  -0.13   0.35     0.02  -0.05   0.13
   7   6     0.02   0.01  -0.01     0.07  -0.00  -0.01     0.03  -0.02   0.02
   8   6     0.01   0.02  -0.06    -0.10   0.03  -0.03    -0.05   0.01  -0.01
   9   6     0.15  -0.04   0.08    -0.06   0.01   0.03    -0.03  -0.00   0.01
  10   6    -0.09   0.03   0.00    -0.00   0.00   0.02    -0.01   0.00   0.01
  11   6     0.16  -0.03  -0.57     0.02  -0.01   0.04     0.00  -0.00   0.02
  12   6     0.00  -0.00   0.09     0.02  -0.01   0.01     0.01  -0.00   0.00
  13   9     0.00  -0.00  -0.02    -0.02   0.00  -0.02    -0.00   0.00  -0.01
  14   6    -0.37   0.08   0.03     0.00  -0.00   0.01     0.00  -0.00   0.00
  15   6     0.01  -0.00  -0.07     0.02  -0.00  -0.01     0.01  -0.00  -0.01
  16   6     0.17  -0.05   0.53    -0.01   0.00  -0.06    -0.01   0.00  -0.03
  17   6    -0.01   0.01  -0.02    -0.03   0.13  -0.33    -0.03   0.08  -0.16
  18   6    -0.02  -0.01   0.03    -0.04  -0.11   0.26    -0.02  -0.01   0.09
  19  17    -0.00  -0.00  -0.00     0.00  -0.00  -0.00    -0.00  -0.00   0.00
  20   1    -0.00   0.00   0.00    -0.10   0.07   0.16     0.04  -0.02  -0.12
  21   1    -0.00  -0.00  -0.00    -0.01  -0.13  -0.22    -0.01   0.13   0.17
  22   1    -0.00  -0.00  -0.00    -0.09  -0.04  -0.01     0.02   0.12   0.16
  23   1     0.00   0.00   0.00     0.07   0.06   0.04     0.02  -0.03  -0.11
  24   1    -0.00  -0.00  -0.00    -0.12  -0.24  -0.02     0.05  -0.03  -0.10
  25   1     0.00   0.00   0.00     0.13  -0.00   0.02    -0.30   0.12  -0.06
  26   1    -0.00   0.00   0.00    -0.00   0.06   0.04     0.21  -0.06  -0.09
  27   1     0.01   0.00  -0.01     0.13   0.04  -0.12     0.11   0.01  -0.12
  28   1     0.04  -0.01   0.03     0.10  -0.09   0.17     0.12  -0.07   0.09
  29   1    -0.03  -0.02  -0.01    -0.06   0.00   0.00    -0.02   0.01  -0.00
  30   1     0.11  -0.04  -0.02    -0.00  -0.01  -0.00     0.02   0.01  -0.01
  31   1    -0.08   0.02  -0.23     0.01   0.01   0.02     0.00  -0.00   0.01
  32   1    -0.11   0.02   0.03     0.00  -0.00   0.00     0.00  -0.00   0.00
  33   1    -0.08   0.02  -0.06     0.03  -0.01   0.01     0.02   0.00   0.01
  34   1     0.02  -0.01   0.17     0.00  -0.00  -0.02     0.01   0.00  -0.01
  35   1     0.00   0.00  -0.01     0.13   0.05  -0.16     0.03   0.01  -0.07
  36   1     0.00  -0.01   0.01     0.12  -0.06   0.14     0.04  -0.05   0.04
                     52                     53                     54
                        a                      a                      a 
 Frequencies --  1045.0956              1080.5880              1120.7951
 Red. masses --     5.4665                 7.0549                 3.8616
 Frc consts  --     0.0000                 0.0000                 0.0000
 IR Inten    --     3.9066                 7.2722                 6.5544
 Raman Activ --     0.0000                 0.0000                 0.0000
 Depolar     --     0.0000                 0.0000                 0.0000
 Atom AN      X      Y      Z        X      Y      Z        X      Y      Z
   1   7     0.12   0.01   0.15    -0.06   0.15   0.15     0.00  -0.00  -0.00
   2   6    -0.32  -0.07  -0.22    -0.04  -0.47  -0.16     0.00   0.01   0.00
   3   6     0.21  -0.02   0.13     0.15   0.41  -0.11    -0.01  -0.01   0.01
   4   6     0.08   0.04   0.07     0.05   0.01  -0.10     0.01   0.00  -0.01
   5   6     0.00  -0.07   0.14     0.00  -0.04   0.12     0.02  -0.00  -0.00
   6   6    -0.02   0.05  -0.11    -0.06  -0.00   0.05    -0.01  -0.01   0.02
   7   6    -0.04  -0.00   0.03     0.01   0.02  -0.05    -0.00   0.01  -0.02
   8   6     0.04  -0.01   0.01     0.01  -0.00  -0.01     0.00  -0.01   0.02
   9   6     0.03  -0.00  -0.02     0.00   0.00  -0.00    -0.03   0.02  -0.05
  10   6     0.01  -0.00  -0.01     0.01  -0.00  -0.01     0.08  -0.02  -0.09
  11   6    -0.01   0.00  -0.02     0.00  -0.00   0.00    -0.11   0.02   0.16
  12   6    -0.01   0.00  -0.00     0.01  -0.00   0.01     0.08  -0.02   0.07
  13   9     0.01  -0.00   0.01    -0.00   0.00  -0.00    -0.04   0.01  -0.04
  14   6     0.00  -0.00  -0.01     0.00  -0.00  -0.00    -0.12   0.03  -0.18
  15   6    -0.01   0.00   0.01    -0.00   0.00   0.00    -0.09   0.02   0.21
  16   6     0.00  -0.00   0.03     0.00   0.00   0.01     0.26  -0.06   0.11
  17   6    -0.07  -0.02   0.07     0.03  -0.02   0.05     0.00  -0.01   0.01
  18   6     0.03   0.09  -0.25    -0.00  -0.02   0.05    -0.00  -0.01   0.01
  19  17     0.00  -0.00  -0.00    -0.00  -0.00  -0.00    -0.00  -0.00   0.00
  20   1    -0.09   0.07   0.08    -0.02   0.02   0.16     0.00  -0.00  -0.01
  21   1    -0.01  -0.08  -0.21    -0.02  -0.02   0.11     0.00   0.00  -0.00
  22   1    -0.11   0.07   0.14     0.01  -0.08  -0.07     0.00   0.00   0.00
  23   1     0.19   0.11  -0.01    -0.20  -0.29  -0.15     0.00   0.01   0.00
  24   1    -0.16  -0.41  -0.04    -0.00  -0.04  -0.13     0.00   0.00   0.00
  25   1     0.04   0.09  -0.02     0.36   0.11   0.06    -0.01  -0.00  -0.00
  26   1     0.37   0.05  -0.01    -0.23   0.09   0.04    -0.00  -0.01  -0.00
  27   1    -0.09  -0.01   0.10    -0.02  -0.03   0.04     0.04   0.00  -0.02
  28   1    -0.08   0.05  -0.07    -0.12   0.04  -0.04    -0.03   0.01  -0.01
  29   1     0.02  -0.00  -0.00    -0.03  -0.00   0.01    -0.11   0.02   0.06
  30   1    -0.00  -0.00  -0.00    -0.05  -0.00   0.02    -0.09   0.02   0.03
  31   1    -0.02   0.00  -0.01    -0.01   0.00  -0.01    -0.19   0.04  -0.04
  32   1     0.00  -0.00  -0.01     0.00   0.00  -0.01    -0.03   0.02  -0.73
  33   1    -0.02   0.00  -0.01    -0.00  -0.00  -0.00    -0.04   0.01   0.06
  34   1    -0.00  -0.00   0.01    -0.01  -0.00   0.01     0.34  -0.07  -0.13
  35   1    -0.17   0.01   0.10     0.06  -0.01  -0.02     0.01  -0.00  -0.00
  36   1    -0.09   0.08  -0.13    -0.05   0.02  -0.01    -0.02   0.01  -0.01
                     55                     56                     57
                        a                      a                      a 
 Frequencies --  1136.1172              1145.9361              1183.1936
 Red. masses --     4.0264                 4.4294                 2.3291
 Frc consts  --     0.0000                 0.0000                 0.0000
 IR Inten    --    37.7934                65.6099                44.7434
 Raman Activ --     0.0000                 0.0000                 0.0000
 Depolar     --     0.0000                 0.0000                 0.0000
 Atom AN      X      Y      Z        X      Y      Z        X      Y      Z
   1   7    -0.01   0.03  -0.00    -0.01   0.03  -0.01     0.00  -0.00   0.00
   2   6    -0.01  -0.09   0.01     0.01  -0.07   0.02    -0.00   0.00  -0.00
   3   6     0.04   0.07  -0.06     0.01   0.06  -0.05     0.01  -0.00  -0.00
   4   6    -0.03  -0.03   0.09     0.00  -0.05   0.09    -0.02   0.01  -0.00
   5   6    -0.08   0.03  -0.03    -0.06   0.05  -0.08     0.00  -0.02   0.04
   6   6     0.06   0.02  -0.08     0.08   0.02  -0.09    -0.01  -0.00   0.01
   7   6    -0.06  -0.04   0.11    -0.04  -0.04   0.13    -0.13   0.01   0.02
   8   6    -0.02   0.00   0.03     0.02  -0.01   0.06     0.02  -0.02   0.08
   9   6     0.07  -0.03   0.09    -0.13   0.04  -0.10    -0.07   0.02  -0.03
  10   6    -0.16   0.04   0.02     0.16  -0.04  -0.00     0.09  -0.02  -0.06
  11   6    -0.05   0.01  -0.04     0.02  -0.00   0.05     0.12  -0.03   0.11
  12   6    -0.10   0.02  -0.22     0.11  -0.03   0.25     0.04  -0.01   0.14
  13   9     0.07  -0.02   0.12    -0.08   0.02  -0.13    -0.05   0.01  -0.05
  14   6    -0.15   0.03  -0.04     0.15  -0.03   0.03    -0.02   0.00  -0.01
  15   6    -0.03   0.01   0.08     0.03  -0.00  -0.08    -0.10   0.02  -0.03
  16   6     0.08  -0.02  -0.04    -0.05   0.01   0.02     0.06  -0.01  -0.02
  17   6    -0.06   0.05  -0.09    -0.08   0.05  -0.08     0.02   0.01  -0.03
  18   6     0.08   0.02  -0.09     0.10   0.01  -0.07    -0.00   0.02  -0.05
  19  17     0.00   0.00  -0.00    -0.00  -0.00  -0.00    -0.00  -0.00  -0.00
  20   1    -0.00   0.00   0.03     0.00  -0.00   0.02     0.00  -0.00  -0.00
  21   1    -0.00  -0.01   0.02    -0.00  -0.01   0.03     0.00  -0.00  -0.00
  22   1     0.00  -0.02  -0.03     0.01  -0.02  -0.03    -0.00   0.00   0.00
  23   1    -0.04  -0.04   0.00    -0.04  -0.02   0.01     0.00  -0.00  -0.01
  24   1     0.00   0.01  -0.02     0.01   0.02  -0.02     0.00   0.00   0.01
  25   1     0.05  -0.01   0.01     0.01  -0.02   0.01     0.01   0.00   0.00
  26   1    -0.02   0.04   0.02    -0.02   0.03   0.01     0.01   0.00   0.00
  27   1    -0.28   0.00   0.12    -0.28   0.01   0.11    -0.02  -0.01   0.02
  28   1     0.29  -0.11   0.13     0.23  -0.10   0.09     0.08  -0.04   0.05
  29   1     0.16  -0.02  -0.07    -0.03   0.02   0.04     0.10  -0.02  -0.02
  30   1     0.28  -0.03  -0.09    -0.04   0.03  -0.02     0.04  -0.00  -0.04
  31   1     0.33  -0.07   0.18    -0.39   0.08  -0.21    -0.04   0.00  -0.01
  32   1    -0.05   0.01  -0.05     0.05  -0.01  -0.04    -0.00  -0.00   0.32
  33   1     0.09  -0.02   0.09    -0.11   0.02  -0.09    -0.57   0.13  -0.33
  34   1     0.28  -0.06  -0.16    -0.20   0.04   0.11     0.42  -0.09  -0.25
  35   1    -0.20   0.01   0.07    -0.30   0.01   0.13     0.19   0.00  -0.11
  36   1     0.25  -0.09   0.10     0.33  -0.12   0.14    -0.06   0.03  -0.04
                     58                     59                     60
                        a                      a                      a 
 Frequencies --  1188.1127              1191.9583              1207.6133
 Red. masses --     2.8725                 4.1550                 4.5073
 Frc consts  --     0.0000                 0.0000                 0.0000
 IR Inten    --    56.5982                 4.1436                24.8009
 Raman Activ --     0.0000                 0.0000                 0.0000
 Depolar     --     0.0000                 0.0000                 0.0000
 Atom AN      X      Y      Z        X      Y      Z        X      Y      Z
   1   7    -0.01   0.00  -0.01    -0.00  -0.14   0.13    -0.02   0.00  -0.01
   2   6     0.01  -0.01   0.01     0.03   0.30  -0.26     0.03   0.04   0.02
   3   6    -0.01   0.01   0.00    -0.10  -0.20   0.11    -0.12   0.03   0.00
   4   6     0.04  -0.01  -0.00     0.01   0.09  -0.08     0.29  -0.08   0.00
   5   6     0.02   0.04  -0.12    -0.03  -0.01   0.04    -0.04   0.01  -0.00
   6   6    -0.00   0.01  -0.03     0.03  -0.02   0.02     0.04  -0.05   0.12
   7   6     0.27  -0.03  -0.05     0.02   0.00  -0.01     0.33  -0.03  -0.07
   8   6    -0.08   0.04  -0.12    -0.01   0.00  -0.01    -0.07   0.03  -0.08
   9   6     0.05  -0.01  -0.01    -0.00  -0.00   0.00    -0.00  -0.01   0.02
  10   6    -0.06   0.01  -0.01    -0.01   0.00   0.00    -0.16   0.03   0.06
  11   6     0.09  -0.02   0.05     0.00  -0.00   0.00     0.03  -0.01   0.04
  12   6     0.01  -0.00  -0.03     0.00  -0.00   0.00     0.08  -0.02   0.06
  13   9    -0.00   0.00   0.01    -0.00   0.00  -0.00    -0.02   0.01  -0.04
  14   6    -0.07   0.02  -0.01    -0.00   0.00   0.00     0.01  -0.00   0.00
  15   6    -0.04   0.01   0.00     0.00  -0.00  -0.00     0.03  -0.01  -0.07
  16   6     0.02  -0.00  -0.00    -0.00   0.00  -0.00    -0.04   0.01  -0.04
  17   6    -0.05  -0.03   0.08    -0.02  -0.01   0.02     0.05   0.02  -0.08
  18   6     0.02  -0.05   0.12     0.01  -0.03   0.05    -0.02  -0.01   0.03
  19  17     0.00   0.00  -0.00    -0.00  -0.00   0.00     0.00   0.00   0.00
  20   1    -0.00   0.00   0.02    -0.01  -0.01  -0.14     0.01  -0.01  -0.01
  21   1    -0.00   0.00   0.01     0.01   0.06  -0.08    -0.00   0.01   0.02
  22   1     0.01  -0.00  -0.01    -0.02   0.11   0.16     0.01  -0.00  -0.01
  23   1    -0.01   0.01   0.02     0.16   0.04  -0.15    -0.02   0.01   0.02
  24   1    -0.00  -0.01  -0.02    -0.01  -0.06   0.02    -0.00  -0.03  -0.04
  25   1    -0.03  -0.01   0.00     0.48   0.27   0.02    -0.15  -0.02  -0.02
  26   1    -0.01  -0.00  -0.00    -0.41  -0.28  -0.08    -0.14  -0.02   0.01
  27   1     0.18   0.01  -0.13    -0.12  -0.00   0.07    -0.43  -0.01   0.23
  28   1    -0.28   0.13  -0.17     0.00   0.00   0.00     0.09  -0.05   0.07
  29   1    -0.28   0.05   0.09    -0.01   0.00   0.00    -0.25   0.04   0.09
  30   1    -0.16   0.02   0.08    -0.00   0.00   0.00     0.03   0.00  -0.00
  31   1     0.10  -0.01   0.06    -0.00  -0.00  -0.00    -0.04   0.02  -0.02
  32   1    -0.02   0.00   0.19     0.00   0.00   0.00     0.00  -0.00   0.04
  33   1    -0.14   0.03  -0.07    -0.00   0.00  -0.00     0.06  -0.01   0.01
  34   1     0.20  -0.04  -0.12     0.01  -0.00  -0.01     0.11  -0.02  -0.08
  35   1    -0.49  -0.01   0.28     0.00   0.00   0.01    -0.10   0.00   0.05
  36   1     0.21  -0.10   0.15     0.11  -0.04   0.08    -0.43   0.18  -0.23
                     61                     62                     63
                        a                      a                      a 
 Frequencies --  1224.4089              1234.8241              1249.9723
 Red. masses --     5.9908                 3.0071                 4.8472
 Frc consts  --     0.0000                 0.0000                 0.0000
 IR Inten    --    14.7521                42.9814                 7.7236
 Raman Activ --     0.0000                 0.0000                 0.0000
 Depolar     --     0.0000                 0.0000                 0.0000
 Atom AN      X      Y      Z        X      Y      Z        X      Y      Z
   1   7     0.04  -0.03   0.02     0.23  -0.13   0.10     0.03  -0.02   0.02
   2   6    -0.04  -0.00  -0.02    -0.20   0.05  -0.05    -0.02   0.04   0.00
   3   6     0.07  -0.01  -0.01     0.07   0.10  -0.05    -0.05   0.06   0.00
   4   6    -0.15   0.03   0.01    -0.09  -0.02   0.01     0.23  -0.07  -0.02
   5   6    -0.06   0.03  -0.03    -0.03   0.01  -0.01     0.08  -0.01  -0.02
   6   6    -0.01   0.03  -0.08     0.04  -0.00  -0.01    -0.05  -0.01   0.05
   7   6     0.21  -0.04  -0.01     0.02   0.01  -0.03     0.00  -0.03   0.07
   8   6    -0.08   0.00   0.04     0.02  -0.00  -0.02    -0.12   0.04  -0.05
   9   6    -0.04  -0.02   0.13     0.01   0.01  -0.04     0.07  -0.04   0.15
  10   6    -0.30   0.07   0.20     0.02  -0.01  -0.03    -0.06   0.02  -0.13
  11   6    -0.05   0.01   0.01     0.02  -0.01   0.01    -0.12   0.03  -0.07
  12   6     0.14  -0.03   0.23    -0.01   0.00  -0.04    -0.06   0.01   0.28
  13   9    -0.06   0.01  -0.10     0.01  -0.00   0.01    -0.02   0.00  -0.09
  14   6     0.11  -0.03   0.04    -0.02   0.01  -0.01     0.09  -0.02   0.18
  15   6     0.08  -0.01  -0.20    -0.01   0.00   0.03     0.09  -0.02  -0.07
  16   6    -0.10   0.02  -0.11     0.00  -0.00   0.02     0.08  -0.02  -0.07
  17   6     0.06  -0.03   0.05     0.03  -0.01   0.02    -0.05   0.04  -0.07
  18   6    -0.07  -0.01   0.07    -0.01  -0.00   0.01     0.05  -0.00  -0.01
  19  17     0.00   0.00  -0.00     0.00  -0.00   0.00     0.00   0.00   0.00
  20   1    -0.02   0.02   0.01    -0.09   0.07  -0.03    -0.01   0.01  -0.01
  21   1     0.01  -0.01  -0.04     0.03  -0.04  -0.23     0.00  -0.00  -0.03
  22   1    -0.02   0.01   0.03    -0.12   0.07   0.17    -0.01   0.01   0.02
  23   1     0.01  -0.06  -0.07     0.01  -0.37  -0.39    -0.01  -0.06  -0.07
  24   1     0.01   0.05   0.08     0.05   0.33   0.48    -0.00   0.02   0.05
  25   1     0.06   0.00   0.01    -0.15  -0.07  -0.01    -0.16  -0.04  -0.02
  26   1     0.05   0.02   0.00     0.02   0.05   0.01    -0.13  -0.03  -0.01
  27   1     0.17   0.01  -0.11    -0.01   0.00  -0.00    -0.07  -0.01   0.05
  28   1    -0.11   0.07  -0.08     0.12  -0.06   0.06    -0.21   0.09  -0.09
  29   1     0.20  -0.01  -0.09    -0.13   0.01   0.06     0.27  -0.03  -0.15
  30   1     0.47  -0.06  -0.19    -0.10   0.02   0.04     0.03  -0.02   0.03
  31   1    -0.24   0.04  -0.12     0.04  -0.01   0.02     0.31  -0.07   0.18
  32   1     0.04  -0.01  -0.08    -0.01   0.00   0.04     0.03  -0.00  -0.31
  33   1     0.13  -0.03   0.00    -0.00  -0.00   0.01    -0.29   0.07  -0.21
  34   1     0.17  -0.03  -0.15    -0.01   0.00   0.01    -0.21   0.04   0.12
  35   1    -0.03  -0.01   0.04    -0.01  -0.01   0.02    -0.08   0.01   0.01
  36   1    -0.02  -0.00   0.02    -0.02   0.01  -0.01     0.02  -0.00  -0.01
                     64                     65                     66
                        a                      a                      a 
 Frequencies --  1254.2087              1277.7832              1298.2688
 Red. masses --     6.0323                 5.0619                 9.2024
 Frc consts  --     0.0000                 0.0000                 0.0000
 IR Inten    --    16.0375                16.9038                14.4120
 Raman Activ --     0.0000                 0.0000                 0.0000
 Depolar     --     0.0000                 0.0000                 0.0000
 Atom AN      X      Y      Z        X      Y      Z        X      Y      Z
   1   7     0.03  -0.02   0.02    -0.02  -0.02   0.02     0.00  -0.00  -0.02
   2   6    -0.03   0.06   0.01     0.03   0.07   0.02     0.02  -0.04  -0.02
   3   6    -0.08   0.08   0.01    -0.09   0.02  -0.04    -0.04  -0.06  -0.03
   4   6     0.33  -0.09  -0.04     0.19  -0.10   0.14    -0.17   0.02   0.11
   5   6     0.14  -0.02  -0.02    -0.01  -0.05   0.13    -0.10   0.06  -0.10
   6   6    -0.09  -0.00   0.06    -0.18   0.04  -0.02     0.09   0.00  -0.06
   7   6    -0.11  -0.04   0.14    -0.22   0.13  -0.22     0.37  -0.09   0.02
   8   6    -0.06   0.00   0.08     0.13  -0.06   0.18    -0.31   0.06   0.04
   9   6    -0.12   0.02   0.00    -0.08   0.04  -0.10    -0.28   0.05   0.07
  10   6     0.22  -0.05   0.11     0.07  -0.01  -0.01     0.36  -0.07  -0.02
  11   6     0.04  -0.01  -0.00    -0.02   0.00  -0.02    -0.01   0.00  -0.04
  12   6    -0.02   0.01  -0.27    -0.02   0.00  -0.01    -0.08   0.02  -0.22
  13   9     0.04  -0.01   0.09     0.01  -0.00   0.01     0.04  -0.01   0.07
  14   6    -0.06   0.01  -0.12     0.00  -0.00   0.02    -0.07   0.02   0.03
  15   6    -0.10   0.02   0.10    -0.01   0.00   0.01    -0.08   0.01   0.16
  16   6     0.01  -0.00   0.04     0.02  -0.00  -0.01     0.19  -0.04  -0.05
  17   6    -0.08   0.07  -0.11     0.01   0.03  -0.08     0.17  -0.02  -0.05
  18   6     0.09   0.00  -0.05     0.18  -0.05   0.03    -0.09  -0.02   0.09
  19  17    -0.00  -0.00   0.00    -0.00  -0.00   0.00     0.00   0.00  -0.00
  20   1    -0.01   0.01  -0.03     0.01  -0.01  -0.02    -0.01   0.00   0.03
  21   1     0.00  -0.00  -0.04    -0.00   0.01  -0.01     0.01   0.01   0.02
  22   1    -0.02   0.01   0.02     0.02   0.00   0.01     0.00   0.01   0.01
  23   1    -0.01  -0.07  -0.08    -0.02  -0.06  -0.06     0.00   0.02   0.03
  24   1    -0.00   0.02   0.05    -0.01  -0.05  -0.05     0.02   0.06   0.03
  25   1    -0.22  -0.05  -0.02     0.04  -0.00   0.01     0.20   0.07   0.02
  26   1    -0.18  -0.04  -0.01    -0.16  -0.02   0.00     0.13   0.06   0.03
  27   1    -0.08  -0.01   0.06     0.40  -0.01  -0.17    -0.02   0.02  -0.03
  28   1    -0.34   0.14  -0.15     0.21  -0.10   0.14     0.03  -0.00  -0.02
  29   1     0.26  -0.03  -0.10     0.01  -0.02   0.06     0.16  -0.00  -0.10
  30   1     0.11  -0.02  -0.07     0.20  -0.02  -0.13     0.10  -0.01  -0.06
  31   1    -0.27   0.05  -0.16     0.03  -0.01   0.01    -0.00   0.00  -0.02
  32   1    -0.02   0.00   0.17     0.00  -0.00  -0.02    -0.03   0.01  -0.01
  33   1     0.14  -0.03   0.13    -0.04   0.01  -0.02    -0.17   0.04  -0.04
  34   1     0.10  -0.02  -0.04    -0.06   0.01   0.03    -0.16   0.03   0.12
  35   1    -0.03   0.02  -0.03    -0.37   0.01   0.18    -0.09  -0.01   0.07
  36   1     0.07  -0.02   0.00    -0.23   0.11  -0.15    -0.20   0.07  -0.07
                     67                     68                     69
                        a                      a                      a 
 Frequencies --  1317.2394              1320.1912              1336.0220
 Red. masses --     4.4943                 4.1637                 5.8895
[...]
   3   6     0.02  -0.01   0.00     0.00  -0.01  -0.01    -0.02  -0.02   0.28
   4   6    -0.13   0.04  -0.03    -0.00  -0.00  -0.00    -0.00  -0.00   0.01
   5   6     0.18  -0.02  -0.04     0.00   0.00  -0.00    -0.00   0.00  -0.00
   6   6    -0.18   0.07  -0.08    -0.00   0.00  -0.00     0.00  -0.00   0.00
   7   6     0.04  -0.04   0.09     0.00  -0.00   0.00     0.00   0.00  -0.00
   8   6     0.39   0.00  -0.40    -0.00   0.00   0.00    -0.00   0.00  -0.00
   9   6    -0.39   0.01   0.40     0.00  -0.00  -0.00     0.00   0.00   0.00
  10   6    -0.01   0.01  -0.11    -0.00   0.00  -0.00    -0.00   0.00  -0.00
  11   6     0.13  -0.03   0.08     0.00  -0.00   0.00     0.00   0.00   0.00
  12   6    -0.11   0.02  -0.00    -0.00   0.00  -0.00     0.00  -0.00   0.00
  13   9     0.00  -0.00   0.00     0.00  -0.00   0.00     0.00  -0.00  -0.00
  14   6     0.06  -0.01   0.06     0.00  -0.00   0.00    -0.00   0.00   0.00
  15   6    -0.17   0.04  -0.08    -0.00   0.00  -0.00    -0.00   0.00   0.00
  16   6     0.15  -0.03  -0.00     0.00  -0.00  -0.00     0.00   0.00  -0.00
  17   6    -0.21   0.03   0.02    -0.00   0.00   0.00    -0.00  -0.00   0.00
  18   6     0.22  -0.08   0.08     0.00  -0.00   0.00     0.00  -0.00  -0.00
  19  17    -0.00  -0.00  -0.00    -0.01  -0.01  -0.00    -0.00  -0.00  -0.00
  20   1    -0.00  -0.00   0.00    -0.51  -0.80  -0.12    -0.01  -0.01  -0.00
  21   1     0.00   0.00   0.00    -0.03   0.03   0.00    -0.00  -0.00   0.00
  22   1     0.00   0.00   0.00     0.02  -0.00   0.02    -0.00   0.00  -0.00
  23   1    -0.00  -0.00  -0.00    -0.00   0.00  -0.00     0.04  -0.12   0.13
  24   1    -0.00  -0.01  -0.00     0.01  -0.00   0.00     0.05  -0.01  -0.01
  25   1     0.00   0.00  -0.00    -0.01   0.01   0.03     0.19  -0.31  -0.64
  26   1     0.00   0.00   0.00    -0.00   0.01  -0.01    -0.13   0.40  -0.39
  27   1    -0.02  -0.01   0.03     0.00  -0.00   0.00     0.01  -0.00   0.01
  28   1     0.01  -0.00   0.01     0.00   0.00  -0.00     0.00   0.00  -0.00
  29   1    -0.12   0.02  -0.01     0.00  -0.00   0.00     0.00  -0.00   0.00
  30   1     0.12  -0.04   0.01    -0.00   0.00  -0.00     0.00   0.00  -0.00
  31   1    -0.01   0.01  -0.00    -0.00   0.00   0.00    -0.00  -0.00   0.00
  32   1     0.02  -0.00  -0.01     0.00  -0.00  -0.00     0.00   0.00   0.00
  33   1     0.03  -0.01   0.02    -0.00   0.00   0.00     0.00   0.00  -0.00
  34   1    -0.02   0.00   0.03     0.00   0.00   0.00     0.00   0.00   0.00
  35   1     0.03   0.01  -0.04     0.00  -0.00   0.00    -0.00   0.00  -0.00
  36   1    -0.04   0.02  -0.03     0.00   0.00  -0.00    -0.01  -0.00   0.01
                     88                     89                     90
                        a                      a                      a 
 Frequencies --  2958.2576              2974.4212              2985.2127
 Red. masses --     1.9190                 1.5484                 1.5663
 Frc consts  --     0.0000                 0.0000                 0.0000
 IR Inten    --     9.0064                29.8230                 3.5682
 Raman Activ --     0.0000                 0.0000                 0.0000
 Depolar     --     0.0000                 0.0000                 0.0000
 Atom AN      X      Y      Z        X      Y      Z        X      Y      Z
   1   7    -0.00  -0.00   0.00    -0.00  -0.01   0.00    -0.00   0.00  -0.00
   2   6    -0.23   0.13  -0.09     0.08  -0.02  -0.01    -0.08  -0.12   0.16
   3   6     0.02  -0.05  -0.04     0.08  -0.19   0.01     0.01  -0.04   0.04
   4   6     0.00  -0.00  -0.00     0.01  -0.00   0.00     0.00  -0.00   0.00
   5   6    -0.00   0.00  -0.00    -0.00   0.00  -0.00    -0.00   0.00  -0.00
   6   6    -0.00   0.00  -0.00     0.00  -0.00   0.00     0.00  -0.00  -0.00
   7   6     0.00  -0.00   0.00    -0.00   0.00  -0.00     0.00   0.00  -0.00
   8   6    -0.00  -0.00   0.00     0.00  -0.00  -0.00    -0.00   0.00  -0.00
   9   6     0.00  -0.00  -0.00    -0.00   0.00   0.00     0.00  -0.00   0.00
  10   6    -0.00   0.00   0.00     0.00  -0.00   0.00    -0.00   0.00  -0.00
  11   6    -0.00   0.00   0.00    -0.00   0.00  -0.00     0.00  -0.00  -0.00
  12   6     0.00   0.00   0.00    -0.00   0.00  -0.00     0.00  -0.00  -0.00
  13   9    -0.00   0.00   0.00     0.00   0.00   0.00     0.00  -0.00  -0.00
  14   6    -0.00   0.00  -0.00     0.00  -0.00   0.00    -0.00  -0.00   0.00
  15   6    -0.00  -0.00   0.00     0.00  -0.00  -0.00     0.00   0.00  -0.00
  16   6     0.00  -0.00   0.00    -0.00   0.00  -0.00    -0.00   0.00  -0.00
  17   6     0.00   0.00  -0.00     0.00   0.00  -0.00     0.00  -0.00   0.00
  18   6    -0.00  -0.00   0.00    -0.00   0.00  -0.00     0.00   0.00  -0.00
  19  17     0.00   0.00   0.00     0.00   0.00   0.00     0.00   0.00  -0.00
  20   1     0.01   0.01   0.00     0.01   0.02   0.00     0.01   0.01   0.00
  21   1    -0.02   0.00   0.00     0.01  -0.00   0.00    -0.01   0.00   0.00
  22   1    -0.00   0.01  -0.01    -0.00   0.00  -0.01     0.01  -0.02   0.02
  23   1     0.08  -0.34   0.36     0.01  -0.01   0.01    -0.19   0.54  -0.57
  24   1     0.74  -0.15  -0.06    -0.31   0.07   0.02     0.49  -0.12  -0.01
  25   1    -0.07   0.10   0.24    -0.13   0.20   0.50    -0.00  -0.00   0.02
  26   1    -0.02   0.08  -0.09    -0.15   0.48  -0.53    -0.05   0.15  -0.16
  27   1     0.00  -0.00   0.00     0.01  -0.00   0.01     0.00  -0.00   0.01
  28   1     0.00   0.00  -0.00     0.00   0.00  -0.00     0.00  -0.00   0.00
  29   1     0.00  -0.00   0.00    -0.00   0.00  -0.00     0.00  -0.00   0.00
  30   1    -0.00  -0.00  -0.00     0.00  -0.00   0.00    -0.00   0.00  -0.00
  31   1     0.00   0.00  -0.00    -0.00   0.00   0.00    -0.00  -0.00   0.00
  32   1     0.00  -0.00   0.00    -0.00  -0.00  -0.00    -0.00   0.00  -0.00
  33   1     0.00  -0.00  -0.00    -0.00  -0.00   0.00    -0.00   0.00   0.00
  34   1    -0.00  -0.00  -0.00     0.00  -0.00   0.00     0.00   0.00   0.00
  35   1     0.00  -0.00   0.00     0.00  -0.00   0.00    -0.00   0.00  -0.00
  36   1     0.00   0.00  -0.00     0.00   0.00  -0.00    -0.00  -0.00   0.00
                     91                     92                     93
                        a                      a                      a 
 Frequencies --  3107.7164              3109.0696              3112.2957
 Red. masses --     1.7891                 1.7978                 1.7818
 Frc consts  --     0.0000                 0.0000                 0.0000
 IR Inten    --    28.8322                30.6759                 9.1479
 Raman Activ --     0.0000                 0.0000                 0.0000
 Depolar     --     0.0000                 0.0000                 0.0000
 Atom AN      X      Y      Z        X      Y      Z        X      Y      Z
   1   7    -0.00  -0.00  -0.00    -0.00  -0.00   0.00     0.00   0.00   0.00
   2   6    -0.00   0.00  -0.00     0.00   0.00  -0.00    -0.00   0.00  -0.00
   3   6     0.00  -0.00   0.00    -0.00   0.00  -0.00     0.00  -0.00  -0.00
   4   6     0.00  -0.00   0.00    -0.01   0.00  -0.00     0.01  -0.00  -0.00
   5   6     0.00  -0.00   0.00    -0.11   0.10  -0.20     0.02  -0.03   0.05
   6   6    -0.00  -0.00   0.00    -0.03  -0.01   0.05     0.01   0.00  -0.01
   7   6     0.00   0.00  -0.00    -0.00  -0.00   0.00     0.01  -0.00   0.00
   8   6    -0.00   0.00  -0.00    -0.00   0.00  -0.00    -0.00   0.00  -0.01
   9   6    -0.00   0.00  -0.01    -0.00   0.00  -0.01    -0.00   0.00   0.00
  10   6     0.00  -0.00   0.00     0.00   0.00  -0.00     0.00  -0.00  -0.00
  11   6    -0.00   0.00   0.00    -0.00   0.00   0.00    -0.00   0.00   0.00
  12   6    -0.00   0.00   0.00     0.00  -0.00   0.00     0.00  -0.00  -0.00
  13   9     0.00  -0.00  -0.00    -0.00   0.00  -0.00     0.00  -0.00   0.00
  14   6    -0.03   0.01  -0.00    -0.00   0.00  -0.00     0.00  -0.00   0.00
  15   6     0.12  -0.02  -0.21    -0.00   0.00   0.00    -0.00   0.00   0.00
  16   6     0.05  -0.01   0.09     0.00  -0.00   0.00    -0.00   0.00  -0.00
  17   6     0.00  -0.00   0.00     0.02  -0.01   0.03     0.07  -0.07   0.13
  18   6     0.00   0.00  -0.00     0.03   0.01  -0.04     0.11   0.04  -0.16
  19  17    -0.00  -0.00   0.00    -0.00  -0.00   0.00     0.00   0.00   0.00
  20   1     0.00   0.00   0.00     0.00   0.00   0.00    -0.00  -0.00  -0.00
  21   1    -0.00  -0.00  -0.00     0.00   0.00  -0.00    -0.00   0.00   0.00
  22   1     0.00  -0.00   0.00    -0.00   0.00  -0.00    -0.00  -0.00   0.00
  23   1     0.00  -0.00   0.00     0.00  -0.00   0.00    -0.00  -0.00   0.00
  24   1     0.00  -0.00  -0.00    -0.00   0.00   0.00     0.00  -0.00   0.00
  25   1     0.00  -0.00  -0.00    -0.00   0.00   0.00    -0.00   0.00   0.01
  26   1    -0.00   0.00  -0.00     0.01  -0.01   0.01    -0.00   0.00  -0.00
  27   1    -0.00   0.00  -0.01     0.39  -0.37   0.72    -0.10   0.09  -0.18
  28   1     0.00   0.00  -0.00     0.13   0.05  -0.20    -0.03  -0.01   0.04
  29   1     0.00  -0.00   0.01     0.01  -0.00   0.01     0.02  -0.01   0.04
  30   1     0.01  -0.01   0.03     0.02  -0.01   0.04     0.00  -0.00  -0.00
  31   1     0.00  -0.00  -0.00     0.00  -0.00  -0.00     0.00  -0.00  -0.00
  32   1     0.13  -0.03   0.00     0.00  -0.00   0.00    -0.00   0.00  -0.00
  33   1    -0.43   0.08   0.76     0.00   0.00  -0.00     0.00  -0.00  -0.01
  34   1    -0.19   0.04  -0.33    -0.01   0.00  -0.02     0.00  -0.00   0.00
  35   1    -0.00   0.00  -0.00    -0.06   0.05  -0.10    -0.27   0.26  -0.49
  36   1    -0.00  -0.00   0.00    -0.11  -0.04   0.15    -0.38  -0.15   0.57
                     94                     95                     96
                        a                      a                      a 
 Frequencies --  3122.3384              3123.2792              3127.4113
 Red. masses --     1.8616                 1.8800                 1.8010
 Frc consts  --     0.0000                 0.0000                 0.0000
 IR Inten    --    25.6305                26.3147                20.6371
 Raman Activ --     0.0000                 0.0000                 0.0000
 Depolar     --     0.0000                 0.0000                 0.0000
 Atom AN      X      Y      Z        X      Y      Z        X      Y      Z
   1   7     0.00   0.00   0.00    -0.00   0.00  -0.00    -0.00   0.00  -0.00
   2   6     0.00  -0.00   0.00     0.00  -0.00   0.00    -0.00  -0.00   0.00
   3   6     0.00  -0.00   0.00     0.00  -0.00   0.00    -0.00  -0.00   0.00
   4   6     0.00  -0.00  -0.00    -0.01   0.00  -0.00     0.00   0.00  -0.00
   5   6     0.01  -0.01   0.01    -0.00   0.00  -0.01     0.02  -0.02   0.03
   6   6    -0.01  -0.00   0.01    -0.00  -0.00   0.00    -0.06  -0.02   0.08
   7   6    -0.00  -0.00   0.00     0.01  -0.00  -0.00    -0.00  -0.00   0.00
   8   6     0.00  -0.00   0.01    -0.02   0.01  -0.04     0.05  -0.04   0.13
   9   6    -0.02   0.01  -0.06     0.00  -0.00   0.01    -0.06   0.04  -0.17
  10   6     0.01  -0.00  -0.00    -0.00   0.00   0.00    -0.00   0.00  -0.01
  11   6    -0.00   0.00  -0.00    -0.00   0.00   0.00     0.01  -0.00  -0.01
  12   6     0.00  -0.00   0.00     0.00  -0.00   0.00    -0.00  -0.00  -0.00
  13   9    -0.00   0.00  -0.00    -0.00  -0.00  -0.00     0.00  -0.00   0.00
  14   6     0.03  -0.01  -0.00    -0.00   0.00  -0.00    -0.01   0.00   0.00
  15   6    -0.05   0.01   0.10     0.00  -0.00  -0.00     0.01  -0.00  -0.02
  16   6     0.12  -0.03   0.21    -0.00   0.00  -0.00    -0.03   0.01  -0.05
  17   6     0.00  -0.00   0.01     0.09  -0.09   0.17     0.01  -0.01   0.02
  18   6    -0.00  -0.00   0.01    -0.10  -0.04   0.15    -0.01  -0.00   0.01
  19  17     0.00   0.00  -0.00    -0.00  -0.00  -0.00    -0.00  -0.00  -0.00
  20   1    -0.00  -0.00   0.00    -0.00  -0.00   0.00    -0.00  -0.00  -0.00
  21   1    -0.00  -0.00   0.00     0.00  -0.00  -0.00     0.00  -0.00   0.00
  22   1    -0.00   0.00  -0.00     0.00  -0.00   0.00     0.00  -0.00   0.00
  23   1    -0.00   0.00  -0.00     0.00   0.00  -0.00     0.00   0.00  -0.00
  24   1    -0.00   0.00  -0.00    -0.00   0.00  -0.00     0.00  -0.00  -0.00
  25   1     0.00  -0.00  -0.00     0.00  -0.00  -0.00     0.00  -0.00  -0.00
  26   1    -0.00   0.00  -0.00    -0.00   0.00  -0.00    -0.00   0.00  -0.00
  27   1    -0.02   0.02  -0.03     0.01  -0.01   0.02    -0.05   0.05  -0.10
  28   1     0.03   0.01  -0.05     0.01   0.00  -0.01     0.20   0.08  -0.29
  29   1    -0.02   0.01  -0.05     0.06  -0.04   0.14    -0.20   0.14  -0.47
  30   1     0.09  -0.05   0.21    -0.01   0.01  -0.03     0.26  -0.15   0.59
  31   1     0.00   0.00   0.00     0.01  -0.00  -0.01    -0.02   0.01   0.04
  32   1    -0.11   0.02   0.00     0.00  -0.00   0.00     0.02  -0.00  -0.00
  33   1     0.18  -0.03  -0.32    -0.00   0.00   0.00    -0.03   0.01   0.06
  34   1    -0.42   0.10  -0.73     0.01  -0.00   0.01     0.10  -0.02   0.18
  35   1    -0.01   0.01  -0.02    -0.31   0.30  -0.57    -0.04   0.04  -0.08
  36   1     0.01   0.00  -0.02     0.34   0.14  -0.50     0.03   0.01  -0.05
                     97                     98                     99
                        a                      a                      a 
 Frequencies --  3133.3726              3141.6932              3142.1710
 Red. masses --     1.8371                 1.8335                 1.8471
 Frc consts  --     0.0000                 0.0000                 0.0000
 IR Inten    --     7.5519                52.3809                20.1003
 Raman Activ --     0.0000                 0.0000                 0.0000
 Depolar     --     0.0000                 0.0000                 0.0000
 Atom AN      X      Y      Z        X      Y      Z        X      Y      Z
   1   7    -0.00  -0.00   0.00    -0.00   0.00  -0.00    -0.00  -0.00   0.00
   2   6    -0.00  -0.00   0.00    -0.00   0.00   0.00    -0.00  -0.00   0.00
   3   6    -0.00  -0.00   0.00    -0.00  -0.00   0.00     0.00  -0.00   0.00
   4   6     0.00  -0.00  -0.00     0.00   0.00  -0.00     0.00   0.00  -0.00
   5   6     0.03  -0.03   0.05     0.01  -0.01   0.01     0.00  -0.00   0.01
   6   6    -0.12  -0.05   0.18    -0.04  -0.02   0.07    -0.03  -0.01   0.04
   7   6    -0.01   0.00  -0.00    -0.00  -0.00   0.00    -0.00  -0.00   0.00
   8   6    -0.05   0.04  -0.13     0.05  -0.04   0.12     0.04  -0.03   0.09
   9   6    -0.00  -0.00   0.01     0.06  -0.03   0.13     0.04  -0.02   0.09
  10   6    -0.00   0.00   0.00     0.00  -0.00   0.01     0.00  -0.00   0.00
  11   6    -0.01   0.00   0.02     0.01  -0.00  -0.03     0.01  -0.00  -0.02
  12   6     0.00  -0.00   0.00     0.00  -0.00   0.00    -0.01   0.00  -0.01
  13   9    -0.00   0.00  -0.00    -0.00   0.00  -0.00     0.00  -0.00   0.00
  14   6    -0.00   0.00  -0.00     0.16  -0.03   0.00    -0.21   0.05  -0.00
  15   6    -0.00   0.00   0.00     0.01  -0.00  -0.02    -0.02   0.00   0.04
  16   6    -0.00   0.00  -0.00     0.00  -0.00   0.01     0.02  -0.00   0.03
  17   6    -0.01   0.01  -0.02     0.01  -0.01   0.01     0.01  -0.01   0.01
  18   6     0.01   0.00  -0.01    -0.00  -0.00   0.00    -0.00  -0.00   0.00
  19  17     0.00   0.00  -0.00     0.00   0.00  -0.00     0.00   0.00  -0.00
  20   1     0.00   0.00   0.00    -0.00  -0.00   0.00    -0.00  -0.00   0.00
  21   1    -0.00   0.00   0.00     0.00  -0.00   0.00     0.00  -0.00   0.00
  22   1    -0.00   0.00  -0.00    -0.00  -0.00   0.00    -0.00   0.00  -0.00
  23   1    -0.00   0.00  -0.00     0.00   0.00  -0.00    -0.00   0.00  -0.00
  24   1     0.00  -0.00  -0.00     0.00  -0.00  -0.00    -0.00  -0.00  -0.00
  25   1    -0.00  -0.00  -0.00     0.00  -0.00  -0.00     0.00  -0.00  -0.00
  26   1    -0.00   0.00  -0.00    -0.00   0.00  -0.00    -0.00   0.00  -0.00
  27   1    -0.09   0.09  -0.16    -0.02   0.02  -0.04    -0.01   0.01  -0.03
  28   1     0.42   0.18  -0.63     0.16   0.07  -0.24     0.11   0.04  -0.16
  29   1     0.19  -0.14   0.45    -0.18   0.13  -0.41    -0.13   0.09  -0.31
  30   1    -0.02   0.01  -0.04    -0.21   0.12  -0.48    -0.15   0.09  -0.34
  31   1     0.03  -0.01  -0.06    -0.05   0.01   0.10    -0.03   0.01   0.06
  32   1     0.01  -0.00   0.00    -0.54   0.12  -0.00     0.75  -0.16   0.00
  33   1     0.00  -0.00  -0.00    -0.04   0.01   0.07     0.07  -0.01  -0.12
  34   1     0.01  -0.00   0.01    -0.02   0.01  -0.04    -0.05   0.01  -0.09
  35   1     0.04  -0.04   0.08    -0.03   0.03  -0.05    -0.02   0.02  -0.04
  36   1    -0.02  -0.01   0.03     0.01   0.00  -0.02     0.01   0.00  -0.01
                    100                    101                    102
                        a                      a                      a 
 Frequencies --  3162.4208              3207.0090              3237.0512
 Red. masses --     1.8164                 1.8493                 1.6771
 Frc consts  --     0.0000                 0.0000                 0.0000
 IR Inten    --    21.3852                41.6042                25.1666
 Raman Activ --     0.0000                 0.0000                 0.0000
 Depolar     --     0.0000                 0.0000                 0.0000
 Atom AN      X      Y      Z        X      Y      Z        X      Y      Z
   1   7    -0.00   0.00  -0.00    -0.10   0.16  -0.17    -0.22   0.04   0.04
   2   6     0.00  -0.00   0.00    -0.00   0.01  -0.01    -0.01   0.00   0.01
   3   6    -0.00  -0.00   0.00     0.00  -0.00   0.00    -0.00  -0.00  -0.00
   4   6    -0.00   0.00  -0.00     0.00   0.00  -0.00     0.00   0.00   0.00
   5   6    -0.00  -0.00   0.00    -0.00   0.00  -0.00     0.00  -0.00   0.00
   6   6    -0.00  -0.00   0.00    -0.00  -0.00   0.00    -0.00   0.00  -0.00
   7   6     0.00  -0.00   0.00    -0.00   0.00   0.00    -0.00   0.00   0.00
   8   6     0.01  -0.01   0.03    -0.00   0.00  -0.00     0.00   0.00  -0.00
   9   6     0.01  -0.00   0.01    -0.00  -0.00   0.00    -0.00   0.00  -0.00
  10   6    -0.01   0.00   0.00     0.00  -0.00   0.00     0.00  -0.00   0.00
  11   6    -0.12   0.03   0.24     0.00   0.00  -0.00    -0.00   0.00  -0.00
  12   6     0.00  -0.00   0.01    -0.00   0.00  -0.00     0.00  -0.00  -0.00
  13   9    -0.00   0.00  -0.00     0.00  -0.00   0.00     0.00  -0.00  -0.00
  14   6     0.00  -0.00  -0.00    -0.00   0.00  -0.00    -0.00   0.00  -0.00
  15   6    -0.00   0.00   0.00    -0.00   0.00   0.00     0.00  -0.00   0.00
  16   6     0.00  -0.00  -0.00     0.00  -0.00   0.00    -0.00   0.00   0.00
  17   6     0.00  -0.00   0.00    -0.00   0.00  -0.00     0.00   0.00  -0.00
  18   6    -0.00  -0.00   0.00     0.00   0.00  -0.00     0.00   0.00  -0.00
  19  17     0.00  -0.00  -0.00    -0.00  -0.00  -0.00     0.00   0.00   0.00
  20   1    -0.00  -0.00  -0.00     0.01   0.04  -0.01    -0.05  -0.04  -0.00
  21   1     0.00  -0.00  -0.00     0.13  -0.02  -0.03     0.93  -0.23  -0.06
  22   1     0.00  -0.00   0.00     0.23  -0.62   0.69    -0.06   0.10  -0.11
  23   1    -0.00   0.00  -0.00     0.01  -0.02   0.02    -0.00   0.00  -0.01
  24   1    -0.00   0.00  -0.00    -0.00  -0.00   0.00     0.02  -0.01  -0.00
  25   1     0.00  -0.00  -0.00    -0.00   0.00   0.00     0.00  -0.00  -0.00
  26   1    -0.00   0.00  -0.00    -0.00   0.00  -0.00    -0.00   0.00   0.00
  27   1    -0.00   0.00  -0.00     0.00  -0.00   0.00    -0.00   0.00  -0.00
  28   1     0.00   0.00  -0.01     0.00   0.00  -0.00    -0.00  -0.00   0.00
  29   1    -0.06   0.04  -0.13     0.00  -0.00   0.00     0.00  -0.00   0.00
  30   1    -0.02   0.01  -0.05    -0.00   0.00  -0.00     0.00  -0.00   0.00
  31   1     0.45  -0.10  -0.83    -0.00   0.00   0.00     0.00  -0.00  -0.00
  32   1    -0.01   0.00   0.00     0.00  -0.00  -0.00     0.00   0.00  -0.00
  33   1     0.00  -0.00  -0.00     0.00  -0.00  -0.00    -0.00   0.00  -0.00
  34   1    -0.00   0.00  -0.00    -0.00   0.00  -0.00     0.00   0.00   0.00
  35   1    -0.00   0.00  -0.01     0.00  -0.00   0.00     0.00  -0.00   0.00
  36   1     0.00   0.00  -0.00    -0.00  -0.00   0.00    -0.00  -0.00   0.00
