15
 energy: -20.600081791833 gnorm: 0.000468605977 xtb: 6.5.1 (fef0646)
N            3.33375703001497       -0.93191214315633       -0.88578911113518
C            2.51748995300784       -0.03744335358184       -0.03028159012716
C            3.00396596726197       -0.06050697402708        1.38048429034289
C            3.20020125580409        0.97674892649584        2.23611028118574
C            3.63429719806656        0.55734022787486        3.51610811989727
C            3.76890586698338       -0.78855699969604        3.61461127102742
S            3.35233380585520       -1.58269308731781        2.15969894789757
H            2.96112139373448       -0.95924320727279       -1.84176453165293
H            3.32113585790958       -1.88107533693204       -0.49150082932107
H            4.30949498083256       -0.61341296983886       -0.91278949797464
H            1.47920707374214       -0.37537443559858       -0.06238137826604
H            2.56163483670632        0.98494013540047       -0.40600135613158
H            3.04305750544086        2.00818859441640        1.98076159689393
H            3.84467703830767        1.22994693008198        4.32819608019164
H            4.08945023633232       -1.37200630684810        4.45547770717210
