 Entering Gaussian System
 *********************************************
 Gaussian 98:
 frequency output generated by the xtb code
 *********************************************
                         Standard orientation:
 --------------------------------------------------------------------
  Center     Atomic     Atomic              Coordinates (Angstroms)
  Number     Number      Type              X           Y           Z
 --------------------------------------------------------------------
    1          7             0       -2.629888   -1.949005    0.569873
    2          6             0       -1.782213   -2.005062   -0.656000
    3          6             0       -0.630038   -1.052358   -0.585156
    4          6             0       -0.829411    0.314033   -0.858858
    5          6             0        0.195204    1.207288   -0.767853
    6          6             0        0.612952   -1.483394   -0.209010
    7          6             0        1.700957   -0.586919   -0.106125
    8          6             0        1.489203    0.782942   -0.391037
    9          6             0        2.577008    1.680026   -0.285402
   10          6             0        3.810607    1.234330    0.084035
   11          6             0        4.020601   -0.122730    0.365986
   12          6             0        2.993976   -1.014055    0.274511
   13         17             0       -3.811510    1.353642    0.865561
   14          1             0       -3.425342   -2.601031    0.524777
   15          1             0       -3.005553   -0.994593    0.702212
   16          1             0       -2.075097   -2.176207    1.405621
   17          1             0       -2.387575   -1.777450   -1.540799
   18          1             0       -1.409509   -3.024204   -0.807970
   19          1             0       -1.814751    0.648068   -1.136755
   20          1             0        0.029348    2.249928   -0.979804
   21          1             0        0.769767   -2.523514    0.016472
   22          1             0        2.416063    2.722727   -0.501223
   23          1             0        4.632821    1.927326    0.161440
   24          1             0        5.002370   -0.460025    0.657093
   25          1             0        3.155901   -2.056506    0.491393
 --------------------------------------------------------------------
     1 basis functions        1 primitive gaussians
     1 alpha electrons        1 beta electrons

 Harmonic frequencies (cm**-1), IR intensities (km*mol⁻¹),
 Raman scattering activities (A**4/amu), Raman depolarization ratios,
 reduced masses (AMU), force constants (mDyne/A) and normal coordinates:
                      1                      2                      3
                        a                      a                      a 
 Frequencies --  -139.0262                16.5651                52.2709
 Red. masses --    21.0247                15.4883                22.1193
 Frc consts  --     0.0000                 0.0000                 0.0000
 IR Inten    --   134.4602                 2.5915                14.3826
 Raman Activ --     0.0000                 0.0000                 0.0000
 Depolar     --     0.0000                 0.0000                 0.0000
 Atom AN      X      Y      Z        X      Y      Z        X      Y      Z
   1   7    -0.23   0.58   0.02    -0.12   0.11  -0.03     0.03  -0.03   0.02
   2   6    -0.09   0.12   0.13     0.09  -0.10   0.12    -0.01   0.20  -0.02
   3   6    -0.02   0.04   0.03     0.06  -0.07   0.14     0.01   0.17   0.06
   4   6     0.01   0.04  -0.01    -0.03  -0.03   0.36     0.11   0.17  -0.01
   5   6     0.02   0.03  -0.01    -0.04  -0.01   0.35     0.18   0.10  -0.06
   6   6    -0.02   0.02   0.00     0.13  -0.07  -0.08    -0.03   0.11   0.13
   7   6    -0.00   0.01  -0.02     0.10  -0.04  -0.08     0.04   0.03   0.08
   8   6     0.01   0.01  -0.00     0.02  -0.01   0.14     0.15   0.03  -0.04
   9   6     0.02   0.00   0.01    -0.01   0.01   0.14     0.24  -0.06  -0.16
  10   6     0.01  -0.01   0.01     0.05   0.01  -0.06     0.21  -0.14  -0.16
  11   6     0.00  -0.01  -0.01     0.14  -0.02  -0.26     0.09  -0.13  -0.02
  12   6    -0.00  -0.01  -0.03     0.16  -0.05  -0.27     0.01  -0.04   0.10
  13  17     0.22  -0.60  -0.09    -0.33   0.15  -0.29    -0.64  -0.24   0.07
  14   1    -0.08   0.18   0.02    -0.01   0.01  -0.00     0.06  -0.07   0.01
  15   1    -0.04   0.19  -0.06    -0.06   0.03  -0.09    -0.07  -0.04   0.02
  16   1    -0.10   0.19   0.04    -0.06   0.10   0.03     0.03   0.03  -0.00
  17   1     0.01  -0.01   0.00     0.06  -0.07  -0.00    -0.01   0.09   0.01
  18   1    -0.05   0.02   0.12     0.04  -0.03   0.10    -0.00   0.06  -0.05
  19   1     0.00   0.01  -0.01    -0.02  -0.01   0.16     0.04   0.06  -0.01
  20   1     0.01   0.01  -0.01    -0.03   0.00   0.15     0.08   0.03  -0.04
  21   1    -0.01   0.01   0.00     0.06  -0.03  -0.08    -0.03   0.03   0.06
  22   1     0.01   0.00   0.01    -0.02   0.01   0.09     0.09  -0.02  -0.07
  23   1     0.00  -0.00   0.01     0.01   0.01  -0.02     0.08  -0.06  -0.08
  24   1    -0.00  -0.01  -0.01     0.05  -0.00  -0.12     0.02  -0.06  -0.01
  25   1    -0.00  -0.00  -0.01     0.07  -0.02  -0.13    -0.03  -0.01   0.06
                      4                      5                      6
                        a                      a                      a 
 Frequencies --    81.3098               106.6697               145.2374
 Red. masses --    15.9867                13.7208                 9.6516
 Frc consts  --     0.0000                 0.0000                 0.0000
 IR Inten    --    11.8709                22.7302                 3.4899
 Raman Activ --     0.0000                 0.0000                 0.0000
 Depolar     --     0.0000                 0.0000                 0.0000
 Atom AN      X      Y      Z        X      Y      Z        X      Y      Z
   1   7     0.11   0.26   0.16     0.34  -0.14   0.42    -0.08  -0.04  -0.03
   2   6     0.03  -0.05   0.10    -0.10   0.13   0.10    -0.01   0.01   0.02
   3   6     0.08  -0.09  -0.15    -0.10   0.14  -0.05    -0.01   0.02   0.06
   4   6     0.08  -0.11  -0.23    -0.06   0.16   0.05    -0.09   0.08   0.41
   5   6     0.07  -0.10  -0.25    -0.02   0.11   0.06    -0.01   0.02   0.08
   6   6     0.11  -0.09  -0.23    -0.09   0.06  -0.16     0.08  -0.05  -0.30
   7   6     0.09  -0.07  -0.22    -0.06   0.01  -0.13     0.06  -0.03  -0.23
   8   6     0.05  -0.06  -0.14    -0.02   0.04   0.01     0.07  -0.04  -0.27
   9   6    -0.02  -0.00   0.11     0.01  -0.00   0.13     0.10  -0.06  -0.37
  10   6    -0.06   0.05   0.32    -0.03  -0.08   0.15     0.00   0.01   0.03
  11   6    -0.01   0.03   0.17    -0.07  -0.11   0.00    -0.09   0.08   0.40
  12   6     0.08  -0.04  -0.13    -0.08  -0.08  -0.16    -0.02   0.03   0.11
  13  17    -0.38   0.14   0.24     0.13  -0.14  -0.35     0.03  -0.02   0.01
  14   1     0.04   0.05   0.11     0.17  -0.15   0.22    -0.04   0.01  -0.04
  15   1     0.00   0.07  -0.02    -0.03  -0.08   0.09     0.00  -0.00   0.01
  16   1     0.05   0.15   0.05     0.21   0.08   0.07    -0.05  -0.05  -0.00
  17   1    -0.00  -0.06   0.03    -0.11   0.08   0.10     0.01   0.01  -0.00
  18   1    -0.01  -0.03   0.09    -0.03   0.05  -0.06     0.00   0.01  -0.00
  19   1     0.03  -0.04  -0.08    -0.02   0.06   0.04    -0.06   0.05   0.26
  20   1     0.02  -0.03  -0.08     0.00   0.04   0.04    -0.01   0.01   0.06
  21   1     0.03  -0.03  -0.07    -0.03   0.01  -0.07     0.04  -0.03  -0.15
  22   1    -0.02   0.00   0.06     0.01   0.01   0.06     0.04  -0.03  -0.18
  23   1    -0.04   0.03   0.17    -0.00  -0.03   0.08    -0.01   0.01   0.03
  24   1    -0.01   0.02   0.08    -0.03  -0.05   0.00    -0.06   0.04   0.25
  25   1     0.04  -0.02  -0.07    -0.04  -0.03  -0.08    -0.02   0.02   0.08
                      7                      8                      9
                        a                      a                      a 
 Frequencies --   189.5876               236.1684               276.6923
 Red. masses --     9.9517                 5.8675                 6.0106
 Frc consts  --     0.0000                 0.0000                 0.0000
 IR Inten    --    12.0593                 2.3260                 1.1451
 Raman Activ --     0.0000                 0.0000                 0.0000
 Depolar     --     0.0000                 0.0000                 0.0000
 Atom AN      X      Y      Z        X      Y      Z        X      Y      Z
   1   7     0.36   0.31  -0.02    -0.10  -0.07  -0.15     0.12   0.02   0.09
   2   6     0.05  -0.05  -0.20     0.25  -0.28   0.11     0.20  -0.23   0.16
   3   6     0.07  -0.10  -0.29    -0.05   0.09   0.01     0.00   0.04  -0.10
   4   6    -0.04  -0.06   0.00    -0.07   0.08  -0.03    -0.04   0.05  -0.07
   5   6    -0.12  -0.01   0.27    -0.04   0.09  -0.08    -0.08   0.11   0.02
   6   6     0.03  -0.09  -0.14    -0.04   0.16   0.02     0.03   0.13  -0.16
   7   6    -0.05  -0.03   0.13    -0.06   0.14  -0.03    -0.06   0.17  -0.05
   8   6    -0.10  -0.03   0.17    -0.02   0.13  -0.07    -0.04   0.19   0.04
   9   6    -0.06  -0.05  -0.07     0.08   0.02  -0.02     0.09   0.03   0.08
  10   6    -0.00  -0.06  -0.29     0.02  -0.12   0.05     0.07  -0.18  -0.06
  11   6    -0.05   0.00   0.05    -0.06  -0.13   0.04    -0.05  -0.18   0.01
  12   6    -0.09   0.02   0.29    -0.13  -0.02  -0.01    -0.17  -0.02   0.04
  13  17    -0.06   0.04   0.06     0.11   0.02   0.10    -0.09  -0.02  -0.04
  14   1     0.15   0.01   0.15     0.17  -0.27   0.07    -0.20   0.30  -0.13
  15   1     0.02   0.07  -0.09    -0.30  -0.10  -0.27     0.35   0.11   0.16
  16   1     0.19   0.24  -0.02    -0.01   0.36   0.05    -0.10  -0.35   0.01
  17   1    -0.02  -0.03  -0.04     0.12  -0.28  -0.05     0.06  -0.20   0.01
  18   1    -0.01  -0.03  -0.03     0.20  -0.06   0.20     0.13  -0.06   0.16
  19   1    -0.01  -0.02   0.01    -0.02   0.02  -0.00    -0.01   0.00  -0.03
  20   1    -0.05   0.01   0.14    -0.02   0.02  -0.03    -0.05   0.03   0.01
  21   1     0.01  -0.03  -0.08    -0.00   0.05   0.01     0.03   0.04  -0.06
  22   1    -0.02  -0.02  -0.05     0.07   0.01  -0.00     0.08   0.02   0.04
  23   1     0.02  -0.03  -0.18     0.02  -0.05   0.03     0.05  -0.08  -0.04
  24   1    -0.01   0.01   0.02    -0.03  -0.06   0.02    -0.02  -0.08   0.01
  25   1    -0.03   0.02   0.14    -0.08  -0.02  -0.01    -0.11  -0.01   0.03
                     10                     11                     12
                        a                      a                      a 
 Frequencies --   317.6517               361.0796               393.8529
 Red. masses --     9.8259                 9.5473                 9.4466
 Frc consts  --     0.0000                 0.0000                 0.0000
 IR Inten    --     5.5497                 0.6716                 0.0715
 Raman Activ --     0.0000                 0.0000                 0.0000
 Depolar     --     0.0000                 0.0000                 0.0000
 Atom AN      X      Y      Z        X      Y      Z        X      Y      Z
   1   7    -0.32  -0.17   0.13     0.20   0.10  -0.11    -0.01   0.04  -0.00
   2   6    -0.17   0.02   0.15     0.15   0.04  -0.07    -0.20  -0.00  -0.13
   3   6    -0.05  -0.03  -0.05     0.03   0.10   0.18     0.08  -0.33   0.07
   4   6     0.07  -0.01  -0.09    -0.12   0.10   0.36     0.07  -0.31   0.18
   5   6     0.10  -0.03  -0.11     0.06  -0.05  -0.42    -0.12  -0.03  -0.10
   6   6     0.09  -0.06  -0.45     0.03  -0.04  -0.06     0.15  -0.04   0.08
   7   6     0.04   0.00  -0.04    -0.02  -0.04   0.12    -0.09   0.31  -0.02
   8   6     0.05   0.04   0.16    -0.03  -0.10  -0.19     0.02   0.32  -0.12
   9   6     0.01   0.09   0.28    -0.16  -0.02   0.20     0.21   0.15   0.03
  10   6     0.15   0.03  -0.24    -0.12  -0.03   0.02     0.13  -0.09   0.10
  11   6     0.07   0.06  -0.04     0.01  -0.07  -0.26    -0.00  -0.14  -0.05
  12   6    -0.01   0.11   0.30    -0.06  -0.02   0.24    -0.19   0.12  -0.03
  13  17     0.04   0.00  -0.00    -0.01  -0.00   0.01     0.00   0.01   0.00
  14   1    -0.02  -0.12   0.00     0.03   0.05  -0.01     0.01  -0.02   0.07
  15   1    -0.17  -0.08   0.01     0.08   0.04  -0.03    -0.03   0.01  -0.01
  16   1    -0.10   0.01   0.06     0.06   0.01  -0.04     0.05   0.06  -0.03
  17   1    -0.06   0.01   0.05     0.06   0.01  -0.03    -0.06   0.16   0.00
  18   1    -0.05   0.01   0.03     0.06   0.02  -0.02    -0.18  -0.03  -0.15
  19   1     0.03   0.01  -0.04    -0.06   0.03   0.21    -0.00  -0.12   0.08
  20   1     0.04  -0.02  -0.08     0.07  -0.03  -0.23    -0.15  -0.03  -0.06
  21   1     0.05  -0.03  -0.22     0.01  -0.03  -0.12     0.16   0.01   0.03
  22   1    -0.02   0.03   0.14    -0.08   0.01   0.16     0.13   0.06   0.04
  23   1     0.07  -0.01  -0.16    -0.05   0.01   0.05     0.06  -0.06   0.07
  24   1     0.02   0.01  -0.01     0.03  -0.02  -0.16    -0.01  -0.10  -0.04
  25   1    -0.02   0.05   0.18    -0.03   0.01   0.14    -0.12   0.02  -0.02
                     13                     14                     15
                        a                      a                      a 
 Frequencies --   439.6608               451.1951               499.2493
 Red. masses --     9.0331                 9.4927                11.2270
 Frc consts  --     0.0000                 0.0000                 0.0000
 IR Inten    --     6.7894                 0.9630                 0.6973
 Raman Activ --     0.0000                 0.0000                 0.0000
 Depolar     --     0.0000                 0.0000                 0.0000
 Atom AN      X      Y      Z        X      Y      Z        X      Y      Z
   1   7    -0.03  -0.01   0.04    -0.01  -0.01  -0.03    -0.03   0.01   0.01
   2   6    -0.14  -0.18  -0.05     0.16   0.24   0.09    -0.04   0.05  -0.02
   3   6    -0.15  -0.05  -0.30     0.24   0.04   0.15    -0.03   0.06  -0.03
   4   6    -0.05   0.04   0.01     0.09  -0.05  -0.14    -0.40  -0.02  -0.10
   5   6     0.05  -0.05   0.17    -0.13   0.13   0.12    -0.36  -0.05  -0.08
   6   6    -0.20   0.09   0.15     0.17  -0.04   0.16     0.07   0.21  -0.03
   7   6     0.02  -0.07  -0.18     0.14  -0.03  -0.42     0.19   0.10   0.04
   8   6     0.21  -0.10  -0.40    -0.09  -0.01  -0.23    -0.23   0.00  -0.06
   9   6     0.09   0.03   0.13    -0.20   0.02   0.18     0.00  -0.26   0.04
  10   6     0.14   0.12   0.08    -0.15  -0.16  -0.21     0.09  -0.15   0.06
  11   6     0.11   0.05  -0.20    -0.09  -0.09   0.05     0.47  -0.07   0.12
  12   6    -0.01   0.11   0.23    -0.06  -0.08   0.09     0.30   0.11   0.06
  13  17    -0.00  -0.00  -0.00     0.01   0.00  -0.00     0.00   0.00   0.00
  14   1    -0.04   0.03   0.05     0.04  -0.05  -0.08     0.00  -0.01   0.00
  15   1     0.03   0.01   0.00    -0.07  -0.03   0.01    -0.02  -0.00   0.01
  16   1     0.01  -0.01  -0.00    -0.04  -0.00   0.01     0.00   0.00  -0.00
  17   1    -0.07  -0.13  -0.01     0.07   0.15   0.03    -0.02   0.05   0.01
  18   1    -0.01  -0.05   0.04     0.00   0.06  -0.04    -0.04   0.01  -0.04
  19   1    -0.02   0.08   0.12     0.01  -0.08  -0.05    -0.13  -0.04  -0.02
  20   1    -0.02   0.02   0.23    -0.07   0.05   0.14    -0.10  -0.01  -0.02
  21   1    -0.10   0.05   0.21     0.02   0.02   0.19    -0.01   0.05  -0.01
  22   1    -0.03   0.03   0.18    -0.07   0.03   0.20     0.06  -0.06   0.02
  23   1     0.01   0.05   0.13    -0.05  -0.04  -0.05    -0.03   0.03  -0.01
  24   1     0.03  -0.00  -0.06    -0.04   0.02   0.12     0.14  -0.01   0.03
  25   1    -0.01   0.06   0.21    -0.09  -0.00   0.17     0.04   0.02   0.00
                     16                     17                     18
                        a                      a                      a 
 Frequencies --   514.6225               587.8501               612.9264
 Red. masses --     9.9596                11.1254                 9.7815
 Frc consts  --     0.0000                 0.0000                 0.0000
 IR Inten    --     1.8719                 0.9802                 4.3086
 Raman Activ --     0.0000                 0.0000                 0.0000
 Depolar     --     0.0000                 0.0000                 0.0000
 Atom AN      X      Y      Z        X      Y      Z        X      Y      Z
   1   7    -0.15  -0.06   0.10     0.04   0.00  -0.02     0.10   0.03  -0.09
   2   6     0.08   0.15   0.14     0.10   0.05   0.05    -0.02  -0.05  -0.05
   3   6     0.23  -0.01  -0.26     0.06   0.02   0.11    -0.21   0.09   0.55
   4   6     0.10   0.01  -0.09     0.12   0.04  -0.04    -0.05  -0.08  -0.23
   5   6    -0.05   0.13   0.13    -0.09   0.27  -0.00    -0.05  -0.12   0.27
   6   6     0.18  -0.04  -0.15    -0.08  -0.38  -0.01    -0.01   0.06  -0.18
   7   6    -0.00   0.07   0.28    -0.30  -0.09  -0.07     0.06  -0.03  -0.16
   8   6    -0.03  -0.00  -0.12    -0.17  -0.08  -0.03     0.07   0.01   0.03
   9   6    -0.05  -0.03  -0.29     0.09  -0.39   0.03     0.09   0.05  -0.21
  10   6    -0.24  -0.02   0.30     0.27   0.09   0.11    -0.02   0.06   0.18
  11   6     0.03  -0.11  -0.30     0.13   0.10  -0.05     0.01  -0.04  -0.23
  12   6    -0.04  -0.06   0.23    -0.18   0.41  -0.06    -0.04  -0.02   0.21
  13  17     0.01   0.00  -0.00    -0.00   0.00   0.00    -0.00   0.00   0.00
  14   1     0.00  -0.06  -0.09     0.02  -0.01  -0.04    -0.00   0.04   0.06
  15   1    -0.10  -0.04   0.05    -0.00  -0.01   0.00     0.07   0.03  -0.04
  16   1    -0.10  -0.04   0.06    -0.01  -0.01   0.00     0.08   0.04  -0.05
  17   1     0.00   0.05   0.06     0.04  -0.01  -0.00     0.04   0.03  -0.03
  18   1    -0.01   0.03   0.04     0.05   0.02   0.03     0.01  -0.00  -0.05
  19   1     0.00  -0.02   0.05     0.02  -0.05  -0.04     0.05  -0.03  -0.29
  20   1    -0.03   0.05   0.14    -0.02   0.07  -0.01     0.01  -0.05  -0.03
  21   1     0.05  -0.01  -0.03    -0.03  -0.11  -0.02     0.02  -0.00  -0.17
  22   1     0.01  -0.02  -0.13    -0.00  -0.11   0.01     0.01   0.02  -0.00
  23   1    -0.09   0.01   0.17     0.02   0.09   0.03    -0.01   0.02   0.16
  24   1     0.05  -0.02  -0.23    -0.01  -0.09  -0.01     0.00  -0.00  -0.04
  25   1    -0.02  -0.03   0.01    -0.04   0.12   0.00    -0.03   0.01   0.16
                     19                     20                     21
                        a                      a                      a 
 Frequencies --   697.4294               724.7249               743.3997
 Red. masses --    10.0260                11.1513                 3.8873
 Frc consts  --     0.0000                 0.0000                 0.0000
 IR Inten    --     3.2547                 0.2449                 4.8606
 Raman Activ --     0.0000                 0.0000                 0.0000
 Depolar     --     0.0000                 0.0000                 0.0000
 Atom AN      X      Y      Z        X      Y      Z        X      Y      Z
   1   7     0.07   0.04  -0.03     0.01  -0.01  -0.01     0.03  -0.01  -0.04
   2   6     0.26   0.30   0.14    -0.02  -0.03  -0.01    -0.05  -0.07  -0.02
   3   6     0.07   0.08  -0.06    -0.06   0.03   0.20    -0.08   0.02   0.22
   4   6    -0.35  -0.13  -0.11     0.07  -0.02  -0.18     0.07  -0.01  -0.11
   5   6    -0.09  -0.46   0.03    -0.03   0.06   0.18     0.03   0.04  -0.07
   6   6    -0.02   0.02  -0.05     0.03  -0.02  -0.15     0.02  -0.02  -0.15
   7   6    -0.09  -0.04   0.06    -0.12   0.10   0.54     0.03  -0.01  -0.12
   8   6     0.11  -0.07  -0.01     0.12  -0.09  -0.53     0.02  -0.01  -0.10
   9   6     0.18   0.06   0.08    -0.05   0.02   0.15    -0.07   0.03   0.18
  10   6     0.26   0.16   0.02     0.03  -0.05  -0.21    -0.06  -0.00   0.12
  11   6    -0.23   0.06  -0.02    -0.03   0.03   0.19     0.00   0.01   0.13
  12   6    -0.16   0.00  -0.04     0.06  -0.03  -0.19    -0.03   0.04   0.22
  13  17     0.00   0.00  -0.00    -0.00   0.00  -0.00    -0.00  -0.00   0.00
  14   1     0.08  -0.05  -0.19    -0.01   0.02   0.03    -0.03   0.03   0.06
  15   1    -0.08  -0.03   0.04     0.03   0.01  -0.02     0.05   0.02  -0.04
  16   1    -0.08  -0.04   0.04     0.01   0.01  -0.01     0.04   0.02  -0.03
  17   1     0.07   0.12   0.05     0.00   0.01  -0.00     0.01   0.01  -0.01
  18   1     0.05   0.08   0.01    -0.00  -0.01  -0.01    -0.01  -0.01  -0.03
  19   1    -0.12  -0.02   0.08     0.01   0.00  -0.02    -0.02   0.04   0.16
  20   1    -0.04  -0.11   0.09    -0.02   0.02   0.10    -0.05   0.05   0.22
  21   1    -0.06   0.01   0.05     0.04  -0.03  -0.15    -0.05   0.05   0.24
  22   1     0.02   0.00  -0.04    -0.04   0.03   0.16     0.08  -0.06  -0.34
  23   1     0.13  -0.02  -0.03    -0.02   0.01   0.04     0.08  -0.06  -0.39
  24   1    -0.08  -0.07  -0.06    -0.00   0.01   0.03     0.10  -0.06  -0.38
  25   1     0.01  -0.00  -0.07     0.02  -0.01  -0.08     0.08  -0.06  -0.35
                     22                     23                     24
                        a                      a                      a 
 Frequencies --   801.6569               821.5920               826.4070
 Red. masses --    10.2461                 4.5948                 3.4161
 Frc consts  --     0.0000                 0.0000                 0.0000
 IR Inten    --     1.1135                51.0226                36.9552
 Raman Activ --     0.0000                 0.0000                 0.0000
 Depolar     --     0.0000                 0.0000                 0.0000
 Atom AN      X      Y      Z        X      Y      Z        X      Y      Z
   1   7    -0.02  -0.00   0.00     0.03  -0.04  -0.03    -0.03   0.10  -0.07
   2   6    -0.04   0.00  -0.03     0.01  -0.10   0.03    -0.13   0.23  -0.07
   3   6     0.03   0.02   0.02    -0.04   0.02   0.17    -0.06   0.01   0.08
   4   6    -0.17   0.07  -0.06     0.04  -0.00  -0.23     0.09  -0.12  -0.05
   5   6    -0.28   0.32  -0.12     0.06   0.00  -0.22     0.05  -0.12  -0.02
   6   6    -0.04  -0.39   0.05     0.05  -0.03  -0.21    -0.01  -0.05  -0.07
   7   6     0.05  -0.23   0.05    -0.02   0.01   0.12    -0.04   0.04   0.03
   8   6    -0.04   0.15  -0.04    -0.06   0.04   0.25     0.00   0.04   0.05
   9   6     0.18   0.32  -0.01     0.03  -0.03  -0.10    -0.04   0.07  -0.00
  10   6     0.17   0.13   0.02     0.02   0.00  -0.05    -0.10  -0.08   0.00
  11   6    -0.06   0.02  -0.02     0.01  -0.01  -0.12     0.13  -0.05  -0.02
  12   6     0.19  -0.36   0.10     0.02  -0.03  -0.10     0.02   0.08  -0.08
  13  17     0.00  -0.00  -0.00    -0.01  -0.00   0.01     0.00  -0.00  -0.01
  14   1    -0.00  -0.01   0.04    -0.05   0.06   0.05     0.11  -0.12   0.01
  15   1    -0.00  -0.01   0.05     0.08   0.04  -0.15    -0.13  -0.08   0.41
  16   1     0.05  -0.02  -0.04    -0.05   0.07   0.05     0.29  -0.17  -0.27
  17   1     0.00  -0.08  -0.04    -0.01   0.11   0.05     0.11  -0.30  -0.21
  18   1     0.02   0.00   0.06    -0.04  -0.02  -0.13     0.13   0.06   0.38
  19   1    -0.09  -0.09   0.00    -0.10   0.10   0.45    -0.02  -0.01   0.17
  20   1    -0.13   0.09  -0.04    -0.07   0.07   0.33    -0.05  -0.03   0.09
  21   1    -0.10  -0.13  -0.00    -0.08   0.06   0.32    -0.01   0.01   0.09
  22   1     0.10   0.10  -0.00    -0.02   0.01   0.08     0.03   0.01  -0.05
  23   1     0.12  -0.05   0.03    -0.04   0.04   0.19    -0.04  -0.01   0.01
  24   1     0.01   0.06  -0.01    -0.06   0.05   0.25     0.02   0.01   0.09
  25   1     0.15  -0.08   0.05    -0.04   0.03   0.17    -0.05   0.04   0.09
                     25                     26                     27
                        a                      a                      a 
 Frequencies --   849.2265               866.7264               872.1878
 Red. masses --     3.6520                 9.5882                 4.0681
 Frc consts  --     0.0000                 0.0000                 0.0000
 IR Inten    --     0.5567                 5.2835                 1.2109
 Raman Activ --     0.0000                 0.0000                 0.0000
 Depolar     --     0.0000                 0.0000                 0.0000
 Atom AN      X      Y      Z        X      Y      Z        X      Y      Z
   1   7     0.01   0.01  -0.02    -0.14  -0.00   0.05     0.04   0.00  -0.01
   2   6    -0.01   0.02   0.01    -0.09  -0.08  -0.12     0.04  -0.02   0.03
   3   6    -0.01  -0.00  -0.02     0.12  -0.01   0.03    -0.02  -0.00  -0.03
   4   6    -0.04   0.02   0.21    -0.02   0.04   0.01    -0.03   0.02   0.11
   5   6    -0.03   0.01   0.10    -0.08   0.13  -0.01    -0.01  -0.00   0.08
   6   6     0.07  -0.07  -0.36     0.26   0.27  -0.04    -0.02  -0.07  -0.15
   7   6    -0.02   0.01   0.07     0.16   0.07   0.05    -0.06   0.00   0.10
   8   6    -0.00   0.01   0.01    -0.07  -0.12  -0.02     0.04   0.00  -0.11
   9   6     0.02   0.00  -0.11     0.02  -0.38   0.13    -0.06   0.11   0.23
  10   6     0.02  -0.03  -0.11     0.23   0.22   0.05    -0.08  -0.01   0.15
  11   6     0.01   0.00   0.06    -0.37   0.12  -0.14     0.10  -0.04  -0.10
  12   6    -0.01   0.02   0.09    -0.05  -0.22  -0.03     0.08  -0.01  -0.27
  13  17     0.00   0.00  -0.00     0.00  -0.00  -0.00     0.00   0.00   0.00
  14   1     0.01  -0.01  -0.01    -0.04  -0.01   0.18     0.01   0.01  -0.05
  15   1    -0.01  -0.00   0.02    -0.00  -0.00   0.13     0.00   0.01  -0.05
  16   1     0.01  -0.01  -0.01     0.15  -0.02  -0.12    -0.07   0.03   0.06
  17   1    -0.00  -0.02  -0.00     0.05  -0.06  -0.09    -0.03   0.04   0.05
  18   1     0.02   0.01   0.01    -0.04  -0.04   0.05    -0.00  -0.00  -0.06
  19   1     0.06  -0.05  -0.27    -0.02  -0.05  -0.02     0.04  -0.02  -0.18
  20   1     0.06  -0.05  -0.28     0.04   0.04  -0.05     0.03  -0.03  -0.13
  21   1    -0.16   0.11   0.65     0.13   0.11   0.10    -0.09   0.02   0.22
  22   1    -0.05   0.05   0.23    -0.07  -0.14  -0.09     0.13  -0.06  -0.47
  23   1    -0.04   0.02   0.16     0.07   0.05  -0.03     0.04  -0.05  -0.21
  24   1     0.02  -0.01  -0.04    -0.13  -0.01   0.01    -0.01   0.03   0.15
  25   1     0.05  -0.04  -0.21     0.01  -0.03   0.11    -0.12   0.09   0.50
                     28                     29                     30
                        a                      a                      a 
 Frequencies --   905.1741               912.4637               924.1047
 Red. masses --     3.7390                 4.0247                 3.3729
 Frc consts  --     0.0000                 0.0000                 0.0000
 IR Inten    --     2.1714                 0.2937                 0.0553
 Raman Activ --     0.0000                 0.0000                 0.0000
 Depolar     --     0.0000                 0.0000                 0.0000
 Atom AN      X      Y      Z        X      Y      Z        X      Y      Z
   1   7     0.03   0.00  -0.02     0.03   0.01  -0.02     0.01   0.00  -0.01
   2   6    -0.01   0.03   0.03    -0.02   0.03   0.03    -0.00   0.01   0.01
   3   6    -0.04  -0.01   0.01    -0.04  -0.01   0.02    -0.01  -0.01  -0.00
   4   6    -0.01  -0.00   0.26     0.01  -0.02   0.18     0.01  -0.01   0.04
   5   6     0.05  -0.03  -0.27     0.04  -0.02  -0.23    -0.00   0.01  -0.02
   6   6    -0.03   0.04  -0.02    -0.02   0.04  -0.05    -0.01   0.01  -0.02
   7   6    -0.00  -0.00   0.03    -0.01   0.00   0.04    -0.02   0.01   0.09
   8   6    -0.01  -0.00  -0.02    -0.03   0.01   0.06     0.01  -0.01  -0.08
   9   6    -0.03   0.00   0.16     0.05  -0.06  -0.21     0.03  -0.03  -0.14
  10   6     0.05  -0.01  -0.14    -0.01   0.04   0.12    -0.07   0.06   0.31
  11   6     0.03  -0.02  -0.15    -0.06   0.05   0.23     0.06  -0.04  -0.25
  12   6    -0.02  -0.01   0.15     0.07  -0.07  -0.20    -0.01  -0.00   0.07
  13  17     0.00   0.00  -0.00     0.00   0.00  -0.00     0.00   0.00  -0.00
  14   1     0.02  -0.01  -0.04     0.02  -0.01  -0.04     0.01  -0.00  -0.02
  15   1    -0.01  -0.00   0.00    -0.01  -0.00   0.00    -0.01  -0.00  -0.00
  16   1    -0.01  -0.01   0.00    -0.00  -0.01  -0.00    -0.01  -0.00   0.00
  17   1    -0.01  -0.01   0.01    -0.01  -0.01   0.00    -0.01  -0.00   0.00
  18   1     0.02   0.01   0.02     0.02   0.01   0.02     0.00   0.00   0.00
  19   1     0.11  -0.09  -0.43     0.08  -0.06  -0.27     0.02  -0.02  -0.05
  20   1    -0.16   0.08   0.49    -0.13   0.06   0.39    -0.02   0.01   0.04
  21   1     0.00   0.00  -0.06    -0.01   0.01   0.01    -0.01   0.01   0.01
  22   1     0.05  -0.05  -0.25    -0.08   0.05   0.33    -0.08   0.05   0.32
  23   1    -0.06   0.05   0.25     0.05  -0.03  -0.20     0.14  -0.10  -0.59
  24   1    -0.07   0.05   0.27     0.10  -0.06  -0.41    -0.11   0.09   0.48
  25   1     0.07  -0.05  -0.22    -0.07   0.05   0.35     0.05  -0.04  -0.20
                     31                     32                     33
                        a                      a                      a 
 Frequencies --   930.5292               989.4894              1011.7289
 Red. masses --     8.7511                 8.7567                 7.0109
 Frc consts  --     0.0000                 0.0000                 0.0000
 IR Inten    --    36.5005                25.9279                16.3059
 Raman Activ --     0.0000                 0.0000                 0.0000
 Depolar     --     0.0000                 0.0000                 0.0000
 Atom AN      X      Y      Z        X      Y      Z        X      Y      Z
   1   7    -0.29  -0.10   0.20     0.18   0.08  -0.33    -0.06   0.28   0.30
   2   6     0.10  -0.04  -0.25    -0.29  -0.22   0.39     0.28  -0.30  -0.35
   3   6     0.23   0.14   0.01     0.11  -0.05   0.01    -0.08  -0.08   0.13
   4   6    -0.30   0.24  -0.04    -0.25   0.27  -0.08    -0.04   0.08  -0.03
   5   6     0.08  -0.18  -0.02     0.06   0.03  -0.00     0.02   0.07  -0.03
   6   6     0.20  -0.25   0.08     0.15  -0.13   0.06    -0.05   0.01  -0.04
   7   6    -0.01   0.02   0.01     0.06   0.04   0.02    -0.01  -0.02  -0.01
   8   6     0.08  -0.04   0.02     0.07  -0.05   0.02     0.03  -0.01   0.02
   9   6     0.00   0.14  -0.04    -0.00   0.03  -0.01    -0.01   0.02  -0.01
  10   6    -0.08  -0.09   0.02    -0.03  -0.05   0.00    -0.01  -0.02  -0.00
  11   6     0.03  -0.05   0.01    -0.04   0.00  -0.01     0.02   0.01   0.01
  12   6    -0.11   0.20  -0.07    -0.06   0.09  -0.03    -0.00   0.01   0.00
  13  17    -0.00  -0.00  -0.00     0.00   0.00  -0.00     0.01   0.00  -0.01
  14   1    -0.17   0.07   0.36     0.13  -0.08  -0.16     0.17  -0.13  -0.27
  15   1     0.10   0.05  -0.00    -0.05  -0.04   0.08    -0.30  -0.07   0.32
  16   1     0.11   0.06  -0.05     0.10  -0.08  -0.14    -0.12  -0.14   0.09
  17   1     0.08  -0.01  -0.10    -0.02   0.08   0.10     0.08   0.13  -0.04
  18   1     0.04  -0.01  -0.05    -0.31  -0.14   0.06    -0.22  -0.18  -0.11
  19   1    -0.05   0.05  -0.15    -0.05   0.11  -0.08    -0.00   0.05  -0.00
  20   1     0.14   0.00   0.15     0.21   0.06   0.07     0.05   0.04   0.05
  21   1     0.06  -0.07   0.03     0.11  -0.03   0.02    -0.03   0.01   0.02
  22   1     0.02   0.05   0.02     0.01   0.01   0.01    -0.00   0.01   0.01
  23   1     0.01  -0.06  -0.02     0.01  -0.04   0.01    -0.00  -0.01   0.01
  24   1    -0.01  -0.06   0.01    -0.02  -0.02  -0.00     0.01   0.01  -0.01
  25   1    -0.08   0.05  -0.02    -0.04   0.02  -0.01     0.01   0.00  -0.01
                     34                     35                     36
                        a                      a                      a 
 Frequencies --  1043.2847              1080.0164              1145.1302
 Red. masses --     5.0762                 6.5406                 5.5574
 Frc consts  --     0.0000                 0.0000                 0.0000
 IR Inten    --    11.6571                 0.0026                 0.8599
 Raman Activ --     0.0000                 0.0000                 0.0000
 Depolar     --     0.0000                 0.0000                 0.0000
 Atom AN      X      Y      Z        X      Y      Z        X      Y      Z
   1   7     0.20   0.01   0.14    -0.01  -0.00  -0.00     0.01   0.00  -0.00
   2   6    -0.30   0.09  -0.29     0.02   0.01   0.01    -0.06  -0.03  -0.02
   3   6    -0.00   0.03   0.13    -0.02  -0.00  -0.01     0.05   0.04   0.02
   4   6    -0.10   0.06  -0.06     0.00  -0.02   0.01     0.05  -0.09   0.02
   5   6     0.02  -0.04   0.00    -0.01  -0.01  -0.00    -0.07   0.16  -0.04
   6   6     0.21  -0.13   0.07    -0.03   0.02  -0.01     0.02   0.23  -0.03
   7   6     0.08   0.08  -0.01     0.06  -0.06   0.02     0.11  -0.21   0.06
   8   6    -0.00  -0.01   0.00     0.04   0.08  -0.00     0.00  -0.26   0.05
   9   6     0.01  -0.04   0.01     0.13  -0.18   0.06    -0.07   0.25  -0.06
  10   6    -0.01  -0.01   0.00    -0.19  -0.39   0.02     0.02  -0.08   0.02
  11   6    -0.08   0.02  -0.02    -0.29   0.30  -0.12    -0.02  -0.07   0.01
  12   6    -0.01   0.03  -0.00     0.07   0.21  -0.02    -0.00   0.29  -0.05
  13  17     0.00   0.00   0.00    -0.00   0.00  -0.00     0.00   0.00   0.00
  14   1     0.06   0.01  -0.30    -0.01   0.00   0.02     0.00   0.00  -0.01
  15   1    -0.05  -0.02  -0.14     0.00   0.00   0.00    -0.01  -0.00  -0.00
  16   1    -0.29   0.01   0.26     0.01   0.00  -0.01    -0.02  -0.00   0.01
  17   1    -0.33  -0.37  -0.00     0.02   0.02  -0.00    -0.04  -0.04   0.01
  18   1     0.20   0.10   0.09     0.01   0.00  -0.01    -0.01  -0.01  -0.00
  19   1    -0.04   0.01   0.01     0.01   0.00   0.00    -0.10  -0.32   0.04
  20   1     0.11   0.02   0.04    -0.04  -0.01  -0.01     0.05   0.06   0.00
  21   1     0.22  -0.00   0.07    -0.04  -0.00  -0.01    -0.10   0.04  -0.03
  22   1     0.02  -0.01   0.00     0.42   0.02   0.10    -0.23   0.03  -0.06
  23   1     0.01  -0.02   0.01     0.04  -0.23   0.05     0.25  -0.32   0.12
  24   1    -0.03  -0.00  -0.01    -0.03   0.24  -0.05    -0.14  -0.38   0.03
  25   1    -0.01   0.01  -0.00     0.40   0.14   0.07     0.18   0.12   0.02
                     37                     38                     39
                        a                      a                      a 
 Frequencies --  1169.7017              1177.0136              1179.3157
 Red. masses --     3.6874                 1.7233                 2.3417
 Frc consts  --     0.0000                 0.0000                 0.0000
 IR Inten    --     3.0540                 0.1757                 0.3917
 Raman Activ --     0.0000                 0.0000                 0.0000
 Depolar     --     0.0000                 0.0000                 0.0000
 Atom AN      X      Y      Z        X      Y      Z        X      Y      Z
   1   7     0.03   0.00   0.01    -0.00   0.02  -0.01    -0.03   0.01  -0.00
   2   6    -0.12  -0.10  -0.04    -0.01  -0.04   0.00     0.10   0.06   0.03
   3   6     0.17   0.20   0.03     0.01   0.07  -0.01    -0.16  -0.14  -0.03
   4   6     0.08   0.08   0.01     0.03   0.02   0.00    -0.03   0.11  -0.02
   5   6    -0.04  -0.11   0.01     0.02  -0.07   0.02    -0.03  -0.00  -0.00
   6   6     0.09  -0.08   0.03     0.09  -0.01   0.02    -0.01  -0.08   0.01
   7   6     0.23   0.03   0.05     0.02  -0.09   0.02    -0.14   0.03  -0.04
   8   6     0.09   0.09   0.00    -0.06   0.11  -0.03     0.01   0.00  -0.00
   9   6    -0.05  -0.08   0.00    -0.05   0.03  -0.02    -0.04   0.02  -0.01
  10   6     0.03  -0.07   0.02    -0.02   0.06  -0.01     0.04  -0.05   0.02
  11   6    -0.06   0.07  -0.02    -0.03  -0.09   0.01     0.03  -0.04   0.01
  12   6    -0.04   0.08  -0.02     0.01  -0.01   0.00     0.07  -0.00   0.02
  13  17     0.00  -0.00   0.00    -0.00  -0.00  -0.00    -0.00  -0.00  -0.00
  14   1     0.01  -0.01  -0.04     0.01  -0.01  -0.01     0.00  -0.01   0.02
  15   1    -0.02  -0.01  -0.01    -0.01  -0.00   0.01     0.01   0.01   0.01
  16   1    -0.03  -0.01   0.02     0.01  -0.01  -0.01     0.03  -0.00  -0.03
  17   1    -0.05  -0.07  -0.01    -0.03  -0.00   0.02     0.05   0.07   0.01
  18   1    -0.11  -0.07   0.04    -0.01  -0.01  -0.01     0.09   0.05  -0.02
  19   1     0.11   0.25  -0.02     0.09   0.23  -0.02     0.12   0.39  -0.04
  20   1    -0.55  -0.14  -0.12    -0.18  -0.06  -0.04    -0.24  -0.05  -0.05
  21   1    -0.43  -0.11  -0.08     0.04   0.00   0.01     0.50   0.08   0.11
  22   1    -0.22  -0.06  -0.04     0.21   0.05   0.04    -0.39  -0.07  -0.08
  23   1     0.08  -0.12   0.04    -0.27   0.34  -0.12     0.21  -0.25   0.09
  24   1    -0.02   0.02  -0.01    -0.22  -0.60   0.05     0.02   0.04   0.00
  25   1    -0.18  -0.01  -0.04     0.40   0.08   0.08     0.27   0.05   0.06
                     40                     41                     42
                        a                      a                      a 
 Frequencies --  1209.4765              1224.0117              1250.2900
 Red. masses --     3.2940                 5.7358                 6.2107
 Frc consts  --     0.0000                 0.0000                 0.0000
 IR Inten    --     8.9050                 0.3463                 0.3059
 Raman Activ --     0.0000                 0.0000                 0.0000
 Depolar     --     0.0000                 0.0000                 0.0000
 Atom AN      X      Y      Z        X      Y      Z        X      Y      Z
   1   7    -0.16   0.19  -0.13    -0.02   0.03  -0.01    -0.02   0.02   0.00
   2   6     0.10  -0.21   0.08     0.01  -0.03   0.01     0.07   0.07   0.03
   3   6     0.03   0.20  -0.01    -0.02   0.03  -0.01    -0.17  -0.27  -0.01
   4   6     0.03  -0.02   0.00     0.12  -0.12   0.05    -0.02   0.08  -0.02
   5   6     0.04  -0.04   0.02    -0.00  -0.12   0.02    -0.13   0.16  -0.06
   6   6     0.05  -0.03   0.02     0.13   0.02   0.03    -0.07   0.01  -0.02
   7   6    -0.05  -0.02  -0.01    -0.02  -0.01  -0.00     0.33  -0.21   0.12
   8   6     0.01   0.00   0.00    -0.53  -0.08  -0.11     0.18  -0.23   0.08
   9   6     0.03  -0.02   0.01    -0.04   0.09  -0.03    -0.06   0.05  -0.02
  10   6    -0.02   0.00  -0.00     0.07   0.17  -0.01    -0.03  -0.02  -0.00
  11   6    -0.00  -0.01   0.00    -0.02  -0.02   0.00    -0.02   0.15  -0.03
  12   6    -0.00  -0.00   0.00     0.12   0.01   0.03    -0.06   0.11  -0.03
  13  17     0.00   0.00  -0.00    -0.00  -0.00  -0.00    -0.00  -0.00  -0.00
  14   1     0.05  -0.07   0.07     0.01  -0.01   0.01     0.01  -0.01   0.00
  15   1    -0.07   0.01   0.22    -0.02  -0.00   0.02     0.01   0.01   0.01
  16   1     0.12  -0.07  -0.17     0.03  -0.03  -0.03     0.03  -0.00  -0.02
  17   1    -0.49  -0.08   0.37    -0.06  -0.01   0.04     0.03   0.05   0.01
  18   1     0.31   0.11  -0.38     0.05   0.02  -0.04     0.18   0.09  -0.05
  19   1    -0.05  -0.16   0.03     0.20   0.41  -0.02     0.03   0.14  -0.01
  20   1    -0.12  -0.04  -0.02     0.25   0.01   0.06    -0.21   0.01  -0.05
  21   1     0.07   0.00   0.01    -0.15  -0.03  -0.03     0.23   0.04   0.04
  22   1    -0.01  -0.01   0.00     0.28   0.09   0.05     0.31   0.07   0.06
  23   1    -0.02   0.01  -0.00     0.26  -0.25   0.11    -0.03   0.02  -0.01
  24   1     0.03   0.07  -0.01    -0.02  -0.05   0.00    -0.07  -0.14   0.01
  25   1    -0.02  -0.01  -0.01    -0.13  -0.03  -0.03    -0.47  -0.06  -0.10
                     43                     44                     45
                        a                      a                      a 
 Frequencies --  1253.5212              1314.3472              1332.5289
 Red. masses --     6.6128                 4.1646                 6.8920
 Frc consts  --     0.0000                 0.0000                 0.0000
 IR Inten    --     2.0856                34.4261                 1.6625
 Raman Activ --     0.0000                 0.0000                 0.0000
 Depolar     --     0.0000                 0.0000                 0.0000
 Atom AN      X      Y      Z        X      Y      Z        X      Y      Z
   1   7     0.05  -0.03   0.02    -0.01  -0.13  -0.17     0.03  -0.02  -0.02
   2   6    -0.11  -0.09  -0.04     0.37   0.23  -0.13     0.05  -0.03   0.01
   3   6     0.14   0.33  -0.01    -0.05  -0.11   0.07    -0.08   0.18  -0.05
   4   6     0.05   0.02   0.01    -0.01  -0.01  -0.00     0.11   0.17  -0.00
   5   6     0.09  -0.02   0.03    -0.04   0.04  -0.02     0.13  -0.19   0.06
   6   6     0.11   0.17  -0.00    -0.03   0.04  -0.02    -0.24  -0.23  -0.02
   7   6    -0.31  -0.27  -0.03     0.01  -0.03   0.00     0.08   0.26  -0.03
   8   6    -0.13  -0.26   0.01     0.04  -0.02   0.01    -0.05   0.16  -0.04
   9   6     0.10   0.12   0.00    -0.01   0.01  -0.00    -0.21  -0.18  -0.02
  10   6    -0.04   0.10  -0.03     0.00  -0.01   0.00    -0.04   0.11  -0.03
  11   6     0.07  -0.09   0.03     0.01   0.02   0.00     0.03   0.17  -0.02
  12   6    -0.02   0.02  -0.01    -0.02   0.00  -0.00     0.21  -0.12   0.07
  13  17     0.00  -0.00   0.00    -0.00  -0.00  -0.00     0.00   0.00  -0.00
  14   1    -0.00   0.01  -0.02    -0.10   0.08   0.16    -0.04   0.05   0.03
  15   1    -0.01  -0.01  -0.04     0.04  -0.04   0.12    -0.03  -0.03   0.04
  16   1    -0.04   0.01   0.04    -0.03   0.13   0.03    -0.03   0.03   0.03
  17   1     0.05  -0.01  -0.06    -0.45  -0.17   0.28     0.05   0.04  -0.01
  18   1    -0.23  -0.11   0.10    -0.43  -0.19   0.32    -0.12  -0.06   0.03
  19   1    -0.02  -0.11   0.01     0.02   0.07  -0.00    -0.11  -0.34   0.03
  20   1    -0.37  -0.09  -0.08     0.03   0.02   0.01    -0.07  -0.08  -0.01
  21   1     0.32   0.11   0.06     0.01   0.02   0.01     0.21  -0.01   0.05
  22   1     0.26   0.08   0.05     0.01   0.01   0.00     0.15  -0.01   0.04
  23   1     0.01   0.01   0.00    -0.01   0.01  -0.00     0.19  -0.23   0.09
  24   1     0.10   0.20  -0.01     0.00   0.00  -0.00    -0.12  -0.30   0.02
  25   1    -0.07  -0.01  -0.01    -0.01  -0.00  -0.00    -0.12  -0.07  -0.02
                     46                     47                     48
                        a                      a                      a 
 Frequencies --  1366.5252              1381.3618              1405.3327
 Red. masses --     2.5721                10.4575                 1.9068
 Frc consts  --     0.0000                 0.0000                 0.0000
 IR Inten    --   159.6370                 2.8589                65.0858
 Raman Activ --     0.0000                 0.0000                 0.0000
 Depolar     --     0.0000                 0.0000                 0.0000
 Atom AN      X      Y      Z        X      Y      Z        X      Y      Z
   1   7     0.24  -0.07  -0.20    -0.01  -0.01  -0.01     0.10   0.05   0.15
   2   6    -0.09  -0.07   0.03     0.06   0.05   0.01     0.07   0.02   0.01
   3   6     0.01  -0.00  -0.02    -0.28   0.00  -0.07    -0.02   0.06  -0.01
   4   6    -0.01  -0.01   0.00    -0.22  -0.18  -0.02    -0.02  -0.08   0.01
   5   6    -0.01   0.01  -0.00     0.29   0.19   0.04    -0.01   0.02  -0.00
   6   6     0.03   0.01   0.01     0.24  -0.06   0.07    -0.00   0.00  -0.00
   7   6     0.00  -0.02   0.01    -0.12   0.02  -0.03    -0.01  -0.08   0.01
   8   6    -0.01  -0.01   0.00    -0.05   0.00  -0.01     0.02   0.08  -0.01
   9   6     0.02   0.02   0.00     0.36  -0.08   0.10     0.03  -0.01   0.01
  10   6     0.00  -0.01   0.00    -0.29   0.07  -0.08    -0.02  -0.04   0.00
  11   6    -0.01  -0.02   0.00    -0.21  -0.09  -0.03    -0.01   0.06  -0.01
  12   6    -0.02   0.01  -0.01     0.41   0.15   0.07     0.04   0.01   0.01
  13  17     0.01   0.00  -0.01    -0.00  -0.00  -0.00     0.01   0.00   0.01
  14   1    -0.31   0.38   0.21     0.01  -0.01  -0.01    -0.21   0.28   0.02
  15   1    -0.41  -0.25   0.42     0.05   0.01   0.04    -0.51  -0.14  -0.48
  16   1    -0.20   0.22   0.20    -0.00   0.05   0.01     0.22  -0.39  -0.23
  17   1     0.10   0.09  -0.05     0.04   0.04  -0.01    -0.07  -0.03   0.05
  18   1     0.16   0.06  -0.06    -0.02  -0.00   0.02    -0.07  -0.03   0.02
  19   1     0.01   0.04  -0.01    -0.06  -0.02  -0.01     0.01   0.02  -0.00
  20   1    -0.00   0.00   0.01    -0.11   0.02  -0.03     0.05   0.01   0.00
  21   1    -0.01  -0.00  -0.01    -0.09  -0.05  -0.01     0.05   0.01   0.02
  22   1    -0.02   0.00   0.00    -0.14  -0.07  -0.02    -0.06  -0.02  -0.02
  23   1    -0.02   0.03  -0.01    -0.06  -0.01  -0.01    -0.02   0.01  -0.01
  24   1     0.01   0.03  -0.01    -0.10  -0.14  -0.00    -0.02  -0.03   0.00
  25   1     0.01   0.01  -0.00    -0.21  -0.02  -0.05    -0.06  -0.01  -0.01
                     49                     50                     51
                        a                      a                      a 
 Frequencies --  1410.8612              1427.5186              1439.8132
 Red. masses --     9.6628                10.0303                 2.0612
 Frc consts  --     0.0000                 0.0000                 0.0000
 IR Inten    --     5.3958                 1.4821                75.6078
 Raman Activ --     0.0000                 0.0000                 0.0000
 Depolar     --     0.0000                 0.0000                 0.0000
 Atom AN      X      Y      Z        X      Y      Z        X      Y      Z
   1   7     0.01   0.01   0.03     0.00   0.01  -0.01     0.08   0.16  -0.17
   2   6     0.02   0.05   0.00     0.00  -0.06  -0.00    -0.03   0.02  -0.02
   3   6     0.10  -0.28   0.07     0.01   0.25  -0.04     0.04  -0.02   0.01
   4   6     0.01   0.23  -0.04     0.25   0.01   0.06    -0.03  -0.03  -0.00
   5   6    -0.05   0.03  -0.02    -0.31  -0.13  -0.05    -0.01   0.02  -0.01
   6   6    -0.06  -0.02  -0.01    -0.26  -0.15  -0.03    -0.00   0.02  -0.00
   7   6    -0.10   0.48  -0.11     0.22   0.22   0.02    -0.06  -0.00  -0.01
   8   6     0.10  -0.46   0.10    -0.17  -0.26   0.00     0.06   0.01   0.01
   9   6     0.05   0.00   0.01     0.32   0.18   0.04    -0.00  -0.03   0.00
  10   6    -0.13   0.23  -0.07     0.03  -0.18   0.04    -0.04   0.02  -0.01
  11   6    -0.02  -0.24   0.03    -0.23  -0.07  -0.04     0.02   0.03   0.00
  12   6     0.08  -0.01   0.02     0.18   0.13   0.02     0.02  -0.02   0.01
  13  17     0.00   0.00   0.00    -0.00   0.00  -0.00     0.00   0.00   0.00
  14   1    -0.05   0.06  -0.00     0.02  -0.03   0.04     0.18  -0.25   0.58
  15   1    -0.10  -0.03  -0.08     0.01   0.01   0.00    -0.02   0.02  -0.08
  16   1     0.05  -0.06  -0.05    -0.04  -0.03   0.02    -0.44  -0.49   0.15
  17   1    -0.04  -0.04   0.02     0.02   0.02  -0.00     0.02   0.05  -0.01
  18   1     0.06   0.03  -0.02    -0.07  -0.04   0.02     0.03   0.01   0.08
  19   1    -0.03  -0.02  -0.00     0.08   0.01   0.02     0.01   0.03  -0.00
  20   1    -0.18  -0.03  -0.04     0.11  -0.01   0.03     0.01   0.01  -0.00
  21   1    -0.21  -0.04  -0.04     0.18   0.01   0.04    -0.01   0.00  -0.01
  22   1     0.20   0.03   0.04    -0.18  -0.00  -0.04     0.01  -0.01   0.00
  23   1     0.05  -0.05   0.02    -0.18   0.18  -0.07     0.01  -0.03   0.01
  24   1     0.03   0.02   0.00    -0.05   0.04  -0.02    -0.01  -0.03   0.00
  25   1     0.19   0.03   0.04    -0.06   0.02  -0.02    -0.01  -0.01  -0.00
                     52                     53                     54
                        a                      a                      a 
 Frequencies --  1454.2886              1482.6305              1507.5042
 Red. masses --     9.7261                 2.0897                10.7913
 Frc consts  --     0.0000                 0.0000                 0.0000
 IR Inten    --     0.1009                12.6419                 0.9580
 Raman Activ --     0.0000                 0.0000                 0.0000
 Depolar     --     0.0000                 0.0000                 0.0000
 Atom AN      X      Y      Z        X      Y      Z        X      Y      Z
   1   7     0.02   0.02  -0.01     0.02   0.02  -0.01     0.00   0.00  -0.00
   2   6     0.08   0.04   0.00     0.09   0.19   0.21    -0.01   0.04  -0.01
   3   6    -0.37  -0.08  -0.07    -0.05  -0.04   0.00     0.13  -0.36   0.09
   4   6     0.00   0.16  -0.03    -0.00   0.01  -0.00     0.04   0.38  -0.05
   5   6     0.30  -0.03   0.08     0.03   0.01   0.01     0.15  -0.14   0.06
   6   6     0.14  -0.11   0.05     0.00  -0.00   0.00     0.03   0.16  -0.02
   7   6     0.38  -0.00   0.09     0.03  -0.01   0.01    -0.24  -0.06  -0.05
   8   6    -0.33   0.02  -0.08    -0.03   0.00  -0.01    -0.32  -0.03  -0.07
   9   6    -0.10   0.08  -0.04    -0.01   0.01  -0.00     0.10   0.18  -0.01
  10   6     0.20   0.02   0.04     0.02  -0.01   0.01     0.14  -0.33   0.09
  11   6    -0.10  -0.27   0.02    -0.01  -0.01  -0.00     0.00   0.34  -0.06
  12   6    -0.21   0.13  -0.07    -0.01   0.01  -0.00     0.15  -0.11   0.05
  13  17     0.00   0.00   0.00     0.00   0.00  -0.00     0.00   0.00   0.00
  14   1     0.01  -0.01   0.07     0.00  -0.00   0.07    -0.00   0.00   0.01
  15   1    -0.04  -0.01  -0.06    -0.03  -0.01   0.04    -0.01  -0.00  -0.01
  16   1    -0.03  -0.09  -0.01    -0.06  -0.03   0.04     0.00  -0.01  -0.00
  17   1     0.02   0.09   0.02     0.14  -0.60  -0.24    -0.03  -0.02   0.01
  18   1     0.00  -0.00   0.07    -0.32  -0.02  -0.59     0.07   0.03   0.00
  19   1    -0.10  -0.21   0.01     0.00   0.01  -0.00    -0.07  -0.11   0.00
  20   1    -0.14  -0.06  -0.03    -0.01  -0.00   0.00    -0.09  -0.07  -0.01
  21   1    -0.02  -0.05   0.01     0.02   0.00   0.00    -0.10   0.02  -0.03
  22   1     0.01   0.04  -0.00    -0.00   0.00   0.00    -0.12   0.02  -0.03
  23   1    -0.01   0.09  -0.02    -0.01   0.01  -0.00    -0.10   0.08  -0.04
  24   1     0.08   0.23  -0.02     0.00   0.01  -0.00    -0.07  -0.09  -0.00
  25   1     0.13   0.08   0.02     0.00   0.00  -0.00    -0.11  -0.06  -0.02
                     55                     56                     57
                        a                      a                      a 
 Frequencies --  1578.3334              1614.0244              1619.0830
 Red. masses --    11.7039                11.5438                11.4320
 Frc consts  --     0.0000                 0.0000                 0.0000
 IR Inten    --     1.9068                 4.2819                 0.3101
 Raman Activ --     0.0000                 0.0000                 0.0000
 Depolar     --     0.0000                 0.0000                 0.0000
 Atom AN      X      Y      Z        X      Y      Z        X      Y      Z
   1   7     0.00   0.00   0.00     0.01   0.00  -0.01    -0.01  -0.00   0.00
   2   6     0.02  -0.01   0.01     0.03   0.00   0.02    -0.03  -0.01  -0.01
   3   6    -0.20   0.23  -0.09    -0.36   0.05  -0.09     0.26  -0.03   0.07
   4   6    -0.13  -0.31   0.02     0.25   0.22   0.02    -0.18  -0.16  -0.01
   5   6     0.15   0.20   0.00    -0.38  -0.16  -0.06     0.20   0.12   0.03
   6   6     0.18  -0.12   0.06     0.43   0.00   0.10    -0.25   0.02  -0.06
   7   6    -0.07   0.35  -0.08    -0.28  -0.06  -0.06    -0.08   0.02  -0.02
   8   6     0.04  -0.36   0.07     0.27   0.03   0.06     0.08   0.06   0.01
   9   6    -0.17   0.14  -0.07    -0.24  -0.01  -0.06    -0.42   0.03  -0.10
  10   6     0.21  -0.28   0.10     0.16  -0.06   0.05     0.35  -0.11   0.10
  11   6     0.12   0.35  -0.03    -0.13  -0.10  -0.01    -0.30  -0.25  -0.03
  12   6    -0.12  -0.20   0.01     0.22   0.07   0.04     0.39   0.19   0.06
  13  17     0.00  -0.00  -0.00     0.00   0.00  -0.00     0.00  -0.00   0.00
  14   1     0.00   0.00  -0.00     0.00  -0.00   0.00    -0.00   0.00  -0.00
  15   1     0.00  -0.00   0.00    -0.00   0.00  -0.01    -0.00  -0.00   0.00
  16   1    -0.00  -0.00   0.00    -0.00  -0.01  -0.00     0.00   0.00   0.00
  17   1     0.02   0.02  -0.01     0.03   0.03  -0.01    -0.02  -0.02   0.01
  18   1    -0.03  -0.01   0.00    -0.02  -0.01  -0.00     0.02   0.01   0.00
  19   1     0.01   0.05  -0.01     0.01  -0.09   0.02    -0.01   0.07  -0.02
  20   1    -0.06   0.03  -0.02     0.08  -0.01   0.02    -0.04   0.02  -0.01
  21   1    -0.04  -0.04  -0.00    -0.09  -0.05  -0.01     0.04   0.03   0.00
  22   1     0.03   0.05  -0.00     0.06   0.02   0.01     0.07   0.05   0.01
  23   1    -0.04   0.04  -0.02    -0.00   0.04  -0.01    -0.01   0.11  -0.02
  24   1    -0.02  -0.06   0.01    -0.01   0.04  -0.01    -0.02   0.11  -0.02
  25   1     0.04  -0.04   0.02    -0.06  -0.00  -0.01    -0.09   0.02  -0.02
                     58                     59                     60
                        a                      a                      a 
 Frequencies --  2912.2363              2957.9177              2983.8194
 Red. masses --     1.9701                 1.9727                 1.5115
 Frc consts  --     0.0000                 0.0000                 0.0000
 IR Inten    --  1372.8729                16.3477                 7.1330
 Raman Activ --     0.0000                 0.0000                 0.0000
 Depolar     --     0.0000                 0.0000                 0.0000
 Atom AN      X      Y      Z        X      Y      Z        X      Y      Z
   1   7    -0.09   0.25   0.02     0.02  -0.04  -0.00     0.01  -0.03  -0.00
   2   6     0.02  -0.05   0.01     0.16  -0.22   0.11    -0.05  -0.11  -0.17
   3   6     0.00  -0.00   0.00     0.01  -0.01   0.00    -0.00  -0.01  -0.00
   4   6     0.00   0.00   0.00    -0.00   0.00  -0.00     0.00   0.00   0.00
   5   6    -0.00   0.00  -0.00     0.00  -0.00   0.00    -0.00   0.00  -0.00
   6   6    -0.00   0.00  -0.00    -0.00   0.00  -0.00     0.00   0.00  -0.00
   7   6     0.00   0.00   0.00    -0.00  -0.00  -0.00    -0.00   0.00   0.00
   8   6     0.00  -0.00   0.00    -0.00   0.00  -0.00     0.00   0.00   0.00
   9   6    -0.00   0.00  -0.00     0.00   0.00  -0.00    -0.00  -0.00  -0.00
  10   6     0.00   0.00   0.00    -0.00   0.00  -0.00     0.00  -0.00  -0.00
  11   6     0.00  -0.00   0.00    -0.00  -0.00   0.00     0.00   0.00  -0.00
  12   6    -0.00   0.00  -0.00     0.00   0.00   0.00     0.00  -0.00   0.00
  13  17     0.00  -0.01  -0.00    -0.00   0.00  -0.00    -0.00   0.00   0.00
  14   1    -0.02   0.00  -0.00     0.00   0.00   0.00     0.00  -0.00  -0.00
  15   1     0.34  -0.88  -0.11    -0.05   0.14   0.02    -0.03   0.08   0.01
  16   1     0.01   0.01   0.03     0.00  -0.00   0.00    -0.01   0.00  -0.02
  17   1    -0.02  -0.00  -0.03    -0.35   0.12  -0.51     0.41  -0.19   0.58
  18   1    -0.06   0.16   0.02    -0.24   0.66   0.10    -0.24   0.59   0.06
  19   1    -0.00  -0.00  -0.00     0.01   0.00   0.00    -0.00   0.00  -0.00
  20   1     0.00  -0.00   0.00    -0.00   0.00  -0.00     0.00  -0.00   0.00
  21   1    -0.00  -0.00   0.00    -0.00  -0.01   0.00    -0.00  -0.00   0.00
  22   1     0.00  -0.00   0.00     0.00   0.00  -0.00     0.00  -0.00  -0.00
  23   1    -0.00  -0.00  -0.00     0.00   0.00  -0.00     0.00   0.00  -0.00
  24   1    -0.00   0.00  -0.00     0.00   0.00   0.00     0.00  -0.00  -0.00
  25   1    -0.00  -0.00   0.00     0.00  -0.00   0.00     0.00   0.00  -0.00
                     61                     62                     63
                        a                      a                      a 
 Frequencies --  3098.2834              3105.6406              3115.0543
 Red. masses --     1.7566                 1.8073                 1.8655
 Frc consts  --     0.0000                 0.0000                 0.0000
 IR Inten    --     3.0479                22.5343                26.1616
 Raman Activ --     0.0000                 0.0000                 0.0000
 Depolar     --     0.0000                 0.0000                 0.0000
 Atom AN      X      Y      Z        X      Y      Z        X      Y      Z
   1   7     0.00  -0.00  -0.00    -0.00   0.00   0.00    -0.00   0.00   0.00
   2   6    -0.00   0.00  -0.00    -0.00   0.00   0.00     0.00  -0.00  -0.00
   3   6    -0.00   0.00  -0.00     0.00   0.00   0.00    -0.00  -0.00  -0.00
   4   6     0.00   0.00   0.00    -0.01   0.00  -0.00    -0.00   0.00  -0.00
   5   6     0.00  -0.00   0.00     0.00  -0.01   0.00     0.00  -0.02   0.00
   6   6     0.00  -0.01   0.00    -0.00   0.02  -0.01     0.02  -0.12   0.03
   7   6     0.00   0.00  -0.00    -0.00  -0.00   0.00     0.01   0.00   0.00
   8   6    -0.00   0.00  -0.00    -0.00   0.00  -0.00    -0.00   0.00  -0.00
   9   6    -0.01   0.04  -0.01    -0.01   0.09  -0.02    -0.01   0.09  -0.02
  10   6    -0.11  -0.10  -0.01    -0.14  -0.12  -0.01    -0.02  -0.02  -0.00
  11   6     0.18  -0.06   0.05    -0.10   0.03  -0.03    -0.13   0.04  -0.04
  12   6    -0.01   0.08  -0.02     0.02  -0.13   0.03    -0.02   0.18  -0.04
  13  17     0.00  -0.00   0.00    -0.00   0.00   0.00    -0.00  -0.00  -0.00
  14   1     0.00   0.00  -0.00    -0.00  -0.00   0.00    -0.00  -0.00  -0.00
  15   1    -0.00   0.00   0.00     0.00  -0.00  -0.00     0.00  -0.00   0.00
  16   1    -0.00  -0.00   0.00     0.00   0.00   0.00     0.00   0.00  -0.00
  17   1     0.00  -0.00   0.00    -0.00   0.00  -0.00    -0.00   0.00  -0.00
  18   1     0.00  -0.00  -0.00     0.00  -0.00  -0.00    -0.00   0.00   0.00
  19   1    -0.00  -0.00   0.00     0.02  -0.01   0.01     0.01  -0.01   0.00
  20   1    -0.00   0.01  -0.00    -0.01   0.04  -0.01    -0.01   0.06  -0.01
  21   1    -0.01   0.03  -0.01     0.01  -0.08   0.02    -0.07   0.42  -0.09
  22   1     0.02  -0.15   0.03     0.05  -0.34   0.07     0.05  -0.30   0.06
  23   1     0.42   0.36   0.04     0.50   0.42   0.05     0.08   0.07   0.01
  24   1    -0.64   0.22  -0.19     0.33  -0.11   0.10     0.41  -0.14   0.12
  25   1     0.05  -0.30   0.06    -0.07   0.47  -0.10     0.10  -0.62   0.13
                     64                     65                     66
                        a                      a                      a 
 Frequencies --  3118.2604              3119.6301              3122.2052
 Red. masses --     1.8155                 1.8175                 1.8733
 Frc consts  --     0.0000                 0.0000                 0.0000
 IR Inten    --    15.1498                78.3481                16.3200
 Raman Activ --     0.0000                 0.0000                 0.0000
 Depolar     --     0.0000                 0.0000                 0.0000
 Atom AN      X      Y      Z        X      Y      Z        X      Y      Z
   1   7    -0.00   0.00  -0.00     0.00  -0.00  -0.00    -0.00   0.00  -0.00
   2   6    -0.00   0.00  -0.00    -0.00   0.00   0.00    -0.00   0.00  -0.00
   3   6    -0.00   0.00  -0.00     0.01   0.01   0.00    -0.00   0.00  -0.00
   4   6    -0.11   0.04  -0.03     0.06  -0.02   0.02    -0.07   0.02  -0.02
   5   6     0.03  -0.18   0.04    -0.01   0.09  -0.02     0.01  -0.05   0.01
   6   6    -0.01   0.09  -0.02    -0.04   0.20  -0.04    -0.01   0.06  -0.01
   7   6    -0.00   0.00  -0.00    -0.00   0.01  -0.00    -0.00   0.00  -0.00
   8   6    -0.00  -0.00  -0.00     0.00   0.00  -0.00     0.00  -0.01   0.00
   9   6    -0.02   0.10  -0.02    -0.01   0.06  -0.01     0.03  -0.20   0.04
  10   6     0.05   0.04   0.01     0.00   0.00   0.00    -0.09  -0.07  -0.01
  11   6     0.02  -0.01   0.01    -0.04   0.01  -0.01    -0.07   0.02  -0.02
  12   6    -0.00   0.01  -0.00    -0.01   0.09  -0.02    -0.01   0.07  -0.01
  13  17    -0.00   0.00  -0.00    -0.00  -0.00   0.00    -0.00   0.00   0.00
  14   1    -0.00  -0.00  -0.00    -0.00  -0.00   0.00    -0.00  -0.00  -0.00
  15   1     0.00  -0.00  -0.00    -0.00   0.00   0.00     0.00  -0.00  -0.00
  16   1     0.00  -0.00   0.00     0.00   0.00   0.00     0.00  -0.00   0.00
  17   1     0.00  -0.00   0.00    -0.00  -0.00  -0.00     0.00  -0.00   0.00
  18   1     0.00  -0.01  -0.00     0.00  -0.01  -0.00     0.00  -0.00  -0.00
  19   1     0.42  -0.14   0.12    -0.23   0.08  -0.07     0.25  -0.09   0.07
  20   1    -0.10   0.64  -0.13     0.05  -0.33   0.07    -0.03   0.20  -0.04
  21   1     0.05  -0.32   0.07     0.11  -0.73   0.16     0.03  -0.22   0.05
  22   1     0.05  -0.34   0.07     0.03  -0.21   0.04    -0.11   0.69  -0.14
  23   1    -0.16  -0.13  -0.02    -0.01  -0.01  -0.00     0.28   0.24   0.03
  24   1    -0.06   0.02  -0.02     0.14  -0.05   0.04     0.22  -0.08   0.06
  25   1     0.01  -0.06   0.01     0.05  -0.33   0.07     0.04  -0.24   0.05
                     67                     68                     69
                        a                      a                      a 
 Frequencies --  3129.8229              3228.6739              3246.0096
 Red. masses --     1.8956                 1.8181                 1.7180
 Frc consts  --     0.0000                 0.0000                 0.0000
 IR Inten    --     4.1376                29.7742                31.3563
 Raman Activ --     0.0000                 0.0000                 0.0000
 Depolar     --     0.0000                 0.0000                 0.0000
 Atom AN      X      Y      Z        X      Y      Z        X      Y      Z
   1   7     0.00   0.00   0.00    -0.20  -0.14  -0.03     0.12  -0.06   0.19
   2   6     0.00  -0.00   0.00    -0.00  -0.00   0.00     0.00  -0.00   0.01
   3   6     0.01   0.00   0.00    -0.00   0.00   0.00    -0.00  -0.00   0.00
   4   6     0.21  -0.07   0.06     0.00   0.00   0.00    -0.00   0.00  -0.00
   5   6     0.02  -0.17   0.03     0.00  -0.00   0.00    -0.00  -0.00   0.00
   6   6    -0.00   0.01  -0.00     0.00   0.00   0.00    -0.00   0.00  -0.00
   7   6     0.00   0.00  -0.00    -0.00   0.00  -0.00     0.00   0.00   0.00
   8   6    -0.00  -0.00  -0.00     0.00   0.00   0.00     0.00  -0.00   0.00
   9   6     0.00  -0.03   0.01    -0.00  -0.00   0.00     0.00  -0.00  -0.00
  10   6    -0.01  -0.01  -0.00    -0.00  -0.00   0.00    -0.00  -0.00   0.00
  11   6    -0.00   0.00  -0.00    -0.00   0.00  -0.00    -0.00   0.00  -0.00
  12   6    -0.00   0.00  -0.00    -0.00   0.00  -0.00    -0.00   0.00  -0.00
  13  17     0.00  -0.00   0.00    -0.00   0.00   0.00    -0.00   0.00  -0.00
  14   1    -0.00  -0.00  -0.00     0.74   0.61   0.06     0.08   0.05   0.02
  15   1    -0.00  -0.00   0.00    -0.01  -0.04  -0.01     0.03  -0.05   0.01
  16   1     0.00   0.00  -0.00     0.03  -0.03   0.06    -0.54   0.21  -0.77
  17   1    -0.00  -0.00  -0.00     0.00   0.00   0.00    -0.01   0.01  -0.02
  18   1    -0.00   0.00  -0.00     0.00  -0.00  -0.00     0.00  -0.01  -0.00
  19   1    -0.69   0.24  -0.20    -0.00   0.00  -0.00     0.00  -0.00   0.00
  20   1    -0.09   0.56  -0.11    -0.00   0.00  -0.00    -0.00   0.00  -0.00
  21   1     0.00  -0.03   0.01    -0.00  -0.00   0.00     0.00  -0.00   0.00
  22   1    -0.01   0.09  -0.02    -0.00   0.00  -0.00    -0.00   0.00  -0.00
  23   1     0.02   0.02   0.00     0.00   0.00   0.00     0.00   0.00  -0.00
  24   1     0.01  -0.00   0.00     0.00  -0.00   0.00     0.00  -0.00   0.00
  25   1     0.00  -0.01   0.00     0.00  -0.00   0.00     0.00  -0.00   0.00
