21
 energy: -29.772945417928 gnorm: 0.000198478967 xtb: 6.5.1 (fef0646)
N            3.05791789088053       -3.47113736373722        1.42691277426255
C            2.51836546288337       -2.73507248203412        0.24527602101665
C            2.99856235250469       -1.28478997375348        0.33150968327921
C            4.50404120452764       -1.27580411210335        0.40976545634234
C            5.27517769355596       -1.28851320727168       -0.74748564831341
C            6.65261153360006       -1.36764476948924       -0.67843968030999
C            7.28170213063874       -1.44684280691387        0.55983222893797
Cl           8.99554266814136       -1.55662485531097        0.64959280643238
C            6.52773691383539       -1.42596746414605        1.72542553693085
C            5.14618841162983       -1.34875745978184        1.64720613827421
H            3.08219154939637       -4.48538844040645        1.28304160541238
H            2.50550460771889       -3.26782210743675        2.26761636388878
H            4.02813895012548       -3.09120968637012        1.57208351862373
H            1.43088519621915       -2.80076438939323        0.23203131779833
H            2.91484789364480       -3.19966456656998       -0.65826777800694
H            2.56411015552735       -0.79594169501924        1.20446155008136
H            2.66002282992636       -0.74988048019122       -0.55417436009162
H            4.79406896188119       -1.21950752487965       -1.71114358731936
H            7.24403536832601       -1.36292447907024       -1.57925582626215
H            7.01885478010591       -1.45886800627583        2.68426763786532
H            4.57999344493132       -1.25397412984569        2.56547424115746
