27
 energy: -35.426491530646 gnorm: 0.000305470541 xtb: 6.5.1 (fef0646)
N            2.74283129724920        2.37523787862228       -1.55929868587231
C            2.47090088147104        1.25935906060582       -0.62055267475384
C            3.06727088498144       -0.04005047796626       -1.15956851219831
C            4.57286587990793        0.01731329499167       -1.21109619517968
C            5.31492340383187       -0.07792423427205       -0.06109703038936
C            6.72215487051578       -0.01599602607227       -0.08905402928466
C            7.49932245862898       -0.12053764081274        1.08413950832640
C            8.86331331754260       -0.06804244437176        1.02291557623598
C            9.51392370369358        0.09403415821906       -0.21163040863638
C            8.78937571473306        0.20069797927449       -1.36548386138326
C            7.38020725853948        0.14858474290199       -1.33653053227912
C            6.59898680842372        0.24459164218657       -2.50659899354246
C            5.23481417711541        0.18560571729713       -2.44406200380235
H            2.38905319523741        3.26456230627397       -1.18849682841478
H            2.29493453749609        2.19343067454697       -2.46524891182516
H            3.75563067248085        2.45661403416100       -1.71143025634375
H            1.39441358897427        1.14787958880377       -0.49757655410932
H            2.91564881284932        1.49197850609455        0.34655716111445
H            2.67218069293947       -0.25180062017568       -2.15292221837440
H            2.76400106000616       -0.85455334717924       -0.50235139371579
H            4.83044070641077       -0.22025297727764        0.89406566423319
H            6.99957533146674       -0.24714011024231        2.03366424486307
H            9.45489784635629       -0.15125962841129        1.92298906027934
H           10.59329346678237        0.13201682500826       -0.23887694371802
H            9.28801704241618        0.32353540982281       -2.31656626333373
H            7.10276850413520        0.36102332181293       -3.45513141444100
H            4.65845388581428        0.24034236615900       -3.35561750345558
