 Entering Gaussian System
 *********************************************
 Gaussian 98:
 frequency output generated by the xtb code
 *********************************************
                         Standard orientation:
 --------------------------------------------------------------------
  Center     Atomic     Atomic              Coordinates (Angstroms)
  Number     Number      Type              X           Y           Z
 --------------------------------------------------------------------
    1          7             0       -3.127329    1.412628    1.026149
    2          6             0       -3.924927    0.442941    0.240563
    3          6             0       -3.766171    0.752008   -1.241648
    4          8             0       -2.411970    1.062540   -1.556814
    5          6             0       -1.494035    0.045215   -1.334585
    6          6             0       -0.149702    0.425259   -1.079140
    7          6             0        0.235416    1.790027   -1.066944
    8          6             0        1.515229    2.161121   -0.802849
    9          6             0        0.821564   -0.564906   -0.807592
   10          6             0        0.465817   -1.934304   -0.806368
   11          6             0       -0.864086   -2.281758   -1.079873
   12          6             0       -1.810722   -1.322693   -1.335701
   13          6             0        1.467133   -2.906059   -0.531230
   14          6             0        2.748606   -2.542105   -0.268865
   15          6             0        3.139463   -1.171587   -0.258629
   16          6             0        4.450226   -0.768623    0.009156
   17          6             0        4.791463    0.569475    0.010672
   18          6             0        3.845108    1.539830   -0.251946
   19          6             0        2.519845    1.189996   -0.525981
   20          6             0        2.164117   -0.180802   -0.530137
   21         17             0       -2.903502    0.519403    4.359620
   22          1             0       -3.511725    2.366480    0.939308
   23          1             0       -2.168380    1.439063    0.640205
   24          1             0       -3.071477    1.169030    2.035419
   25          1             0       -4.978246    0.460267    0.545617
   26          1             0       -3.565092   -0.570341    0.453623
   27          1             0       -4.346197    1.643200   -1.506678
   28          1             0       -4.119987   -0.054292   -1.892866
   29          1             0       -0.514741    2.531801   -1.286753
   30          1             0        1.789304    3.203020   -0.802962
   31          1             0       -1.136421   -3.324356   -1.087800
   32          1             0       -2.817554   -1.626808   -1.559077
   33          1             0        1.189698   -3.947198   -0.534457
   34          1             0        3.493943   -3.292279   -0.062846
   35          1             0        5.196253   -1.518197    0.215475
   36          1             0        5.809156    0.859850    0.219208
   37          1             0        4.121473    2.581238   -0.248939
 --------------------------------------------------------------------
     1 basis functions        1 primitive gaussians
     1 alpha electrons        1 beta electrons

 Harmonic frequencies (cm**-1), IR intensities (km*mol⁻¹),
 Raman scattering activities (A**4/amu), Raman depolarization ratios,
 reduced masses (AMU), force constants (mDyne/A) and normal coordinates:
                      1                      2                      3
                        a                      a                      a 
 Frequencies --  -137.1093                24.1254                31.8595
 Red. masses --    25.1935                21.5254                15.1904
 Frc consts  --     0.0000                 0.0000                 0.0000
 IR Inten    --    74.8637                 1.3683                 0.1575
 Raman Activ --     0.0000                 0.0000                 0.0000
 Depolar     --     0.0000                 0.0000                 0.0000
 Atom AN      X      Y      Z        X      Y      Z        X      Y      Z
   1   7     0.03  -0.23   0.40     0.25   0.02  -0.08     0.13  -0.23   0.04
   2   6     0.04  -0.08   0.19     0.14   0.00   0.04     0.02  -0.04  -0.08
   3   6     0.01   0.04   0.21    -0.04  -0.03   0.01     0.01   0.12  -0.05
   4   8    -0.00   0.03   0.15    -0.08  -0.05  -0.16     0.01   0.12  -0.07
   5   6    -0.01   0.02   0.06    -0.05  -0.03  -0.13    -0.00   0.10  -0.05
   6   6     0.00   0.01   0.02    -0.07  -0.02  -0.06     0.01   0.07  -0.08
   7   6     0.01   0.01   0.01    -0.10  -0.01  -0.01     0.07   0.06  -0.23
   8   6     0.01   0.00  -0.01    -0.12   0.00   0.07     0.09   0.03  -0.28
   9   6     0.00   0.00   0.00    -0.07  -0.01  -0.02    -0.03   0.06   0.03
  10   6    -0.00   0.01   0.00    -0.05  -0.01  -0.06    -0.08   0.07   0.15
  11   6    -0.01   0.01   0.01    -0.04  -0.03  -0.13    -0.08   0.09   0.12
  12   6    -0.01   0.02   0.04    -0.04  -0.04  -0.16    -0.04   0.11   0.01
  13   6    -0.00   0.00   0.00    -0.06  -0.00  -0.01    -0.13   0.06   0.30
  14   6    -0.00  -0.00   0.00    -0.08   0.01   0.07    -0.12   0.04   0.30
  15   6     0.00  -0.00  -0.00    -0.10   0.02   0.11    -0.07   0.03   0.14
  16   6     0.00  -0.00   0.00    -0.12   0.04   0.20    -0.05  -0.00   0.12
  17   6     0.01  -0.01  -0.01    -0.14   0.04   0.24     0.01  -0.02  -0.06
  18   6     0.01  -0.00  -0.01    -0.14   0.03   0.19     0.06  -0.01  -0.20
  19   6     0.01  -0.00  -0.01    -0.12   0.01   0.11     0.04   0.02  -0.16
  20   6     0.00   0.00  -0.00    -0.10   0.01   0.06    -0.02   0.04   0.00
  21  17    -0.06   0.14  -0.75     0.63   0.02  -0.17     0.07  -0.42   0.04
  22   1     0.03  -0.05   0.12     0.06   0.00  -0.01     0.07  -0.04   0.02
  23   1     0.02  -0.07   0.15     0.05   0.01  -0.06     0.04  -0.09   0.03
  24   1    -0.03  -0.09   0.13     0.11   0.01  -0.02     0.01  -0.08   0.01
  25   1     0.01  -0.03   0.05     0.05   0.00   0.05     0.01   0.01  -0.02
  26   1     0.00  -0.03   0.02     0.05   0.00   0.00    -0.02  -0.03  -0.06
  27   1     0.01   0.02   0.09    -0.02  -0.01   0.01     0.01   0.05   0.02
  28   1    -0.01   0.03   0.05    -0.03  -0.02   0.02    -0.01   0.06  -0.04
  29   1     0.00   0.00   0.00    -0.03  -0.01  -0.01     0.03   0.02  -0.09
  30   1     0.00   0.00  -0.01    -0.04   0.00   0.03     0.04   0.01  -0.12
  31   1    -0.00   0.00  -0.00    -0.01  -0.01  -0.05    -0.03   0.03   0.05
  32   1    -0.00   0.01   0.02    -0.01  -0.01  -0.06    -0.01   0.04  -0.01
  33   1    -0.00   0.00   0.00    -0.01  -0.00  -0.01    -0.05   0.02   0.12
  34   1    -0.00  -0.00   0.00    -0.02   0.01   0.03    -0.05   0.01   0.12
  35   1    -0.00  -0.00   0.00    -0.04   0.01   0.07    -0.03  -0.00   0.07
  36   1     0.00  -0.00  -0.00    -0.05   0.02   0.09     0.01  -0.01  -0.02
  37   1     0.00  -0.00  -0.01    -0.05   0.01   0.07     0.03  -0.01  -0.10
                      4                      5                      6
                        a                      a                      a 
 Frequencies --    58.1090                76.5017               102.5880
 Red. masses --    18.1203                11.8958                12.5435
 Frc consts  --     0.0000                 0.0000                 0.0000
 IR Inten    --    13.2565                14.1561                14.5037
 Raman Activ --     0.0000                 0.0000                 0.0000
 Depolar     --     0.0000                 0.0000                 0.0000
 Atom AN      X      Y      Z        X      Y      Z        X      Y      Z
   1   7     0.21  -0.15   0.18    -0.41   0.23   0.05    -0.39  -0.13   0.07
   2   6     0.18  -0.11   0.16    -0.19   0.07   0.04    -0.06  -0.27  -0.05
   3   6     0.02  -0.03   0.16    -0.03  -0.00   0.04    -0.02  -0.08  -0.01
   4   8    -0.02  -0.00   0.02    -0.00   0.02   0.22    -0.02   0.07   0.12
   5   6     0.01   0.00  -0.11     0.01  -0.01   0.07     0.03   0.06  -0.07
   6   6     0.03  -0.01  -0.17     0.04  -0.02  -0.11     0.02   0.05   0.03
   7   6     0.04  -0.01  -0.22     0.08  -0.03  -0.27     0.02   0.04   0.14
   8   6     0.03  -0.01  -0.20     0.08  -0.03  -0.28     0.04   0.02   0.09
   9   6     0.02  -0.01  -0.16     0.05  -0.02  -0.11     0.00   0.03   0.01
  10   6     0.03  -0.01  -0.18     0.04  -0.01  -0.08     0.00   0.03  -0.09
  11   6     0.03  -0.01  -0.21     0.02  -0.01   0.03     0.05   0.03  -0.33
  12   6     0.02  -0.00  -0.15    -0.01  -0.00   0.15     0.07   0.05  -0.32
  13   6     0.02  -0.01  -0.14     0.05  -0.02  -0.12    -0.05   0.02   0.08
  14   6    -0.01  -0.00  -0.03     0.04  -0.01  -0.05    -0.08  -0.00   0.22
  15   6    -0.02   0.00   0.02     0.02  -0.01   0.03    -0.03  -0.02   0.13
  16   6    -0.05   0.01   0.19    -0.03   0.00   0.23    -0.01  -0.05   0.05
  17   6    -0.06   0.01   0.21    -0.04   0.01   0.29     0.06  -0.07  -0.14
  18   6    -0.02   0.00   0.06     0.00  -0.00   0.08     0.09  -0.05  -0.14
  19   6     0.01  -0.00  -0.08     0.05  -0.02  -0.10     0.04  -0.01   0.01
  20   6     0.01  -0.00  -0.09     0.04  -0.01  -0.09     0.00   0.00   0.06
  21  17    -0.33   0.23   0.38     0.20  -0.13  -0.07     0.19   0.22   0.11
  22   1     0.10  -0.03  -0.01    -0.22   0.03   0.11    -0.20  -0.07   0.08
  23   1     0.08  -0.09   0.11    -0.15   0.19  -0.07    -0.12   0.08  -0.02
  24   1    -0.02   0.00   0.07     0.01  -0.00  -0.01    -0.03  -0.06   0.01
  25   1     0.06  -0.04   0.07    -0.07  -0.01  -0.03    -0.03  -0.16  -0.04
  26   1     0.06  -0.03   0.02    -0.03   0.04   0.04     0.05  -0.06  -0.04
  27   1    -0.00  -0.01   0.08    -0.01  -0.01  -0.02    -0.02  -0.03   0.02
  28   1    -0.01   0.00   0.05     0.02  -0.01   0.01     0.02  -0.01  -0.04
  29   1     0.01  -0.01  -0.08     0.03  -0.01  -0.10     0.01   0.02   0.06
  30   1     0.01  -0.00  -0.07     0.03  -0.01  -0.11     0.02   0.00   0.03
  31   1     0.01  -0.00  -0.07     0.00  -0.00   0.02     0.02   0.01  -0.15
  32   1     0.00   0.00  -0.04    -0.01  -0.00   0.09     0.03   0.02  -0.14
  33   1     0.01  -0.00  -0.05     0.02  -0.01  -0.05    -0.02   0.01   0.03
  34   1    -0.01   0.00   0.01     0.01  -0.00  -0.01    -0.04  -0.00   0.10
  35   1    -0.02   0.00   0.09    -0.02   0.00   0.11    -0.01  -0.02   0.03
  36   1    -0.03   0.01   0.10    -0.02   0.01   0.14     0.03  -0.03  -0.08
  37   1    -0.01   0.00   0.02     0.00  -0.00   0.03     0.04  -0.02  -0.07
                      7                      8                      9
                        a                      a                      a 
 Frequencies --   117.1969               154.9555               175.7247
 Red. masses --    13.5599                 9.2353                10.4797
 Frc consts  --     0.0000                 0.0000                 0.0000
 IR Inten    --    16.6363                 1.2125                 2.0204
 Raman Activ --     0.0000                 0.0000                 0.0000
 Depolar     --     0.0000                 0.0000                 0.0000
 Atom AN      X      Y      Z        X      Y      Z        X      Y      Z
   1   7    -0.07  -0.50  -0.04     0.11  -0.09  -0.02     0.09   0.06  -0.23
   2   6    -0.21  -0.19  -0.24    -0.25   0.24  -0.06     0.16  -0.24   0.07
   3   6    -0.02   0.02  -0.19    -0.02   0.14  -0.07    -0.11  -0.31   0.04
   4   8     0.01   0.07  -0.01     0.05  -0.01   0.11    -0.20  -0.05  -0.07
   5   6    -0.01   0.07   0.06    -0.03  -0.06   0.14    -0.03   0.11   0.11
   6   6     0.01   0.05   0.01    -0.03  -0.06   0.17    -0.04   0.14   0.16
   7   6     0.05   0.04  -0.05    -0.08  -0.05   0.20     0.05   0.12   0.13
   8   6     0.05   0.02   0.00    -0.04  -0.03  -0.04     0.12   0.05  -0.06
   9   6    -0.00   0.03   0.00     0.00  -0.05   0.05    -0.04   0.11   0.12
  10   6    -0.03   0.04   0.03     0.06  -0.06  -0.15    -0.03   0.11   0.03
  11   6    -0.06   0.06   0.17     0.06  -0.07  -0.18    -0.03   0.10   0.11
  12   6    -0.05   0.07   0.17    -0.00  -0.07   0.03    -0.02   0.10   0.14
  13   6    -0.01   0.01  -0.12     0.11  -0.04  -0.24    -0.03   0.05  -0.24
  14   6     0.02  -0.01  -0.21     0.04   0.01   0.05    -0.03  -0.01  -0.16
  15   6     0.01  -0.01  -0.10    -0.01   0.02   0.20    -0.05  -0.01   0.07
  16   6     0.00  -0.04  -0.03    -0.05   0.07   0.31    -0.06  -0.08   0.21
  17   6    -0.01  -0.03   0.16    -0.01   0.06  -0.04     0.05  -0.11   0.06
  18   6    -0.00  -0.01   0.19     0.03   0.02  -0.33     0.15  -0.07  -0.19
  19   6     0.02   0.01   0.06    -0.00  -0.01  -0.13     0.10   0.01  -0.08
  20   6     0.01   0.01  -0.02    -0.01  -0.01   0.06    -0.01   0.04   0.06
  21  17     0.22   0.27   0.12     0.04   0.01  -0.00    -0.05  -0.01  -0.11
  22   1     0.07  -0.10  -0.04     0.16   0.02  -0.04    -0.02  -0.01  -0.11
  23   1     0.01  -0.22   0.05     0.05  -0.16   0.04     0.01   0.03  -0.09
  24   1    -0.09  -0.11  -0.00    -0.04  -0.01   0.00     0.05   0.07  -0.05
  25   1    -0.07   0.00  -0.10    -0.08   0.20  -0.04     0.06  -0.13   0.07
  26   1    -0.13  -0.09  -0.10    -0.20   0.03  -0.00     0.12  -0.04   0.04
  27   1     0.00   0.02  -0.03     0.03   0.05  -0.06    -0.09  -0.13   0.01
  28   1     0.01   0.04  -0.10    -0.00   0.04  -0.02     0.01  -0.12   0.03
  29   1     0.02   0.01  -0.03    -0.04  -0.02   0.10     0.02   0.05   0.05
  30   1     0.02   0.00  -0.01    -0.01  -0.01  -0.03     0.05   0.01  -0.05
  31   1    -0.03   0.02   0.07     0.03  -0.02  -0.09    -0.01   0.03   0.03
  32   1    -0.02   0.02   0.07    -0.00  -0.02   0.02     0.00   0.02   0.03
  33   1    -0.01   0.00  -0.05     0.06  -0.02  -0.13    -0.01   0.01  -0.14
  34   1     0.01  -0.01  -0.10     0.01   0.01   0.02    -0.01  -0.01  -0.10
  35   1     0.00  -0.02  -0.03    -0.02   0.03   0.16    -0.04  -0.04   0.11
  36   1    -0.01  -0.01   0.07    -0.00   0.02  -0.03     0.02  -0.05   0.03
  37   1    -0.00  -0.00   0.09     0.02   0.00  -0.19     0.08  -0.03  -0.12
                     10                     11                     12
                        a                      a                      a 
 Frequencies --   198.3833               202.9579               245.3898
 Red. masses --     9.8594                 9.2933                10.3061
 Frc consts  --     0.0000                 0.0000                 0.0000
 IR Inten    --     1.2242                 2.2584                 0.7319
 Raman Activ --     0.0000                 0.0000                 0.0000
 Depolar     --     0.0000                 0.0000                 0.0000
 Atom AN      X      Y      Z        X      Y      Z        X      Y      Z
   1   7     0.05  -0.03  -0.07     0.12  -0.00  -0.14    -0.05  -0.00   0.07
   2   6    -0.08   0.00   0.03    -0.32   0.13   0.15     0.02  -0.01   0.01
   3   6    -0.05  -0.10   0.01    -0.19  -0.26   0.07     0.01  -0.03  -0.00
   4   8    -0.07  -0.02   0.06    -0.23  -0.08   0.20    -0.01  -0.03  -0.12
   5   6     0.00   0.02  -0.05    -0.03   0.03   0.05     0.02   0.00  -0.12
   6   6     0.03   0.03  -0.18     0.00   0.07  -0.03     0.06   0.01  -0.33
   7   6    -0.03   0.05   0.28     0.11   0.05  -0.18     0.06   0.01  -0.21
   8   6    -0.02   0.03   0.25     0.11   0.02  -0.07    -0.04   0.03   0.26
   9   6     0.09   0.01  -0.41     0.01   0.07   0.02     0.03   0.02  -0.17
  10   6     0.04   0.03  -0.15     0.04   0.06  -0.06     0.05   0.01  -0.23
  11   6    -0.01   0.03   0.11     0.09   0.03  -0.22    -0.01   0.02   0.09
  12   6    -0.01   0.02   0.10     0.05   0.02  -0.07    -0.06   0.02   0.30
  13   6    -0.05   0.03   0.17    -0.02   0.05   0.09     0.04  -0.00  -0.24
  14   6    -0.05   0.01   0.17    -0.03   0.01   0.14    -0.04   0.01   0.14
  15   6     0.03  -0.01  -0.16     0.01   0.00   0.02    -0.07   0.02   0.28
  16   6    -0.02  -0.02   0.11     0.07  -0.07  -0.19    -0.03  -0.02   0.09
  17   6     0.00  -0.03   0.11     0.09  -0.08  -0.05     0.08  -0.04  -0.30
  18   6     0.05  -0.02  -0.04     0.07  -0.03   0.21     0.03  -0.01  -0.01
  19   6     0.08  -0.00  -0.21     0.06   0.02   0.13    -0.05   0.02   0.28
  20   6     0.10  -0.01  -0.42     0.02   0.03   0.08    -0.04   0.02   0.16
  21  17    -0.00  -0.00  -0.02     0.00  -0.02  -0.06     0.01  -0.01   0.02
  22   1     0.04   0.00  -0.04     0.16   0.04  -0.13    -0.01  -0.00   0.01
  23   1     0.01  -0.05  -0.03     0.04  -0.16  -0.03    -0.00   0.00   0.05
  24   1     0.01   0.01  -0.01    -0.02   0.08  -0.02    -0.03  -0.00   0.02
  25   1    -0.02   0.04   0.01    -0.09   0.18   0.05     0.00  -0.01  -0.01
  26   1    -0.06  -0.01   0.03    -0.21   0.01   0.11     0.01   0.00   0.01
  27   1    -0.03  -0.05  -0.02    -0.09  -0.12  -0.07    -0.00  -0.01   0.00
  28   1     0.01  -0.05   0.01     0.01  -0.13   0.07    -0.00  -0.01   0.01
  29   1    -0.03   0.03   0.21     0.05   0.02  -0.10     0.03   0.00  -0.10
  30   1    -0.03   0.01   0.20     0.04   0.00  -0.05    -0.02   0.01   0.14
  31   1    -0.02   0.01   0.11     0.04   0.01  -0.11    -0.02   0.01   0.09
  32   1    -0.01   0.00   0.09     0.02  -0.00  -0.02    -0.04   0.00   0.21
  33   1    -0.04   0.02   0.15    -0.02   0.02   0.05     0.02  -0.00  -0.13
  34   1    -0.04   0.01   0.15    -0.02   0.00   0.07    -0.02   0.00   0.07
  35   1    -0.03  -0.01   0.11     0.02  -0.03  -0.12    -0.01  -0.01   0.01
  36   1    -0.01  -0.01   0.10     0.04  -0.03  -0.04     0.05  -0.02  -0.21
  37   1     0.01  -0.01   0.03     0.02  -0.01   0.10     0.02  -0.01  -0.04
                     13                     14                     15
                        a                      a                      a 
 Frequencies --   258.1004               282.6155               304.1187
 Red. masses --    11.2125                 4.9295                11.0135
 Frc consts  --     0.0000                 0.0000                 0.0000
 IR Inten    --    19.5343                 8.3422                 8.9394
 Raman Activ --     0.0000                 0.0000                 0.0000
 Depolar     --     0.0000                 0.0000                 0.0000
 Atom AN      X      Y      Z        X      Y      Z        X      Y      Z
   1   7     0.23  -0.08  -0.33     0.20  -0.17   0.05     0.03   0.01  -0.11
   2   6     0.12  -0.18  -0.07    -0.15   0.11   0.04    -0.09  -0.02   0.06
   3   6     0.08   0.04  -0.00    -0.15   0.05   0.01     0.11  -0.13   0.05
   4   8     0.15   0.21   0.47    -0.14  -0.08  -0.10     0.13   0.16   0.41
   5   6     0.00   0.02   0.22    -0.03  -0.03  -0.11     0.10   0.02  -0.20
   6   6     0.02  -0.04   0.06    -0.02   0.01  -0.07     0.10  -0.03  -0.24
   7   6    -0.04  -0.03  -0.03     0.03  -0.00  -0.01     0.02  -0.02  -0.15
   8   6    -0.05  -0.00  -0.06     0.02  -0.01   0.07    -0.08   0.02   0.20
   9   6     0.01  -0.06  -0.05    -0.00   0.03   0.02     0.00  -0.04   0.01
  10   6    -0.00  -0.06  -0.16     0.01   0.03   0.07    -0.08  -0.02   0.26
  11   6    -0.02  -0.01  -0.11     0.02   0.00   0.06    -0.06   0.02   0.13
  12   6    -0.07   0.04   0.20     0.02  -0.04  -0.09     0.05   0.04  -0.25
  13   6    -0.02  -0.04  -0.03     0.03   0.03  -0.00    -0.04  -0.03   0.11
  14   6    -0.06  -0.00   0.15     0.06   0.01  -0.10     0.04  -0.04  -0.29
  15   6    -0.03  -0.01   0.02     0.03   0.01  -0.00    -0.01  -0.02  -0.01
  16   6    -0.01   0.04  -0.10     0.03  -0.01   0.06    -0.07   0.04   0.18
  17   6    -0.07   0.05  -0.08     0.07  -0.03   0.00    -0.06   0.04  -0.04
  18   6    -0.12   0.04   0.07     0.09  -0.02  -0.04    -0.03   0.02  -0.20
  19   6    -0.08  -0.01   0.02     0.05   0.00   0.04    -0.07  -0.00   0.08
  20   6    -0.02  -0.02  -0.02     0.02   0.02   0.03    -0.03  -0.02   0.07
  21  17    -0.08   0.05  -0.06    -0.12   0.07   0.05     0.00  -0.01  -0.03
  22   1    -0.05  -0.06   0.03    -0.14  -0.09   0.43     0.05   0.02  -0.10
  23   1    -0.01   0.10  -0.27    -0.09   0.22  -0.35     0.01  -0.06  -0.03
  24   1     0.23  -0.06  -0.11     0.42  -0.29  -0.06    -0.02   0.06  -0.02
  25   1     0.05  -0.08   0.03    -0.04   0.11   0.03    -0.03   0.05  -0.00
  26   1     0.07  -0.04  -0.05    -0.12  -0.00  -0.02    -0.07  -0.01   0.06
  27   1     0.01   0.01   0.03    -0.02   0.03  -0.01    -0.01  -0.07  -0.03
  28   1     0.08   0.04  -0.07    -0.07   0.01   0.02     0.12  -0.06   0.00
  29   1    -0.01  -0.02  -0.03     0.02   0.01  -0.01     0.00  -0.02  -0.06
  30   1    -0.01  -0.00  -0.04    -0.00  -0.00   0.03    -0.03   0.01   0.13
  31   1    -0.01  -0.00  -0.06     0.01  -0.00   0.04    -0.04   0.01   0.07
  32   1    -0.03   0.02   0.10     0.01  -0.01  -0.03     0.02   0.01  -0.09
  33   1    -0.00  -0.01   0.01     0.01   0.01  -0.01    -0.01  -0.01   0.02
  34   1    -0.03   0.00   0.10     0.02   0.00  -0.06     0.04  -0.02  -0.20
  35   1     0.01   0.02  -0.05    -0.00  -0.01   0.03    -0.02   0.02   0.11
  36   1    -0.02   0.02  -0.04     0.02  -0.01  -0.00    -0.01   0.02  -0.03
  37   1    -0.05   0.02   0.05     0.03  -0.01  -0.04     0.00   0.00  -0.13
                     16                     17                     18
                        a                      a                      a 
 Frequencies --   339.1739               376.2653               394.3299
 Red. masses --     9.5963                10.2940                10.1510
 Frc consts  --     0.0000                 0.0000                 0.0000
 IR Inten    --     0.7679                 4.2818                 2.0675
 Raman Activ --     0.0000                 0.0000                 0.0000
 Depolar     --     0.0000                 0.0000                 0.0000
 Atom AN      X      Y      Z        X      Y      Z        X      Y      Z
   1   7     0.03  -0.02   0.20     0.01  -0.01   0.09     0.01   0.00   0.06
   2   6     0.02   0.14  -0.02    -0.02   0.05   0.04     0.05   0.03  -0.04
   3   6     0.33  -0.33  -0.13    -0.00  -0.21  -0.05    -0.04  -0.03  -0.07
   4   8     0.28  -0.10  -0.04    -0.11   0.23  -0.13    -0.08   0.02  -0.18
   5   6     0.18  -0.04   0.04     0.02   0.25  -0.12    -0.03   0.14   0.24
   6   6     0.08   0.09   0.08     0.05   0.00   0.05     0.03   0.06   0.01
   7   6    -0.04   0.14   0.05     0.02  -0.02   0.12     0.04   0.06  -0.24
   8   6    -0.03   0.18  -0.08     0.06  -0.15  -0.09    -0.06   0.01   0.23
   9   6    -0.01   0.05   0.03     0.00  -0.12  -0.01    -0.03  -0.00   0.11
  10   6    -0.01   0.05  -0.03    -0.02  -0.11  -0.03     0.07  -0.03   0.00
  11   6     0.04  -0.04  -0.00    -0.13   0.15   0.09     0.14   0.04  -0.34
  12   6     0.10  -0.01   0.05     0.01   0.27  -0.06     0.04   0.12   0.29
  13   6    -0.12  -0.03  -0.05     0.08  -0.08  -0.10     0.01  -0.05   0.25
  14   6    -0.16  -0.01   0.01     0.08  -0.13   0.12     0.10  -0.12  -0.11
  15   6    -0.18  -0.01  -0.03     0.15  -0.13   0.13     0.08  -0.11  -0.25
  16   6    -0.18  -0.08  -0.09     0.14   0.16  -0.05    -0.03   0.02   0.10
  17   6    -0.17  -0.10  -0.01    -0.05   0.23  -0.04    -0.11   0.04   0.05
  18   6    -0.08   0.00   0.01    -0.20   0.06   0.03    -0.08  -0.02  -0.22
  19   6    -0.08   0.11  -0.06    -0.07  -0.23  -0.07    -0.11  -0.08   0.10
  20   6    -0.06   0.09  -0.01     0.03  -0.24   0.03     0.01  -0.10  -0.03
  21  17    -0.01   0.01   0.04    -0.00   0.00   0.01     0.00   0.00   0.01
  22   1    -0.02  -0.01   0.19    -0.00  -0.00   0.07    -0.01  -0.00   0.05
  23   1    -0.01   0.06   0.02    -0.00   0.02   0.01     0.01   0.03   0.03
  24   1     0.05  -0.11   0.03     0.02  -0.04   0.02    -0.00  -0.03   0.01
  25   1    -0.02   0.13  -0.09    -0.01   0.05  -0.01     0.02  -0.01  -0.01
  26   1    -0.09   0.02   0.07    -0.04   0.01   0.05     0.03   0.01  -0.02
  27   1     0.03  -0.18  -0.18    -0.10  -0.15  -0.09    -0.04  -0.03  -0.04
  28   1     0.19  -0.20   0.04     0.09  -0.15   0.04    -0.00  -0.04   0.01
  29   1    -0.03   0.02   0.02     0.00  -0.00   0.06     0.02   0.01  -0.14
  30   1     0.00   0.05  -0.04     0.06  -0.06  -0.04     0.00  -0.00   0.12
  31   1     0.02  -0.01   0.00    -0.11   0.06   0.06     0.04   0.01  -0.24
  32   1     0.03   0.00   0.02     0.01   0.07  -0.02     0.01   0.03   0.10
  33   1    -0.05  -0.00  -0.02     0.03  -0.03  -0.07    -0.04  -0.01   0.17
  34   1    -0.04   0.01   0.02     0.00  -0.06   0.04     0.02  -0.03  -0.01
  35   1    -0.05  -0.03  -0.04     0.09   0.09  -0.04    -0.01   0.03   0.11
  36   1    -0.05  -0.04   0.01    -0.02   0.11  -0.02    -0.05   0.03   0.05
  37   1     0.01  -0.01   0.02    -0.13   0.04   0.03    -0.03  -0.01  -0.13
                     19                     20                     21
                        a                      a                      a 
 Frequencies --   405.3280               449.9034               458.6904
 Red. masses --    11.0588                10.7115                 9.9514
 Frc consts  --     0.0000                 0.0000                 0.0000
 IR Inten    --     1.3261                 2.0280                 0.1403
 Raman Activ --     0.0000                 0.0000                 0.0000
 Depolar     --     0.0000                 0.0000                 0.0000
 Atom AN      X      Y      Z        X      Y      Z        X      Y      Z
   1   7     0.01   0.00   0.07     0.04   0.01   0.09     0.02   0.02   0.06
   2   6     0.05   0.03  -0.03     0.11   0.06  -0.09     0.07   0.05  -0.07
   3   6     0.13  -0.15  -0.08     0.03  -0.08  -0.14    -0.00  -0.04  -0.09
   4   8     0.10  -0.04  -0.01    -0.03   0.28   0.12    -0.01   0.01   0.03
   5   6    -0.06  -0.10   0.06    -0.20   0.01  -0.14    -0.09  -0.01   0.26
   6   6    -0.02  -0.14   0.01    -0.18  -0.10  -0.12    -0.11   0.01   0.28
   7   6     0.11  -0.18  -0.02    -0.29  -0.12   0.01    -0.06  -0.01  -0.20
   8   6     0.08  -0.13   0.08    -0.25  -0.13  -0.08    -0.10  -0.04   0.05
   9   6    -0.03  -0.07   0.05     0.00   0.11   0.03     0.04   0.05  -0.09
  10   6    -0.29   0.00  -0.08     0.12   0.14  -0.00    -0.01   0.09   0.08
  11   6    -0.30  -0.06  -0.18     0.13   0.16  -0.03    -0.02   0.05   0.14
  12   6    -0.33  -0.04   0.05    -0.11  -0.03   0.06     0.00  -0.03  -0.21
  13   6    -0.20   0.16   0.02     0.13   0.16   0.06     0.02   0.09  -0.10
  14   6    -0.16   0.20  -0.08     0.14   0.08   0.01     0.01   0.02   0.04
  15   6     0.13   0.12  -0.06     0.09   0.05   0.03     0.08  -0.01  -0.04
  16   6     0.14   0.16   0.04     0.16  -0.20  -0.04     0.02  -0.04   0.30
  17   6     0.23   0.16   0.08     0.06  -0.19   0.13     0.09  -0.06  -0.32
  18   6     0.19   0.09  -0.02     0.05  -0.20  -0.04    -0.06  -0.05   0.19
  19   6     0.17  -0.01   0.06    -0.04   0.02  -0.05    -0.06  -0.01   0.13
  20   6     0.04   0.02   0.01     0.01   0.05   0.13     0.13  -0.04  -0.39
  21  17     0.00   0.00   0.01     0.00   0.00   0.01     0.00   0.00   0.00
  22   1    -0.00   0.00   0.05     0.01   0.01   0.05     0.01   0.01   0.04
  23   1     0.01   0.02   0.03     0.03   0.02   0.07     0.02   0.02   0.05
  24   1    -0.01  -0.03   0.01    -0.03  -0.04   0.02    -0.02  -0.03   0.01
  25   1     0.01   0.03  -0.04     0.03  -0.00  -0.02     0.02  -0.01  -0.01
  26   1    -0.01   0.01   0.03     0.05   0.02  -0.03     0.04   0.02  -0.04
  27   1    -0.00  -0.09  -0.08    -0.09  -0.11  -0.12    -0.03  -0.04  -0.07
  28   1     0.08  -0.09   0.01     0.14  -0.11  -0.00     0.04  -0.05   0.00
  29   1     0.05  -0.04  -0.02    -0.09  -0.03   0.04     0.01  -0.01  -0.16
  30   1    -0.01  -0.03   0.02    -0.11  -0.03  -0.03    -0.02  -0.01  -0.03
  31   1    -0.06  -0.02  -0.09     0.06   0.04   0.01     0.02   0.01   0.02
  32   1    -0.10   0.01   0.03    -0.02  -0.09   0.08     0.04  -0.02  -0.19
  33   1    -0.02   0.04   0.05     0.03   0.05   0.02    -0.00   0.03  -0.04
  34   1    -0.08   0.02  -0.02     0.04   0.02  -0.01    -0.02  -0.01   0.04
  35   1     0.03   0.04   0.03     0.03  -0.08  -0.05    -0.02  -0.01   0.21
  36   1     0.06   0.04   0.04     0.01  -0.03   0.06     0.04  -0.00  -0.18
  37   1     0.03   0.03  -0.03     0.06  -0.07  -0.02    -0.03  -0.01   0.13
                     22                     23                     24
                        a                      a                      a 
 Frequencies --   464.3577               478.4381               495.8902
 Red. masses --    10.8162                 9.8931                11.1379
 Frc consts  --     0.0000                 0.0000                 0.0000
 IR Inten    --     2.9361                 0.1876                 0.8058
 Raman Activ --     0.0000                 0.0000                 0.0000
 Depolar     --     0.0000                 0.0000                 0.0000
 Atom AN      X      Y      Z        X      Y      Z        X      Y      Z
   1   7     0.02   0.01   0.06    -0.01  -0.01  -0.01    -0.00  -0.00   0.00
   2   6     0.05   0.04  -0.04    -0.02  -0.01   0.02    -0.01  -0.00   0.01
   3   6    -0.08  -0.04  -0.08     0.01   0.00   0.03    -0.04  -0.00   0.01
   4   8    -0.12   0.24  -0.01     0.01   0.01   0.01    -0.05   0.06  -0.04
   5   6    -0.09   0.14   0.00     0.01  -0.00  -0.01    -0.06  -0.00  -0.04
   6   6    -0.02  -0.13   0.05     0.03  -0.02  -0.08     0.01  -0.21   0.06
   7   6     0.16  -0.18   0.01     0.03  -0.03  -0.25    -0.05  -0.26  -0.00
   8   6     0.08   0.10   0.03    -0.09   0.02   0.29    -0.10  -0.07  -0.02
   9   6    -0.10  -0.23  -0.01    -0.06   0.02   0.37     0.25   0.05   0.06
  10   6     0.06  -0.34   0.04    -0.06   0.02   0.26     0.14   0.09  -0.01
  11   6    -0.03  -0.06   0.01     0.00   0.02  -0.00     0.12   0.24   0.03
  12   6     0.06   0.09  -0.01    -0.01   0.01  -0.01    -0.06   0.04  -0.02
  13   6     0.20  -0.27   0.04     0.06  -0.02  -0.32    -0.18  -0.23  -0.03
  14   6     0.08   0.16   0.02    -0.07   0.02   0.31    -0.17  -0.28  -0.02
  15   6    -0.23   0.22  -0.08     0.01  -0.00   0.01    -0.05  -0.20  -0.04
  16   6    -0.22   0.03  -0.02     0.05  -0.03  -0.18    -0.14   0.03  -0.02
  17   6     0.08  -0.07  -0.02    -0.03  -0.01   0.13    -0.11   0.08  -0.03
  18   6     0.15   0.01   0.05     0.02  -0.01  -0.06     0.17   0.36   0.01
  19   6     0.09   0.14   0.03     0.07   0.00  -0.33     0.17   0.22   0.06
  20   6    -0.18   0.17  -0.11     0.06  -0.00  -0.20     0.24   0.13   0.04
  21  17     0.00   0.00   0.00    -0.00   0.00  -0.00     0.00  -0.00  -0.00
  22   1     0.01   0.00   0.03    -0.00  -0.00  -0.01     0.00  -0.00  -0.00
  23   1     0.01   0.01   0.04    -0.01  -0.01  -0.02    -0.00  -0.00  -0.00
  24   1    -0.02  -0.03   0.01     0.01   0.01  -0.00    -0.00   0.00   0.00
  25   1     0.02  -0.01   0.01    -0.01   0.01   0.00    -0.00  -0.00   0.01
  26   1     0.03   0.02  -0.03    -0.02  -0.01   0.01     0.00  -0.00   0.00
  27   1    -0.09  -0.07  -0.07     0.01   0.01   0.01    -0.03  -0.01   0.00
  28   1     0.06  -0.07   0.01    -0.00   0.01   0.00    -0.00  -0.01   0.01
  29   1     0.03  -0.07  -0.02     0.00  -0.01  -0.06    -0.03  -0.10  -0.02
  30   1    -0.03   0.04  -0.01    -0.07   0.02   0.25    -0.11   0.00  -0.04
  31   1    -0.08   0.00  -0.02     0.02  -0.00  -0.10     0.06   0.06   0.03
  32   1     0.03   0.01  -0.02     0.01   0.00  -0.05    -0.00  -0.04   0.01
  33   1     0.14  -0.10   0.03     0.05  -0.01  -0.25    -0.12  -0.05  -0.01
  34   1     0.10   0.13   0.03    -0.03   0.01   0.11    -0.06  -0.08   0.01
  35   1    -0.12  -0.04   0.01     0.01  -0.01  -0.03     0.00   0.05   0.01
  36   1     0.04  -0.08  -0.00    -0.03   0.01   0.15    -0.01  -0.05   0.00
  37   1     0.06  -0.00   0.03    -0.01   0.00   0.08     0.09   0.09   0.00
                     25                     26                     27
                        a                      a                      a 
 Frequencies --   506.6461               519.1615               555.7597
 Red. masses --     9.6691                10.3757                10.4655
 Frc consts  --     0.0000                 0.0000                 0.0000
 IR Inten    --     0.2337                 0.8759                 0.3528
 Raman Activ --     0.0000                 0.0000                 0.0000
 Depolar     --     0.0000                 0.0000                 0.0000
 Atom AN      X      Y      Z        X      Y      Z        X      Y      Z
   1   7    -0.03  -0.01  -0.06     0.05   0.03   0.09    -0.05  -0.03  -0.08
   2   6    -0.08  -0.06   0.10     0.12   0.10  -0.15    -0.10  -0.10   0.15
   3   6     0.07  -0.01   0.12    -0.09   0.02  -0.17     0.24   0.01   0.17
   4   8     0.06   0.02  -0.08    -0.07   0.01   0.26     0.15   0.15  -0.14
   5   6     0.08   0.02  -0.14    -0.12  -0.10  -0.02    -0.04  -0.04  -0.33
   6   6    -0.00  -0.02   0.30    -0.17   0.14   0.02    -0.16   0.02   0.07
   7   6    -0.04  -0.02  -0.11     0.14   0.08  -0.04     0.01  -0.06   0.08
   8   6    -0.10   0.08   0.06     0.19  -0.17   0.12     0.09  -0.24  -0.03
   9   6     0.02  -0.05   0.08    -0.15   0.14  -0.04    -0.16   0.11   0.20
  10   6     0.04  -0.06  -0.32     0.07   0.10  -0.11     0.07   0.11   0.04
  11   6    -0.11   0.04   0.21     0.10  -0.10   0.18     0.14   0.05  -0.09
  12   6     0.01   0.06  -0.13     0.07  -0.20  -0.11    -0.05  -0.05   0.15
  13   6     0.05   0.01  -0.10     0.01   0.05  -0.09     0.07   0.09   0.02
  14   6    -0.02   0.09   0.16    -0.00  -0.12   0.11     0.08   0.00   0.01
  15   6     0.13   0.03  -0.33    -0.10  -0.08  -0.13    -0.10   0.02  -0.19
  16   6     0.10  -0.08  -0.04    -0.18   0.16  -0.14    -0.22   0.10   0.11
  17   6    -0.03  -0.06   0.18    -0.04   0.14   0.13     0.05   0.02  -0.17
  18   6     0.02  -0.10  -0.24     0.07   0.10  -0.14     0.00   0.02   0.13
  19   6    -0.13   0.07   0.26     0.10  -0.17   0.13     0.07  -0.15   0.02
  20   6     0.00   0.03   0.07    -0.12  -0.08   0.05    -0.10  -0.04  -0.15
  21  17    -0.00  -0.00  -0.01     0.01   0.00   0.00    -0.00  -0.00  -0.01
  22   1    -0.01  -0.00  -0.05     0.02   0.02   0.06    -0.02  -0.02  -0.07
  23   1    -0.02  -0.02  -0.05     0.04   0.02   0.09    -0.04  -0.02  -0.09
  24   1     0.03   0.04  -0.01    -0.06  -0.05   0.01     0.05   0.07  -0.01
  25   1    -0.03   0.03  -0.01     0.05  -0.05   0.01    -0.05   0.07  -0.05
  26   1    -0.07  -0.02   0.07     0.11   0.04  -0.10    -0.12  -0.05   0.12
  27   1     0.03   0.02   0.07    -0.05  -0.03  -0.11     0.04   0.00   0.10
  28   1    -0.00   0.03   0.01     0.03  -0.04  -0.02     0.07   0.03   0.01
  29   1     0.00  -0.04  -0.19     0.11   0.08  -0.05     0.06   0.03  -0.01
  30   1    -0.01   0.02  -0.11     0.10  -0.06   0.01     0.05  -0.07  -0.05
  31   1    -0.07   0.02   0.17     0.06  -0.04   0.12     0.07   0.01  -0.03
  32   1    -0.00   0.03  -0.03     0.03  -0.10  -0.03    -0.02  -0.06   0.12
  33   1     0.01   0.00   0.09    -0.05   0.03  -0.01    -0.01   0.03   0.01
  34   1    -0.04   0.04   0.23    -0.02  -0.03   0.10     0.03   0.02   0.04
  35   1     0.01  -0.03   0.03    -0.04   0.05  -0.05    -0.10   0.01   0.12
  36   1    -0.03   0.01   0.11    -0.01  -0.01   0.08     0.03  -0.03  -0.05
  37   1     0.05  -0.04  -0.15    -0.03   0.04  -0.10    -0.05   0.02   0.09
                     28                     29                     30
                        a                      a                      a 
 Frequencies --   592.2110               642.8499               651.2865
 Red. masses --    10.7902                11.2658                10.8614
 Frc consts  --     0.0000                 0.0000                 0.0000
 IR Inten    --     0.2538                 4.7589                 1.2323
 Raman Activ --     0.0000                 0.0000                 0.0000
 Depolar     --     0.0000                 0.0000                 0.0000
 Atom AN      X      Y      Z        X      Y      Z        X      Y      Z
   1   7    -0.04  -0.02  -0.06     0.03   0.02   0.02    -0.01  -0.01  -0.01
   2   6    -0.06  -0.08   0.10     0.02   0.05  -0.07    -0.01  -0.02   0.03
   3   6     0.20  -0.01   0.12    -0.15  -0.02  -0.07     0.07   0.00   0.03
   4   8     0.12   0.02  -0.23    -0.04  -0.24   0.12     0.02   0.06  -0.07
   5   6    -0.09   0.05   0.45     0.16   0.05   0.00    -0.07  -0.00   0.16
   6   6    -0.06  -0.06   0.01     0.20  -0.18  -0.13     0.01   0.04  -0.34
   7   6     0.02  -0.15  -0.11     0.12  -0.30   0.15    -0.12   0.11   0.19
   8   6    -0.02  -0.23   0.10     0.08  -0.21  -0.07     0.01   0.03  -0.22
   9   6     0.04   0.02  -0.33     0.11  -0.03   0.10    -0.02   0.01  -0.15
  10   6     0.06   0.09   0.01     0.02   0.14   0.09    -0.10  -0.02   0.41
  11   6     0.05   0.15   0.09     0.10   0.23   0.01    -0.03  -0.05  -0.05
  12   6     0.03   0.06  -0.14     0.13   0.18   0.03    -0.06  -0.03   0.02
  13   6     0.05   0.10   0.04    -0.04   0.19  -0.11     0.08  -0.08  -0.20
  14   6     0.05   0.07  -0.03    -0.14   0.29   0.03     0.01  -0.09   0.23
  15   6    -0.17   0.08   0.22    -0.03   0.14  -0.20     0.07  -0.06  -0.26
  16   6    -0.12   0.04  -0.18    -0.10  -0.02   0.02     0.02   0.01  -0.01
  17   6    -0.04   0.00   0.16    -0.15  -0.04  -0.06     0.05   0.02   0.08
  18   6     0.03  -0.03  -0.11    -0.17  -0.11  -0.02     0.09   0.03  -0.06
  19   6     0.04  -0.11   0.01    -0.09  -0.13   0.10    -0.06   0.07   0.43
  20   6    -0.10  -0.01   0.03    -0.03  -0.00   0.02     0.01  -0.00  -0.05
  21  17    -0.00  -0.00  -0.00     0.00   0.00   0.00    -0.00  -0.00  -0.00
  22   1    -0.03  -0.02  -0.04     0.02   0.01   0.04    -0.01  -0.01  -0.01
  23   1    -0.03  -0.01  -0.07     0.02   0.01   0.04    -0.01  -0.00  -0.02
  24   1     0.05   0.05  -0.01    -0.03  -0.04  -0.00     0.01   0.01  -0.00
  25   1    -0.04   0.06  -0.05     0.02  -0.04   0.04    -0.01   0.02  -0.02
  26   1    -0.10  -0.04   0.09     0.06   0.02  -0.06    -0.03  -0.01   0.03
  27   1     0.05  -0.00   0.07     0.04   0.04  -0.02    -0.00  -0.01   0.01
  28   1     0.03   0.01   0.02    -0.10   0.02  -0.02     0.03  -0.00   0.01
  29   1     0.02  -0.02   0.00     0.01  -0.10   0.06    -0.03   0.04   0.09
  30   1    -0.02  -0.06   0.07     0.01  -0.06  -0.03     0.02   0.01  -0.11
  31   1     0.03   0.04  -0.01     0.04   0.07  -0.02     0.02  -0.02  -0.16
  32   1     0.04  -0.00  -0.15     0.03   0.07   0.01     0.00  -0.01  -0.08
  33   1     0.01   0.03  -0.01     0.01   0.05  -0.02     0.03  -0.02  -0.11
  34   1     0.04   0.03  -0.07    -0.04   0.09   0.05    -0.00  -0.02   0.09
  35   1    -0.03  -0.02  -0.17    -0.06  -0.02   0.05     0.00   0.01   0.03
  36   1    -0.00  -0.03   0.03    -0.05   0.01  -0.02     0.02  -0.01  -0.00
  37   1    -0.00  -0.01  -0.10    -0.07  -0.03  -0.03     0.06   0.00  -0.13
                     31                     32                     33
                        a                      a                      a 
 Frequencies --   676.1472               679.3585               693.0209
 Red. masses --    11.3582                10.8328                11.3118
 Frc consts  --     0.0000                 0.0000                 0.0000
 IR Inten    --     2.2480                 3.7187                19.7525
 Raman Activ --     0.0000                 0.0000                 0.0000
 Depolar     --     0.0000                 0.0000                 0.0000
 Atom AN      X      Y      Z        X      Y      Z        X      Y      Z
   1   7     0.01   0.01   0.01    -0.00  -0.01   0.01    -0.03  -0.03  -0.01
   2   6     0.02   0.00  -0.02    -0.01   0.01   0.01    -0.03  -0.03   0.08
   3   6     0.02  -0.04  -0.02    -0.06   0.03   0.00    -0.00   0.07   0.05
   4   8     0.03  -0.13   0.06    -0.04   0.11   0.01    -0.06   0.40  -0.19
   5   6    -0.07  -0.12  -0.09     0.06  -0.00  -0.33    -0.16  -0.03   0.15
   6   6    -0.00  -0.05   0.09    -0.04  -0.02   0.33     0.02  -0.10  -0.11
   7   6     0.25  -0.04   0.05     0.06  -0.05   0.03     0.29  -0.14   0.06
   8   6     0.19   0.21   0.05     0.02   0.01   0.06     0.19   0.18   0.00
   9   6     0.07   0.01  -0.06     0.09  -0.03  -0.27     0.06  -0.01   0.06
  10   6    -0.03   0.05   0.06    -0.05   0.03   0.26     0.01   0.06  -0.05
  11   6    -0.16   0.21  -0.09     0.14  -0.11  -0.15     0.10  -0.24   0.09
  12   6    -0.46  -0.03  -0.04     0.11  -0.05   0.21     0.06  -0.27  -0.04
  13   6     0.26   0.15   0.05    -0.13   0.01   0.00    -0.10   0.12  -0.05
  14   6     0.33  -0.10   0.09    -0.17   0.10  -0.02    -0.13   0.11  -0.03
  15   6    -0.02  -0.07   0.07    -0.03   0.06   0.27     0.11  -0.00  -0.06
  16   6    -0.08  -0.12  -0.05     0.10  -0.02  -0.14     0.12  -0.11   0.08
  17   6    -0.34  -0.10  -0.03    -0.05   0.02   0.15    -0.25  -0.04  -0.09
  18   6    -0.10   0.07  -0.06    -0.03  -0.05  -0.16    -0.19   0.01  -0.00
  19   6    -0.03   0.07   0.04    -0.09  -0.01   0.21    -0.06   0.04  -0.06
  20   6     0.07   0.02  -0.06     0.08  -0.02  -0.31     0.06   0.02   0.11
  21  17     0.00   0.00   0.00    -0.00  -0.00  -0.00    -0.00  -0.00  -0.00
  22   1     0.00   0.00   0.01     0.01   0.00  -0.00    -0.01  -0.01  -0.04
  23   1     0.01   0.01   0.01    -0.00  -0.01  -0.00    -0.02  -0.03  -0.05
  24   1    -0.01  -0.01   0.00    -0.00   0.00   0.00     0.03   0.04   0.00
  25   1     0.00   0.01  -0.01     0.00  -0.02   0.02    -0.01  -0.01   0.01
  26   1     0.00   0.00   0.01     0.02   0.01  -0.02    -0.02  -0.01   0.02
  27   1     0.03   0.01  -0.00    -0.04  -0.01  -0.01    -0.13  -0.07  -0.01
  28   1    -0.02   0.01  -0.02     0.02  -0.01   0.01     0.12  -0.06   0.05
  29   1     0.07  -0.01  -0.02     0.04  -0.03  -0.14     0.06  -0.04   0.09
  30   1     0.06   0.06  -0.02     0.04  -0.01  -0.13     0.03   0.05   0.06
  31   1    -0.02   0.05  -0.02     0.05  -0.03  -0.02     0.11  -0.09   0.01
  32   1    -0.12  -0.02  -0.02     0.03  -0.03   0.07     0.04  -0.14  -0.03
  33   1     0.08   0.04  -0.02    -0.00  -0.01  -0.14    -0.04   0.04   0.03
  34   1     0.11  -0.02  -0.01    -0.03   0.01  -0.14    -0.08   0.00   0.03
  35   1     0.01  -0.00  -0.02     0.04  -0.00  -0.08     0.07   0.01   0.03
  36   1    -0.09  -0.04  -0.01    -0.01   0.03   0.01    -0.08   0.05  -0.03
  37   1     0.02   0.00  -0.02    -0.01  -0.01  -0.08    -0.03  -0.01  -0.00
                     34                     35                     36
                        a                      a                      a 
 Frequencies --   737.1055               754.2219               761.0198
 Red. masses --    10.9665                10.1334                 4.8837
 Frc consts  --     0.0000                 0.0000                 0.0000
 IR Inten    --     2.2519                 0.4901                 4.2974
 Raman Activ --     0.0000                 0.0000                 0.0000
 Depolar     --     0.0000                 0.0000                 0.0000
 Atom AN      X      Y      Z        X      Y      Z        X      Y      Z
   1   7     0.00   0.00  -0.01     0.00   0.00  -0.00    -0.00  -0.00   0.00
   2   6     0.02  -0.01  -0.01     0.00  -0.00  -0.00     0.01  -0.01   0.00
   3   6     0.08  -0.01   0.00     0.00  -0.00  -0.00     0.02   0.00  -0.00
   4   8     0.04  -0.10   0.03    -0.00  -0.00   0.00    -0.01   0.01  -0.04
   5   6    -0.16  -0.11   0.01    -0.02  -0.00   0.06    -0.04   0.01   0.18
   6   6    -0.09  -0.02  -0.02     0.04  -0.01  -0.20     0.04  -0.01  -0.20
   7   6     0.14   0.04   0.02    -0.01   0.00   0.07    -0.03   0.00   0.16
   8   6     0.11   0.23   0.01     0.03  -0.00  -0.14    -0.00   0.01   0.03
   9   6    -0.02   0.01  -0.02    -0.10   0.03   0.45    -0.04   0.01   0.15
  10   6     0.20  -0.00   0.05     0.06  -0.01  -0.24     0.03  -0.01  -0.14
  11   6     0.19   0.39   0.03    -0.02   0.02   0.09     0.01   0.00  -0.04
  12   6    -0.23  -0.07  -0.07     0.00  -0.01  -0.07     0.03  -0.01  -0.15
  13   6    -0.11  -0.40  -0.01    -0.02  -0.01   0.08    -0.04   0.01   0.18
  14   6    -0.19   0.01  -0.04     0.03  -0.01  -0.16    -0.01   0.00   0.07
  15   6     0.02   0.09  -0.02    -0.06   0.02   0.27    -0.02   0.00   0.11
  16   6     0.13   0.12   0.03     0.01   0.00  -0.01     0.05  -0.01  -0.19
  17   6     0.24   0.12   0.04    -0.03   0.01   0.17     0.01  -0.01  -0.09
  18   6    -0.14  -0.28  -0.01    -0.00  -0.01  -0.01     0.04  -0.01  -0.20
  19   6    -0.14  -0.06  -0.04    -0.06   0.01   0.24    -0.03   0.01   0.15
  20   6    -0.10   0.01   0.01     0.11  -0.03  -0.51     0.03  -0.01  -0.12
  21  17     0.00  -0.00   0.00    -0.00  -0.00  -0.00     0.00   0.00   0.00
  22   1    -0.01  -0.00  -0.00    -0.00  -0.00   0.00    -0.01  -0.00  -0.01
  23   1     0.00   0.02   0.01     0.00   0.00   0.00     0.00   0.01   0.00
  24   1    -0.00  -0.00  -0.00    -0.00  -0.00  -0.00     0.00   0.01   0.00
  25   1    -0.00   0.03  -0.03     0.00   0.00  -0.00    -0.00   0.01  -0.01
  26   1    -0.03  -0.01   0.02    -0.00  -0.00   0.00    -0.01  -0.00   0.02
  27   1     0.04   0.02   0.02     0.00   0.00   0.00    -0.00  -0.00   0.01
  28   1    -0.00   0.02  -0.01    -0.00   0.00  -0.00     0.01   0.00  -0.01
  29   1     0.04   0.02   0.02    -0.01   0.00   0.05     0.04  -0.01  -0.17
  30   1     0.06   0.06   0.02    -0.01   0.01   0.08     0.05  -0.01  -0.22
  31   1     0.10   0.09   0.02     0.01   0.00  -0.02    -0.04   0.01   0.19
  32   1    -0.04  -0.13   0.01    -0.01  -0.00   0.02    -0.04  -0.00   0.18
  33   1    -0.04  -0.11  -0.00    -0.02   0.00   0.08     0.05  -0.01  -0.24
  34   1    -0.02   0.04  -0.00    -0.02   0.01   0.09     0.06  -0.02  -0.26
  35   1     0.02   0.01   0.01     0.05  -0.01  -0.22    -0.08   0.02   0.35
  36   1     0.04   0.12   0.00     0.05  -0.01  -0.21    -0.07   0.02   0.31
  37   1    -0.11  -0.06  -0.02     0.04  -0.01  -0.22    -0.08   0.02   0.35
                     37                     38                     39
                        a                      a                      a 
 Frequencies --   802.0810               803.0566               818.9519
 Red. masses --     8.5229                 5.9282                 4.9021
 Frc consts  --     0.0000                 0.0000                 0.0000
 IR Inten    --     0.9912                 0.8224                19.6972
 Raman Activ --     0.0000                 0.0000                 0.0000
 Depolar     --     0.0000                 0.0000                 0.0000
 Atom AN      X      Y      Z        X      Y      Z        X      Y      Z
   1   7     0.02   0.02  -0.00    -0.02  -0.01   0.00     0.08   0.06  -0.00
   2   6     0.06  -0.03  -0.03    -0.04   0.03   0.02     0.18  -0.11  -0.11
   3   6     0.06  -0.03  -0.02    -0.00   0.03   0.02     0.09  -0.13  -0.07
   4   8    -0.04  -0.03   0.02     0.03  -0.00   0.01    -0.16  -0.04   0.11
   5   6    -0.08  -0.00   0.05     0.02  -0.05  -0.09    -0.11   0.08  -0.02
   6   6    -0.08   0.13   0.02     0.01   0.08  -0.08    -0.11  -0.03  -0.09
   7   6    -0.06   0.19  -0.07    -0.08   0.16   0.03     0.06  -0.12   0.11
   8   6     0.05  -0.29   0.01     0.02  -0.20   0.04     0.00   0.07   0.10
   9   6     0.02   0.03   0.00     0.05   0.02   0.01    -0.11   0.01  -0.04
  10   6     0.04  -0.13   0.06     0.07  -0.08  -0.05    -0.04   0.00   0.07
  11   6     0.02   0.02  -0.11    -0.04   0.05   0.18     0.02  -0.06   0.05
  12   6    -0.03  -0.01  -0.13    -0.13  -0.03   0.17     0.15   0.06   0.01
  13   6     0.00  -0.25   0.06     0.03  -0.19  -0.07    -0.00   0.04  -0.12
  14   6    -0.15   0.28   0.04    -0.05   0.18  -0.17     0.02  -0.05  -0.11
  15   6     0.11   0.10  -0.09    -0.01   0.09   0.17     0.03  -0.02   0.09
  16   6     0.13  -0.19   0.10     0.08  -0.10  -0.08     0.09  -0.05   0.04
  17   6    -0.31  -0.08  -0.03    -0.15  -0.05  -0.09    -0.04  -0.00  -0.02
  18   6    -0.02   0.22   0.06     0.02   0.10  -0.12     0.01   0.05  -0.04
  19   6     0.11  -0.05   0.00     0.05  -0.05   0.06     0.02   0.05  -0.06
  20   6     0.10   0.04   0.02     0.07   0.02   0.01    -0.04   0.01  -0.00
  21  17     0.00   0.00   0.00    -0.00  -0.00  -0.00     0.00  -0.00   0.00
  22   1    -0.04  -0.01   0.00     0.03   0.01  -0.00    -0.16  -0.06  -0.00
  23   1     0.02   0.06   0.04    -0.02  -0.05  -0.04     0.08   0.22   0.17
  24   1    -0.03  -0.01  -0.00     0.02   0.01   0.00    -0.10  -0.02  -0.00
  25   1     0.00   0.09  -0.05    -0.01  -0.06   0.03     0.02   0.33  -0.16
  26   1    -0.07  -0.02   0.06     0.05   0.02  -0.05    -0.27  -0.10   0.17
  27   1     0.03   0.02   0.06    -0.01  -0.02  -0.05     0.09   0.09   0.22
  28   1    -0.02   0.04  -0.05     0.02  -0.03   0.05    -0.11   0.14  -0.16
  29   1     0.05   0.14   0.05     0.04   0.09  -0.05     0.05  -0.05  -0.15
  30   1     0.07  -0.10   0.08     0.09  -0.08  -0.07    -0.00   0.02  -0.19
  31   1    -0.07   0.02   0.21     0.08  -0.01  -0.36     0.00  -0.01  -0.10
  32   1    -0.06  -0.01   0.23     0.06  -0.02  -0.37     0.04   0.02   0.02
  33   1     0.14  -0.11  -0.11     0.02  -0.06   0.25    -0.07   0.03   0.19
  34   1     0.04   0.13  -0.10    -0.02   0.11   0.17    -0.07  -0.03   0.18
  35   1     0.09  -0.02  -0.07    -0.00  -0.00   0.15     0.06   0.00  -0.03
  36   1    -0.06  -0.02  -0.12    -0.08  -0.00   0.16    -0.02   0.02   0.02
  37   1     0.07   0.04  -0.13    -0.03   0.04   0.23    -0.00   0.01   0.10
                     40                     41                     42
                        a                      a                      a 
 Frequencies --   824.5753               837.5821               870.3554
 Red. masses --     4.7762                 4.8448                 9.4790
 Frc consts  --     0.0000                 0.0000                 0.0000
 IR Inten    --     8.8597                45.9945                 9.4219
 Raman Activ --     0.0000                 0.0000                 0.0000
 Depolar     --     0.0000                 0.0000                 0.0000
 Atom AN      X      Y      Z        X      Y      Z        X      Y      Z
   1   7    -0.04  -0.02  -0.01     0.02   0.01   0.00    -0.08  -0.04  -0.06
   2   6    -0.06   0.04   0.04     0.03  -0.01  -0.02    -0.06   0.11  -0.01
   3   6    -0.03   0.05   0.03     0.02  -0.02  -0.00     0.21   0.04   0.12
   4   8     0.05   0.03  -0.06    -0.03  -0.00   0.04     0.07  -0.24   0.05
   5   6     0.03  -0.03   0.11    -0.00   0.01  -0.07    -0.15   0.09  -0.03
   6   6     0.09  -0.00  -0.16    -0.01  -0.01  -0.09    -0.30   0.01  -0.07
   7   6    -0.08   0.07   0.22    -0.01  -0.01   0.10     0.12  -0.20   0.03
   8   6    -0.06  -0.01   0.28    -0.02   0.01   0.11     0.03   0.05   0.02
   9   6     0.05  -0.01   0.01    -0.02   0.01   0.02    -0.33   0.04  -0.07
  10   6    -0.02   0.01   0.11     0.06  -0.01  -0.25    -0.02  -0.03  -0.00
  11   6     0.00   0.02  -0.07    -0.03   0.00   0.20     0.04   0.06  -0.00
  12   6    -0.05  -0.03  -0.09    -0.02   0.01   0.17     0.22   0.18   0.04
  13   6     0.03  -0.02  -0.08    -0.06   0.01   0.22    -0.02  -0.01  -0.01
  14   6     0.01   0.02  -0.06    -0.05   0.01   0.21     0.00  -0.08   0.00
  15   6    -0.02   0.01  -0.02     0.04  -0.01  -0.16     0.10  -0.01   0.02
  16   6    -0.08   0.03   0.13     0.01  -0.01   0.06     0.27  -0.16   0.07
  17   6     0.00   0.00   0.05    -0.02   0.00   0.04    -0.11  -0.01  -0.02
  18   6    -0.01  -0.02   0.04    -0.03   0.01   0.13     0.03   0.16   0.00
  19   6     0.05  -0.04  -0.22     0.03   0.00  -0.12     0.03   0.10  -0.01
  20   6     0.02  -0.01   0.01    -0.01   0.00   0.00    -0.17   0.02  -0.04
  21  17    -0.00  -0.00  -0.00     0.00   0.00  -0.00    -0.00   0.00   0.00
  22   1     0.06   0.02   0.00    -0.04  -0.01  -0.00     0.14   0.06   0.05
  23   1    -0.03  -0.08  -0.06     0.01   0.05   0.03    -0.05  -0.17  -0.10
  24   1     0.03  -0.01  -0.00    -0.02   0.00   0.00     0.05  -0.05  -0.03
  25   1    -0.01  -0.12   0.06     0.00   0.06  -0.03    -0.02  -0.20  -0.02
  26   1     0.10   0.04  -0.05    -0.06  -0.02   0.01     0.18   0.08  -0.08
  27   1    -0.04  -0.04  -0.08     0.02   0.01   0.03     0.10   0.00  -0.09
  28   1     0.05  -0.05   0.06    -0.02   0.02  -0.01     0.04  -0.05   0.12
  29   1     0.09  -0.02  -0.45     0.04  -0.02  -0.18     0.06  -0.02   0.02
  30   1     0.12  -0.04  -0.44     0.03  -0.01  -0.17    -0.08   0.04  -0.05
  31   1    -0.01   0.01   0.10     0.07  -0.02  -0.30    -0.09   0.05  -0.00
  32   1    -0.05  -0.01   0.15     0.08   0.00  -0.35     0.07   0.03   0.00
  33   1    -0.01  -0.00   0.11     0.07  -0.02  -0.36    -0.04   0.00  -0.01
  34   1    -0.02   0.02   0.15     0.08  -0.02  -0.38    -0.03  -0.05  -0.00
  35   1     0.04  -0.02  -0.28     0.03  -0.00  -0.08     0.12   0.00   0.03
  36   1     0.04  -0.02  -0.13     0.02  -0.00  -0.12    -0.04   0.05  -0.02
  37   1     0.00  -0.01  -0.04     0.05  -0.01  -0.21     0.05   0.03   0.00
                     43                     44                     45
                        a                      a                      a 
 Frequencies --   878.7745               890.4555               908.5480
 Red. masses --     4.2585                 3.4710                 3.4121
 Frc consts  --     0.0000                 0.0000                 0.0000
 IR Inten    --     0.5934                 0.2036                 0.1377
 Raman Activ --     0.0000                 0.0000                 0.0000
 Depolar     --     0.0000                 0.0000                 0.0000
 Atom AN      X      Y      Z        X      Y      Z        X      Y      Z
   1   7     0.01  -0.00   0.01    -0.00  -0.02  -0.03    -0.01  -0.02  -0.02
   2   6     0.00  -0.00  -0.00     0.04   0.02  -0.02     0.02   0.02  -0.01
   3   6     0.00   0.00  -0.01     0.02   0.02   0.06     0.01   0.02   0.03
   4   8    -0.00  -0.00   0.01    -0.03   0.00   0.01    -0.01  -0.01   0.00
   5   6     0.00  -0.00  -0.01    -0.00  -0.00   0.02    -0.00   0.00   0.01
   6   6    -0.01   0.00   0.00     0.01  -0.01  -0.08    -0.00  -0.00  -0.00
   7   6     0.02  -0.01  -0.06    -0.00  -0.00   0.04    -0.04   0.01   0.17
   8   6     0.01  -0.00  -0.03     0.00  -0.00   0.00     0.04  -0.01  -0.17
   9   6    -0.01   0.00   0.01    -0.01   0.01   0.07    -0.01  -0.00   0.02
  10   6     0.01  -0.00  -0.03     0.01   0.01   0.01     0.00  -0.00  -0.01
  11   6     0.01  -0.00  -0.03     0.07  -0.02  -0.31     0.01   0.00  -0.04
  12   6    -0.01   0.01   0.07    -0.07   0.00   0.28    -0.00   0.00   0.02
  13   6    -0.02   0.00   0.07    -0.00  -0.01   0.01     0.06  -0.01  -0.26
  14   6    -0.01  -0.00   0.03     0.01  -0.00  -0.07    -0.06   0.02   0.27
  15   6     0.03  -0.01  -0.12    -0.01   0.00   0.02     0.00  -0.00  -0.00
  16   6    -0.07   0.02   0.35     0.02  -0.00  -0.06    -0.00  -0.00   0.03
  17   6    -0.00   0.00   0.01    -0.00   0.00   0.01    -0.01   0.00   0.03
  18   6     0.07  -0.02  -0.34    -0.02  -0.00   0.05     0.01   0.00  -0.04
  19   6    -0.02   0.01   0.11     0.00  -0.00  -0.02     0.00  -0.00  -0.00
  20   6    -0.00   0.00  -0.00     0.00   0.00  -0.01    -0.00  -0.00  -0.01
  21  17    -0.00   0.00   0.00     0.00  -0.00  -0.00     0.00   0.00  -0.00
  22   1    -0.01  -0.01  -0.01    -0.05  -0.03  -0.02    -0.02  -0.01  -0.01
  23   1    -0.00   0.01  -0.00     0.01   0.05   0.03     0.00   0.01   0.01
  24   1     0.01   0.02   0.01    -0.03  -0.01  -0.01    -0.02  -0.01  -0.01
  25   1     0.00   0.01  -0.00     0.01   0.06  -0.01     0.00   0.01  -0.00
  26   1    -0.01  -0.01  -0.01    -0.05  -0.02  -0.04    -0.01  -0.00  -0.02
  27   1     0.00   0.00  -0.00    -0.01  -0.01  -0.01    -0.00  -0.01  -0.01
  28   1    -0.00  -0.00   0.00    -0.01  -0.02   0.06     0.00  -0.02   0.03
  29   1    -0.02   0.01   0.12     0.01  -0.01  -0.05     0.07  -0.03  -0.34
  30   1    -0.01   0.00   0.03    -0.00  -0.00   0.00    -0.07   0.02   0.33
  31   1    -0.01   0.00   0.07    -0.12   0.02   0.61    -0.02   0.00   0.07
  32   1     0.03   0.00  -0.13     0.12   0.01  -0.56     0.01  -0.00  -0.04
  33   1     0.03  -0.01  -0.14     0.01  -0.00  -0.04    -0.11   0.03   0.50
  34   1     0.01  -0.00  -0.02    -0.03   0.01   0.13     0.11  -0.03  -0.50
  35   1     0.12  -0.03  -0.55    -0.02   0.01   0.09     0.01  -0.00  -0.04
  36   1     0.00   0.00  -0.02     0.00   0.00  -0.01     0.01  -0.00  -0.05
  37   1    -0.12   0.03   0.55     0.02  -0.01  -0.09    -0.01   0.00   0.07
                     46                     47                     48
                        a                      a                      a 
 Frequencies --   910.0735               918.3475               920.8615
 Red. masses --     3.3718                 7.7497                 3.5406
 Frc consts  --     0.0000                 0.0000                 0.0000
 IR Inten    --     0.2597                 5.2623                 0.0882
 Raman Activ --     0.0000                 0.0000                 0.0000
 Depolar     --     0.0000                 0.0000                 0.0000
 Atom AN      X      Y      Z        X      Y      Z        X      Y      Z
   1   7    -0.00   0.00  -0.02     0.12   0.24   0.33    -0.00  -0.01  -0.01
   2   6     0.01   0.00  -0.00    -0.23  -0.24   0.13     0.01   0.01  -0.00
   3   6    -0.00  -0.00   0.01    -0.09  -0.15  -0.43     0.00   0.01   0.01
   4   8    -0.00   0.01  -0.00     0.12   0.06  -0.02    -0.01  -0.00   0.00
   5   6     0.01  -0.00   0.00    -0.00  -0.00   0.02     0.00  -0.00  -0.00
   6   6     0.01  -0.00  -0.03    -0.05   0.00  -0.03     0.00  -0.00  -0.01
   7   6     0.05  -0.01  -0.25     0.02  -0.03   0.02     0.01  -0.00  -0.06
   8   6    -0.06   0.01   0.25     0.00  -0.00   0.00    -0.01   0.00   0.05
   9   6     0.00   0.01   0.08    -0.07   0.02  -0.00    -0.00   0.00   0.04
  10   6     0.00   0.00  -0.02     0.01   0.01  -0.00     0.00  -0.00  -0.01
  11   6     0.00  -0.01  -0.03     0.03  -0.01  -0.04     0.00  -0.00  -0.02
  12   6    -0.01  -0.01   0.02     0.00   0.00   0.05    -0.00   0.00   0.01
  13   6     0.04  -0.01  -0.16     0.00  -0.02  -0.02     0.01  -0.00  -0.06
  14   6    -0.03   0.01   0.16    -0.00  -0.02   0.02    -0.01   0.00   0.06
  15   6    -0.00  -0.00   0.00     0.01   0.01   0.01    -0.01   0.00   0.06
  16   6    -0.00   0.01  -0.05     0.05  -0.03   0.01    -0.04   0.01   0.16
  17   6    -0.02   0.01   0.12    -0.01   0.00  -0.01     0.08  -0.02  -0.37
  18   6     0.00  -0.01  -0.03    -0.00   0.02   0.01    -0.04   0.01   0.16
  19   6    -0.00  -0.00   0.00     0.00   0.02  -0.01    -0.01   0.00   0.06
  20   6     0.02  -0.00  -0.05    -0.04   0.01  -0.02     0.03  -0.00  -0.10
  21  17     0.00   0.00   0.00    -0.01  -0.01   0.00     0.00   0.00  -0.00
  22   1    -0.00   0.00   0.01     0.17   0.11   0.01    -0.01  -0.00  -0.00
  23   1     0.00   0.00   0.01    -0.05  -0.12  -0.13     0.00   0.00   0.00
  24   1    -0.01  -0.02  -0.01     0.23   0.20   0.12    -0.01  -0.00  -0.00
  25   1     0.00   0.01  -0.00    -0.06  -0.15   0.05     0.00   0.01  -0.00
  26   1    -0.00   0.00   0.00     0.04  -0.01   0.12    -0.00  -0.00  -0.01
  27   1    -0.00  -0.00   0.01     0.06   0.08   0.08    -0.00  -0.00  -0.00
  28   1    -0.00  -0.00   0.00    -0.04   0.16  -0.36     0.00  -0.01   0.01
  29   1    -0.11   0.04   0.50     0.02   0.00  -0.02    -0.03   0.01   0.13
  30   1     0.10  -0.03  -0.49    -0.02   0.00  -0.01     0.03  -0.01  -0.12
  31   1    -0.01  -0.00   0.07    -0.01   0.00   0.09    -0.01   0.00   0.03
  32   1     0.01   0.00  -0.04     0.02   0.02  -0.10     0.00   0.00  -0.02
  33   1    -0.07   0.02   0.31    -0.02   0.00   0.04    -0.03   0.01   0.12
  34   1     0.07  -0.01  -0.31     0.01  -0.01  -0.03     0.03  -0.01  -0.12
  35   1    -0.03   0.00   0.09     0.02  -0.00   0.00     0.07  -0.02  -0.32
  36   1     0.05  -0.01  -0.22    -0.01   0.02   0.00    -0.15   0.04   0.69
  37   1    -0.02   0.00   0.06     0.01   0.00  -0.02     0.07  -0.02  -0.31
                     49                     50                     51
                        a                      a                      a 
 Frequencies --   928.3283               975.6540               995.4440
 Red. masses --     4.0417                 7.9467                10.1803
 Frc consts  --     0.0000                 0.0000                 0.0000
 IR Inten    --    27.5203                58.7000                 1.6423
 Raman Activ --     0.0000                 0.0000                 0.0000
 Depolar     --     0.0000                 0.0000                 0.0000
 Atom AN      X      Y      Z        X      Y      Z        X      Y      Z
   1   7    -0.10   0.13  -0.13     0.04   0.04  -0.23     0.00   0.02   0.02
   2   6     0.02   0.06  -0.13    -0.13  -0.03   0.15     0.00  -0.02  -0.03
   3   6     0.15  -0.21   0.13    -0.35  -0.11   0.04     0.01   0.01   0.00
   4   8    -0.18   0.12   0.01     0.46   0.10  -0.11    -0.04   0.00   0.00
   5   6    -0.02   0.04   0.01     0.06  -0.03   0.03    -0.04  -0.04  -0.00
   6   6     0.05  -0.01   0.01    -0.03   0.01  -0.01     0.09  -0.09   0.02
   7   6    -0.02   0.04   0.00     0.01  -0.02   0.01    -0.11   0.18  -0.04
   8   6     0.00  -0.00  -0.01    -0.00  -0.01  -0.00    -0.02   0.25  -0.02
   9   6     0.11  -0.00   0.02    -0.14   0.00  -0.03    -0.13  -0.35  -0.01
  10   6     0.01   0.01  -0.00     0.01   0.01  -0.00     0.03  -0.14   0.01
  11   6    -0.01  -0.08  -0.01     0.04   0.05  -0.00     0.20   0.26   0.03
  12   6    -0.05  -0.06   0.01    -0.02  -0.02   0.00    -0.01  -0.06   0.01
  13   6    -0.00   0.01   0.01    -0.01  -0.02   0.00    -0.02   0.25  -0.02
  14   6    -0.01   0.02  -0.00     0.01  -0.03   0.00    -0.11   0.19  -0.03
  15   6    -0.02  -0.01  -0.01     0.01   0.02  -0.00     0.06  -0.11   0.02
  16   6    -0.08   0.05  -0.01     0.10  -0.07   0.03    -0.04  -0.05  -0.01
  17   6     0.02   0.00   0.00    -0.02  -0.00  -0.01    -0.00  -0.05   0.00
  18   6    -0.02  -0.06  -0.01     0.03   0.08  -0.00     0.19   0.29   0.03
  19   6    -0.01  -0.02   0.00     0.01   0.01   0.01     0.03  -0.15   0.02
  20   6     0.08   0.00   0.02    -0.13  -0.00  -0.03    -0.13  -0.36  -0.01
  21  17     0.00   0.01   0.00     0.01   0.01   0.00    -0.00  -0.00  -0.00
  22   1     0.34   0.21   0.33    -0.02   0.02   0.20     0.02   0.01   0.00
  23   1    -0.01  -0.24  -0.01     0.12   0.13   0.25    -0.01  -0.02  -0.01
  24   1    -0.09  -0.35  -0.13    -0.28  -0.31  -0.13     0.02   0.01   0.01
  25   1    -0.05  -0.11  -0.22     0.04   0.02   0.32    -0.01   0.00  -0.04
  26   1     0.15   0.12   0.20     0.01   0.01   0.05    -0.01  -0.00   0.01
  27   1     0.07   0.04   0.30    -0.08  -0.01   0.07    -0.00   0.01   0.03
  28   1    -0.10   0.11  -0.09     0.02   0.04  -0.12     0.01   0.01  -0.01
  29   1    -0.01  -0.00  -0.02     0.01  -0.00  -0.00    -0.14  -0.06  -0.01
  30   1     0.02  -0.01   0.03    -0.03   0.01   0.00     0.07   0.05   0.01
  31   1     0.03  -0.03   0.03     0.02   0.01   0.01     0.08   0.07   0.02
  32   1    -0.00  -0.01  -0.06    -0.00  -0.00  -0.02     0.05  -0.18  -0.01
  33   1     0.02  -0.00  -0.01    -0.03   0.00  -0.01     0.07   0.05   0.01
  34   1     0.01   0.02  -0.01    -0.00  -0.02  -0.00    -0.14  -0.05  -0.03
  35   1    -0.03   0.00  -0.02     0.04  -0.01   0.01    -0.01  -0.01  -0.00
  36   1     0.01  -0.01   0.01    -0.01   0.02   0.01     0.05  -0.19   0.02
  37   1    -0.02  -0.01   0.01     0.01   0.02   0.01     0.07   0.08   0.01
                     52                     53                     54
                        a                      a                      a 
 Frequencies --  1049.7419              1064.9717              1083.9043
 Red. masses --     8.5533                 9.7860                 9.9568
 Frc consts  --     0.0000                 0.0000                 0.0000
 IR Inten    --    14.2267                11.8585                68.5668
 Raman Activ --     0.0000                 0.0000                 0.0000
 Depolar     --     0.0000                 0.0000                 0.0000
 Atom AN      X      Y      Z        X      Y      Z        X      Y      Z
   1   7    -0.15  -0.09   0.08     0.28   0.32   0.14    -0.09  -0.02   0.06
   2   6     0.30   0.11  -0.12    -0.29  -0.35  -0.44     0.19   0.02  -0.11
   3   6    -0.30  -0.05   0.07    -0.06   0.08   0.34    -0.37  -0.04   0.11
   4   8     0.09   0.13  -0.00     0.04  -0.03  -0.03     0.42  -0.07   0.01
   5   6     0.29  -0.10   0.05     0.04  -0.01   0.00    -0.22  -0.01  -0.03
   6   6     0.16   0.06   0.04     0.04   0.01   0.01    -0.22  -0.04  -0.05
   7   6     0.02  -0.04   0.00     0.00  -0.00  -0.00    -0.00   0.00   0.00
   8   6    -0.02  -0.11   0.00     0.00  -0.04   0.00     0.01   0.11  -0.00
   9   6    -0.17  -0.02  -0.04    -0.02   0.00  -0.00     0.06   0.08   0.01
  10   6     0.03   0.06   0.00    -0.01   0.01  -0.00    -0.03  -0.06  -0.00
  11   6     0.04   0.06   0.01    -0.01   0.02  -0.00    -0.02  -0.01  -0.01
  12   6    -0.12  -0.08  -0.02    -0.01  -0.00  -0.01     0.15   0.10   0.03
  13   6    -0.01  -0.04  -0.00    -0.00  -0.01  -0.00     0.02   0.02   0.00
  14   6     0.06  -0.12   0.02     0.02  -0.04   0.01    -0.06   0.12  -0.02
  15   6    -0.06   0.11  -0.02    -0.02   0.03  -0.01     0.09  -0.12   0.03
  16   6     0.20  -0.15   0.05     0.04  -0.03   0.01    -0.17   0.17  -0.05
  17   6     0.01   0.02   0.00     0.00   0.01  -0.00    -0.05  -0.03  -0.01
  18   6     0.02   0.13  -0.00    -0.00   0.01  -0.00    -0.00  -0.15   0.01
  19   6    -0.00   0.02  -0.00    -0.00   0.01  -0.00     0.01   0.00   0.00
  20   6    -0.27   0.07  -0.06    -0.04   0.04  -0.01     0.22  -0.07   0.05
  21  17    -0.00  -0.00   0.00    -0.00  -0.00  -0.00    -0.00  -0.00   0.00
  22   1     0.06   0.01  -0.08     0.05   0.08   0.09     0.07   0.03  -0.03
  23   1    -0.11  -0.14  -0.18     0.10   0.11   0.11    -0.06  -0.09  -0.10
  24   1     0.12   0.08   0.04     0.01   0.03   0.02     0.10   0.05   0.03
  25   1     0.01   0.12  -0.29    -0.11  -0.10  -0.23    -0.00   0.08  -0.22
  26   1    -0.05   0.02   0.12    -0.09  -0.10  -0.16    -0.06  -0.00   0.09
  27   1    -0.16  -0.04   0.11    -0.13  -0.09  -0.01    -0.13  -0.03   0.07
  28   1    -0.12  -0.02   0.06     0.11  -0.08   0.15    -0.04  -0.03   0.04
  29   1    -0.02  -0.04   0.00    -0.00  -0.01   0.00     0.07   0.08   0.00
  30   1    -0.05  -0.02  -0.01     0.00  -0.01   0.00    -0.01   0.03  -0.01
  31   1     0.12  -0.01   0.02     0.00   0.00  -0.01    -0.18   0.05  -0.04
  32   1    -0.06   0.06  -0.00    -0.00  -0.03   0.03     0.06  -0.02  -0.00
  33   1    -0.13   0.02  -0.03    -0.03   0.01  -0.01     0.16  -0.03   0.04
  34   1     0.03  -0.02   0.01     0.01  -0.00   0.00    -0.04   0.01  -0.01
  35   1     0.03  -0.07   0.01     0.00  -0.02   0.00     0.03   0.13  -0.00
  36   1    -0.01   0.09  -0.01    -0.01   0.03  -0.00     0.01  -0.10   0.01
  37   1    -0.01   0.04  -0.01    -0.00   0.00  -0.00     0.07  -0.06   0.02
                     55                     56                     57
                        a                      a                      a 
 Frequencies --  1112.2007              1127.6155              1132.7099
 Red. masses --     7.1755                 5.1141                 7.0868
 Frc consts  --     0.0000                 0.0000                 0.0000
 IR Inten    --     0.5587                 6.6365                17.2235
 Raman Activ --     0.0000                 0.0000                 0.0000
 Depolar     --     0.0000                 0.0000                 0.0000
 Atom AN      X      Y      Z        X      Y      Z        X      Y      Z
   1   7     0.02  -0.00   0.01     0.03  -0.02   0.02    -0.08   0.11  -0.08
   2   6    -0.03   0.01  -0.04    -0.06   0.05  -0.04     0.15  -0.28   0.21
   3   6     0.00  -0.04   0.03     0.05  -0.09   0.03     0.02   0.45  -0.20
   4   8    -0.00   0.04  -0.00    -0.07   0.08  -0.01    -0.15  -0.17   0.03
   5   6     0.11   0.03   0.02     0.16   0.01   0.03     0.07  -0.15  -0.01
   6   6    -0.06   0.12  -0.02     0.05   0.07   0.01     0.05   0.05   0.01
   7   6     0.07  -0.19   0.03    -0.01  -0.04  -0.00    -0.00  -0.04   0.00
   8   6    -0.06   0.20  -0.03    -0.02  -0.04  -0.00     0.01   0.01   0.00
   9   6    -0.07   0.29  -0.03    -0.14  -0.02  -0.03    -0.05   0.07  -0.01
  10   6     0.02   0.22  -0.00     0.01   0.02   0.00    -0.03   0.04  -0.01
  11   6    -0.06  -0.12  -0.01     0.03   0.03   0.01    -0.01   0.05  -0.00
  12   6    -0.07  -0.00  -0.02    -0.08  -0.06  -0.02     0.04   0.04   0.01
  13   6     0.04  -0.22   0.02    -0.03  -0.05  -0.00    -0.00  -0.05   0.00
  14   6    -0.04   0.18  -0.02    -0.01   0.03  -0.00     0.01   0.01   0.00
  15   6     0.04  -0.13   0.02     0.07  -0.02   0.02     0.02   0.00   0.00
  16   6    -0.02  -0.05  -0.00    -0.02   0.29  -0.02    -0.00   0.05  -0.00
  17   6     0.07  -0.04   0.02    -0.23  -0.08  -0.05    -0.05  -0.01  -0.01
  18   6     0.02   0.16  -0.00     0.12  -0.26   0.04     0.04  -0.04   0.01
  19   6    -0.01  -0.20   0.01     0.07   0.04   0.01     0.01  -0.03   0.00
  20   6     0.04  -0.29   0.03    -0.11  -0.06  -0.02    -0.03  -0.03  -0.01
  21  17    -0.00  -0.00  -0.00     0.00  -0.00  -0.00     0.00   0.00  -0.00
  22   1    -0.02  -0.01  -0.02    -0.04  -0.02  -0.03     0.13   0.10   0.14
  23   1     0.01   0.02   0.00     0.01   0.04   0.01    -0.00  -0.11   0.01
  24   1     0.00   0.02   0.01    -0.01   0.03   0.01    -0.05  -0.16  -0.07
  25   1    -0.01  -0.02  -0.00    -0.00  -0.03   0.03     0.00   0.10  -0.07
  26   1     0.01   0.00  -0.04     0.03   0.02  -0.08    -0.10  -0.07   0.30
  27   1     0.02  -0.00  -0.01     0.06   0.02   0.03    -0.29  -0.11  -0.15
  28   1    -0.04  -0.00   0.02    -0.07   0.01   0.01     0.30  -0.05  -0.02
  29   1    -0.12  -0.19  -0.01    -0.03  -0.05  -0.00    -0.08  -0.09  -0.01
  30   1    -0.23   0.11  -0.06    -0.09   0.01  -0.02    -0.01   0.00   0.00
  31   1     0.15  -0.08   0.03     0.17  -0.04   0.04    -0.06   0.03  -0.02
  32   1    -0.09   0.21  -0.00    -0.04   0.05   0.01     0.00   0.07  -0.02
  33   1     0.15  -0.10   0.04    -0.00  -0.01   0.00    -0.01  -0.01  -0.00
  34   1     0.17   0.24   0.03     0.02   0.03   0.00     0.06   0.06   0.01
  35   1    -0.00  -0.01   0.00     0.32   0.43   0.05     0.08   0.09   0.01
  36   1     0.08  -0.24   0.03    -0.07  -0.04  -0.01    -0.01  -0.03   0.00
  37   1    -0.18   0.10  -0.05     0.46  -0.19   0.11     0.09  -0.03   0.02
                     58                     59                     60
                        a                      a                      a 
 Frequencies --  1154.4206              1171.6203              1193.9146
 Red. masses --     3.0033                 2.4006                 3.0700
 Frc consts  --     0.0000                 0.0000                 0.0000
 IR Inten    --     9.5120                 0.4391                 4.7144
 Raman Activ --     0.0000                 0.0000                 0.0000
 Depolar     --     0.0000                 0.0000                 0.0000
 Atom AN      X      Y      Z        X      Y      Z        X      Y      Z
   1   7    -0.00  -0.02   0.01     0.00   0.01   0.00    -0.01   0.04  -0.02
   2   6    -0.01   0.04  -0.02     0.00  -0.00   0.00     0.03  -0.10   0.05
   3   6    -0.03  -0.06   0.03     0.01   0.01  -0.01    -0.03   0.04  -0.05
   4   8     0.07  -0.00  -0.00    -0.05   0.01  -0.00     0.07  -0.01   0.02
   5   6    -0.13   0.00  -0.02     0.09  -0.00   0.01    -0.07   0.13  -0.02
   6   6    -0.02  -0.17   0.00    -0.01   0.01  -0.00    -0.07  -0.13  -0.01
   7   6    -0.10   0.05  -0.03     0.06   0.07   0.01    -0.04   0.04  -0.01
   8   6     0.06   0.12   0.01    -0.07  -0.03  -0.01     0.01  -0.03   0.00
   9   6     0.01   0.02   0.00     0.05  -0.16   0.02     0.02  -0.11   0.01
  10   6    -0.00   0.12  -0.01     0.08  -0.05   0.02     0.03  -0.02   0.01
  11   6    -0.05  -0.06  -0.01    -0.04   0.08  -0.01     0.01  -0.07   0.01
  12   6     0.08   0.03   0.02     0.03  -0.11   0.01    -0.05   0.06  -0.02
  13   6    -0.06  -0.07  -0.01    -0.07   0.06  -0.02     0.00   0.02  -0.00
  14   6     0.09  -0.03   0.02     0.06   0.04   0.01     0.01  -0.06   0.01
  15   6    -0.04   0.10  -0.02    -0.05  -0.02  -0.01     0.03   0.07   0.00
  16   6     0.06  -0.00   0.01     0.04   0.04   0.01     0.03  -0.00   0.01
  17   6    -0.04  -0.02  -0.01     0.02  -0.10   0.01     0.03  -0.07   0.01
  18   6     0.05   0.05   0.01    -0.06  -0.00  -0.01    -0.02  -0.00  -0.00
  19   6     0.01  -0.13   0.01     0.06   0.03   0.01    -0.08   0.04  -0.02
  20   6     0.03  -0.01   0.01     0.01  -0.05   0.00    -0.05   0.24  -0.03
  21  17    -0.00  -0.00   0.00     0.00   0.00  -0.00    -0.00   0.00   0.00
  22   1    -0.01  -0.01  -0.02     0.00   0.00   0.00     0.03   0.02   0.03
  23   1    -0.00   0.01  -0.00    -0.00  -0.00  -0.01     0.01  -0.02   0.02
  24   1     0.02   0.03   0.01    -0.02  -0.01  -0.00     0.01  -0.03  -0.02
  25   1     0.00  -0.01   0.00     0.00   0.01   0.02    -0.01   0.00  -0.05
  26   1     0.01   0.01  -0.03    -0.00  -0.00  -0.00    -0.03  -0.03   0.06
  27   1     0.03   0.01   0.03    -0.01   0.00   0.02     0.08   0.02  -0.15
  28   1    -0.02   0.01  -0.02     0.01   0.00  -0.01    -0.13  -0.06   0.13
  29   1    -0.27  -0.24  -0.03     0.27   0.28   0.03     0.05   0.07   0.00
  30   1     0.45  -0.08   0.10    -0.41   0.10  -0.09     0.25  -0.07   0.06
  31   1    -0.18   0.03  -0.04    -0.23   0.08  -0.05     0.32  -0.11   0.07
  32   1     0.03  -0.03   0.00     0.05  -0.17   0.01    -0.08   0.22  -0.01
  33   1    -0.43   0.09  -0.10    -0.38   0.11  -0.09    -0.01   0.01  -0.00
  34   1     0.33   0.30   0.06     0.22   0.22   0.04    -0.10  -0.13  -0.02
  35   1     0.08   0.07   0.01     0.16   0.16   0.03     0.23   0.24   0.04
  36   1    -0.00  -0.04   0.00     0.06  -0.24   0.03     0.13  -0.47   0.05
  37   1     0.08  -0.01   0.02    -0.24   0.06  -0.06    -0.30   0.08  -0.07
                     61                     62                     63
                        a                      a                      a 
 Frequencies --  1195.2436              1214.2426              1216.7060
 Red. masses --     3.8701                 3.3991                 4.5950
 Frc consts  --     0.0000                 0.0000                 0.0000
 IR Inten    --    43.8874                 2.4702                25.3744
 Raman Activ --     0.0000                 0.0000                 0.0000
 Depolar     --     0.0000                 0.0000                 0.0000
 Atom AN      X      Y      Z        X      Y      Z        X      Y      Z
   1   7    -0.02   0.05  -0.03     0.03  -0.09   0.02     0.06   0.02  -0.02
   2   6     0.05  -0.14   0.07    -0.06   0.18  -0.08    -0.05  -0.08   0.05
   3   6    -0.05   0.06  -0.07     0.05   0.01   0.11     0.03  -0.00  -0.10
   4   8     0.11  -0.04   0.04    -0.06  -0.12  -0.02    -0.03   0.19   0.00
   5   6    -0.10   0.23  -0.03     0.01  -0.07  -0.00     0.15  -0.21   0.04
   6   6    -0.10  -0.09  -0.02    -0.10  -0.07  -0.02    -0.11   0.00  -0.02
   7   6    -0.00   0.05  -0.00     0.02  -0.03   0.01     0.03  -0.05   0.01
   8   6    -0.04   0.05  -0.01    -0.02   0.01  -0.01    -0.00   0.03  -0.00
   9   6     0.05  -0.21   0.02     0.02  -0.09   0.01    -0.01   0.10  -0.01
  10   6     0.01   0.04  -0.00     0.04   0.02   0.01     0.26  -0.02   0.06
  11   6    -0.01  -0.06   0.00     0.01  -0.01   0.00     0.01  -0.01   0.00
  12   6    -0.04   0.03  -0.01     0.01   0.06  -0.00    -0.01  -0.09  -0.00
  13   6    -0.04   0.01  -0.01    -0.01  -0.05   0.00     0.03  -0.04   0.01
  14   6     0.02   0.02   0.00     0.02   0.00   0.01    -0.01   0.08  -0.01
  15   6    -0.03  -0.01  -0.01     0.13   0.10   0.02     0.14   0.10   0.03
  16   6    -0.01   0.03  -0.00    -0.01   0.07  -0.01    -0.01   0.09  -0.01
  17   6     0.01   0.02   0.00     0.01   0.00   0.00    -0.03  -0.01  -0.01
  18   6    -0.01   0.05  -0.01    -0.03   0.07  -0.01    -0.02   0.05  -0.01
  19   6     0.00   0.01  -0.00    -0.19   0.03  -0.04    -0.10  -0.03  -0.02
  20   6     0.08  -0.20   0.03     0.03  -0.07   0.01    -0.01  -0.08   0.00
  21  17    -0.00   0.00   0.00     0.00  -0.00   0.00     0.00   0.00  -0.00
  22   1     0.04   0.04   0.05    -0.06  -0.05  -0.06    -0.02  -0.01   0.02
  23   1     0.01  -0.04   0.02    -0.00   0.06  -0.01     0.02   0.03   0.03
  24   1     0.01  -0.04  -0.02    -0.01   0.06   0.03    -0.07  -0.03  -0.01
  25   1    -0.01   0.01  -0.06    -0.00  -0.04   0.02    -0.04  -0.06  -0.07
  26   1    -0.05  -0.05   0.08     0.09   0.09  -0.01     0.01  -0.00   0.08
  27   1     0.13   0.05  -0.21    -0.29  -0.13   0.24     0.10   0.03  -0.12
  28   1    -0.16  -0.08   0.18     0.35   0.12  -0.30    -0.30  -0.07   0.23
  29   1     0.17   0.20   0.02     0.19   0.19   0.03     0.04   0.02   0.01
  30   1    -0.08   0.03  -0.02     0.09  -0.03   0.02     0.05  -0.01   0.01
  31   1     0.38  -0.12   0.09     0.16  -0.04   0.03    -0.40   0.10  -0.09
  32   1    -0.05   0.14  -0.00    -0.08   0.32  -0.03    -0.08   0.25  -0.00
  33   1    -0.19   0.05  -0.04    -0.16   0.03  -0.04    -0.19   0.04  -0.04
  34   1     0.18   0.18   0.03    -0.02  -0.03  -0.00    -0.21  -0.19  -0.04
  35   1    -0.19  -0.19  -0.03    -0.14  -0.12  -0.02    -0.17  -0.14  -0.03
  36   1    -0.06   0.25  -0.03     0.06  -0.22   0.03     0.03  -0.16   0.02
  37   1     0.27  -0.06   0.06     0.19  -0.03   0.04     0.18  -0.04   0.04
                     64                     65                     66
                        a                      a                      a 
 Frequencies --  1223.9696              1234.1845              1240.2676
 Red. masses --     5.8430                 3.9531                 6.2382
 Frc consts  --     0.0000                 0.0000                 0.0000
 IR Inten    --     2.9973                40.1399                43.4518
 Raman Activ --     0.0000                 0.0000                 0.0000
 Depolar     --     0.0000                 0.0000                 0.0000
 Atom AN      X      Y      Z        X      Y      Z        X      Y      Z
   1   7     0.10  -0.07  -0.01     0.23  -0.15  -0.06     0.02  -0.04  -0.02
   2   6    -0.09   0.07   0.02    -0.15   0.10   0.15    -0.00   0.04   0.03
   3   6     0.02   0.03  -0.02    -0.06   0.06  -0.11    -0.06   0.02   0.03
   4   8    -0.02   0.03  -0.00     0.04  -0.01   0.02     0.08  -0.13   0.01
   5   6     0.08  -0.14   0.02    -0.06   0.00  -0.01    -0.14   0.23  -0.04
   6   6    -0.20  -0.19  -0.03     0.12   0.07   0.02     0.04   0.10   0.00
   7   6    -0.09   0.11  -0.03     0.03  -0.04   0.01    -0.01   0.10  -0.01
   8   6     0.03   0.12  -0.00    -0.01  -0.06   0.00     0.05   0.02   0.01
   9   6     0.02  -0.09   0.01    -0.01   0.03  -0.00    -0.02  -0.03  -0.00
  10   6     0.19  -0.04   0.05    -0.19   0.02  -0.05     0.14  -0.07   0.04
  11   6    -0.00   0.02  -0.00     0.02   0.03   0.00    -0.01  -0.12   0.00
  12   6     0.03  -0.01   0.00     0.03   0.03   0.01    -0.12   0.01  -0.03
  13   6     0.01   0.14  -0.00    -0.02  -0.03  -0.00     0.05  -0.06   0.01
  14   6    -0.07   0.07  -0.02     0.02  -0.06   0.01     0.04   0.03   0.01
  15   6    -0.23  -0.20  -0.04     0.04   0.02   0.01     0.13   0.25   0.02
  16   6     0.01  -0.08   0.01    -0.00  -0.01   0.00    -0.04   0.10  -0.01
  17   6     0.02  -0.03   0.01     0.02   0.03   0.00    -0.19  -0.06  -0.04
  18   6     0.02  -0.06   0.01     0.00   0.02  -0.00     0.03  -0.12   0.01
[...]
   9   6     0.23   0.10   0.05     0.03  -0.15   0.02     0.00  -0.00   0.00
  10   6    -0.05  -0.06  -0.01     0.02   0.10  -0.00     0.00  -0.00   0.00
  11   6    -0.06   0.03  -0.01     0.21  -0.17   0.06    -0.00   0.00  -0.00
  12   6     0.04  -0.01   0.01    -0.15   0.26  -0.04    -0.00   0.00  -0.00
  13   6     0.28   0.05   0.06    -0.38  -0.06  -0.08    -0.00   0.00  -0.00
  14   6    -0.29  -0.16  -0.06     0.37   0.17   0.07     0.00   0.00   0.00
  15   6     0.22   0.11   0.04    -0.17   0.01  -0.04    -0.00  -0.00  -0.00
  16   6    -0.14  -0.14  -0.02     0.02  -0.14   0.01     0.00   0.00   0.00
  17   6     0.03   0.11   0.00    -0.09   0.27  -0.04    -0.00  -0.00  -0.00
  18   6    -0.10  -0.04  -0.02     0.14  -0.14   0.04     0.00   0.00   0.00
  19   6     0.25   0.13   0.05     0.03   0.08   0.00    -0.00   0.00  -0.00
  20   6    -0.28  -0.16  -0.05     0.08  -0.12   0.02     0.00   0.00   0.00
  21  17     0.00  -0.00   0.00    -0.00   0.00  -0.00     0.00  -0.00   0.02
  22   1     0.00   0.00  -0.00    -0.00   0.00   0.00     0.01  -0.01  -0.01
  23   1    -0.00   0.00  -0.00     0.00  -0.00   0.01    -0.04   0.00  -0.01
  24   1    -0.00  -0.00   0.00     0.00   0.00  -0.00     0.03  -0.24   0.93
  25   1    -0.00   0.00  -0.00    -0.00  -0.00  -0.00     0.00  -0.00   0.00
  26   1     0.00   0.00  -0.00    -0.00  -0.00   0.00    -0.00   0.01  -0.00
  27   1     0.00   0.00   0.00    -0.00  -0.00  -0.00    -0.00   0.00  -0.00
  28   1    -0.00  -0.00   0.00    -0.00   0.00  -0.00    -0.00  -0.01  -0.00
  29   1    -0.02  -0.09   0.00    -0.02  -0.07  -0.00     0.00  -0.00   0.00
  30   1     0.08  -0.07   0.02     0.04  -0.05   0.01     0.00   0.00  -0.00
  31   1     0.03  -0.00   0.01    -0.06  -0.02  -0.01    -0.00  -0.00   0.00
  32   1     0.01   0.01   0.00    -0.00  -0.07   0.00     0.00   0.00   0.00
  33   1    -0.04   0.05  -0.01     0.05  -0.06   0.02    -0.00  -0.00   0.00
  34   1     0.04   0.08   0.00    -0.03  -0.09  -0.00     0.00  -0.00   0.00
  35   1     0.03   0.03   0.00     0.02  -0.02   0.01     0.00  -0.00   0.00
  36   1     0.02  -0.02   0.01     0.01  -0.07   0.01     0.00   0.00   0.00
  37   1     0.02  -0.02   0.00    -0.03  -0.02  -0.01     0.00   0.00  -0.00
                     91                     92                     93
                        a                      a                      a 
 Frequencies --  2933.0105              2958.0883              2967.2052
 Red. masses --     1.9406                 1.7516                 1.7218
 Frc consts  --     0.0000                 0.0000                 0.0000
 IR Inten    --     4.8883                10.7162                57.8539
 Raman Activ --     0.0000                 0.0000                 0.0000
 Depolar     --     0.0000                 0.0000                 0.0000
 Atom AN      X      Y      Z        X      Y      Z        X      Y      Z
   1   7     0.00   0.00  -0.00    -0.00   0.00   0.00    -0.00  -0.00   0.00
   2   6    -0.02   0.02  -0.00     0.19  -0.12  -0.02     0.17  -0.08  -0.02
   3   6     0.01  -0.27  -0.10    -0.09   0.02  -0.09     0.12  -0.07   0.10
   4   8    -0.01  -0.01  -0.00    -0.01  -0.00   0.00     0.01  -0.00  -0.00
   5   6     0.00  -0.00   0.00     0.00  -0.00   0.00    -0.00   0.00  -0.00
   6   6    -0.00  -0.00  -0.00     0.00  -0.00  -0.00    -0.00   0.00  -0.00
   7   6    -0.00   0.00  -0.00     0.00   0.00  -0.00     0.00  -0.00   0.00
   8   6    -0.00   0.00  -0.00    -0.00  -0.00  -0.00    -0.00   0.00  -0.00
   9   6     0.00  -0.00   0.00     0.00  -0.00  -0.00    -0.00   0.00  -0.00
  10   6     0.00   0.00   0.00     0.00  -0.00   0.00    -0.00   0.00  -0.00
  11   6    -0.00   0.00  -0.00    -0.00  -0.00  -0.00     0.00  -0.00   0.00
  12   6     0.01   0.00   0.00     0.00   0.00   0.00    -0.00  -0.00  -0.00
  13   6     0.00   0.00   0.00    -0.00   0.00   0.00     0.00   0.00  -0.00
  14   6     0.00   0.00   0.00     0.00   0.00   0.00     0.00  -0.00  -0.00
  15   6     0.00  -0.00   0.00    -0.00  -0.00  -0.00     0.00   0.00  -0.00
  16   6    -0.00   0.00  -0.00    -0.00   0.00  -0.00    -0.00   0.00  -0.00
  17   6    -0.00  -0.00  -0.00    -0.00  -0.00  -0.00     0.00   0.00   0.00
  18   6    -0.00   0.00  -0.00    -0.00   0.00  -0.00     0.00   0.00  -0.00
  19   6     0.00  -0.00  -0.00    -0.00   0.00  -0.00     0.00  -0.00   0.00
  20   6    -0.00   0.00  -0.00     0.00  -0.00   0.00     0.00   0.00  -0.00
  21  17     0.00   0.00   0.00    -0.00  -0.00   0.00    -0.00   0.00  -0.00
  22   1     0.00   0.00   0.00     0.00  -0.01   0.00     0.00  -0.01   0.00
  23   1    -0.00  -0.00   0.00     0.02   0.00  -0.01     0.01  -0.00  -0.01
  24   1     0.00  -0.00   0.01    -0.00  -0.00   0.00    -0.00   0.00  -0.00
  25   1     0.03   0.00  -0.01    -0.54   0.01   0.16    -0.54   0.01   0.16
  26   1     0.04  -0.10   0.02    -0.14   0.42  -0.09    -0.08   0.26  -0.06
  27   1    -0.28   0.41  -0.14     0.25  -0.41   0.10    -0.33   0.53  -0.14
  28   1     0.26   0.58   0.47     0.12   0.32   0.23    -0.10  -0.29  -0.20
  29   1     0.00  -0.00   0.00    -0.00   0.00  -0.00    -0.00   0.00  -0.00
  30   1     0.00  -0.00  -0.00     0.00   0.00  -0.00    -0.00  -0.00   0.00
  31   1     0.00   0.00   0.00     0.00   0.00   0.00     0.00   0.00  -0.00
  32   1    -0.02  -0.00  -0.00    -0.01  -0.00  -0.00     0.01   0.00   0.00
  33   1    -0.00  -0.00   0.00     0.00  -0.00   0.00     0.00  -0.00  -0.00
  34   1    -0.00   0.00  -0.00    -0.00   0.00  -0.00    -0.00   0.00  -0.00
  35   1    -0.00   0.00  -0.00     0.00  -0.00   0.00     0.00  -0.00   0.00
  36   1     0.00   0.00  -0.00     0.00   0.00  -0.00    -0.00   0.00   0.00
  37   1    -0.00  -0.00  -0.00    -0.00  -0.00  -0.00    -0.00  -0.00   0.00
                     94                     95                     96
                        a                      a                      a 
 Frequencies --  2986.0704              3096.0661              3103.8461
 Red. masses --     1.5513                 1.7727                 1.7784
 Frc consts  --     0.0000                 0.0000                 0.0000
 IR Inten    --     4.5397                37.1814                 1.0169
 Raman Activ --     0.0000                 0.0000                 0.0000
 Depolar     --     0.0000                 0.0000                 0.0000
 Atom AN      X      Y      Z        X      Y      Z        X      Y      Z
   1   7     0.00  -0.00   0.00     0.00  -0.00  -0.00    -0.00   0.00   0.00
   2   6     0.07   0.19  -0.08     0.00  -0.00   0.00    -0.00  -0.00   0.00
   3   6    -0.01   0.03  -0.01     0.00   0.00   0.00    -0.00  -0.00  -0.00
   4   8    -0.00   0.00   0.00    -0.00   0.00  -0.00    -0.00   0.00   0.00
   5   6     0.00  -0.00   0.00     0.00  -0.00   0.00    -0.00  -0.00  -0.00
   6   6     0.00   0.00   0.00    -0.00   0.00  -0.00     0.00  -0.00   0.00
   7   6    -0.00  -0.00  -0.00    -0.01   0.01  -0.00     0.06  -0.06   0.02
   8   6     0.00  -0.00   0.00    -0.00  -0.01  -0.00     0.02   0.08   0.00
   9   6    -0.00   0.00  -0.00     0.00   0.00   0.00     0.00   0.00   0.00
  10   6    -0.00   0.00  -0.00    -0.00  -0.00  -0.00    -0.00  -0.00  -0.00
  11   6     0.00   0.00  -0.00     0.00   0.00   0.00     0.01   0.06   0.00
  12   6     0.00   0.00   0.00    -0.00  -0.00  -0.00    -0.01  -0.00  -0.00
  13   6     0.00   0.00  -0.00    -0.00  -0.01   0.00    -0.04  -0.16  -0.00
  14   6    -0.00   0.00  -0.00    -0.01   0.01  -0.00    -0.10   0.10  -0.03
  15   6     0.00   0.00  -0.00     0.00  -0.00   0.00    -0.00   0.00  -0.00
  16   6    -0.00  -0.00  -0.00     0.05  -0.06   0.02     0.03  -0.03   0.01
  17   6    -0.00   0.00  -0.00    -0.22  -0.06  -0.05     0.01   0.00   0.00
  18   6     0.00  -0.00   0.00     0.02   0.08  -0.00    -0.01  -0.04  -0.00
  19   6    -0.00  -0.00   0.00     0.00   0.00  -0.00     0.00   0.00   0.00
  20   6     0.00   0.00   0.00     0.00   0.00   0.00     0.00   0.00   0.00
  21  17    -0.00  -0.00  -0.00     0.00   0.00  -0.00    -0.00  -0.00  -0.00
  22   1    -0.01   0.02  -0.00    -0.00   0.00  -0.00     0.00  -0.00   0.00
  23   1     0.02   0.00  -0.01    -0.00  -0.00   0.00     0.01  -0.00  -0.00
  24   1     0.00  -0.00   0.01     0.00  -0.00  -0.00    -0.00  -0.00   0.00
  25   1    -0.52   0.04   0.14    -0.00   0.00   0.00     0.00   0.00  -0.00
  26   1     0.29  -0.73   0.14    -0.00   0.00  -0.00    -0.00   0.00  -0.00
  27   1     0.06  -0.10   0.03    -0.00   0.00   0.00     0.00  -0.00  -0.00
  28   1    -0.00  -0.00  -0.01    -0.00  -0.00  -0.00     0.00   0.00   0.00
  29   1    -0.00   0.00   0.00     0.02  -0.02   0.01    -0.22   0.22  -0.06
  30   1    -0.00  -0.00   0.00     0.01   0.05   0.00    -0.08  -0.30  -0.00
  31   1    -0.00  -0.00  -0.00    -0.00  -0.01  -0.00    -0.05  -0.20  -0.00
  32   1    -0.00  -0.00   0.00     0.00   0.00   0.00     0.04   0.01   0.01
  33   1    -0.00  -0.00  -0.00     0.01   0.03   0.00     0.16   0.58   0.00
  34   1     0.00  -0.00   0.00     0.03  -0.03   0.01     0.37  -0.37   0.10
  35   1     0.00  -0.00   0.00    -0.22   0.22  -0.06    -0.10   0.10  -0.03
  36   1     0.00   0.00   0.00     0.80   0.23   0.16    -0.03  -0.01  -0.01
  37   1     0.00   0.00   0.00    -0.08  -0.31  -0.00     0.03   0.12   0.00
                     97                     98                     99
                        a                      a                      a 
 Frequencies --  3104.3240              3109.2991              3110.8377
 Red. masses --     1.7709                 1.8085                 1.8222
 Frc consts  --     0.0000                 0.0000                 0.0000
 IR Inten    --     0.7105                12.4875                 5.2496
 Raman Activ --     0.0000                 0.0000                 0.0000
 Depolar     --     0.0000                 0.0000                 0.0000
 Atom AN      X      Y      Z        X      Y      Z        X      Y      Z
   1   7    -0.01   0.00   0.00    -0.00  -0.00   0.00     0.00  -0.00  -0.00
   2   6    -0.00   0.00   0.00     0.00  -0.00   0.00     0.00  -0.00   0.00
   3   6    -0.00   0.00  -0.00    -0.00  -0.00  -0.00    -0.00  -0.00  -0.00
   4   8    -0.00   0.00   0.00    -0.00   0.00   0.00     0.00  -0.00  -0.00
   5   6     0.00  -0.00   0.00    -0.00  -0.00  -0.00    -0.00  -0.00  -0.00
   6   6     0.01  -0.00   0.00     0.00  -0.00   0.00    -0.00   0.00  -0.00
   7   6     0.12  -0.11   0.03     0.01  -0.01   0.00    -0.04   0.04  -0.01
   8   6     0.04   0.15   0.00     0.00  -0.00   0.00     0.00   0.01   0.00
   9   6    -0.00  -0.00  -0.00     0.00  -0.00   0.00     0.00  -0.00   0.00
  10   6     0.00   0.00   0.00    -0.00   0.01  -0.00    -0.00   0.00  -0.00
  11   6    -0.01  -0.03  -0.00     0.06   0.23   0.00     0.02   0.07   0.00
  12   6     0.01   0.00   0.00    -0.05  -0.01  -0.01    -0.02  -0.00  -0.00
  13   6     0.02   0.09   0.00    -0.00   0.00  -0.00     0.02   0.06   0.00
  14   6     0.06  -0.05   0.02     0.05  -0.05   0.01     0.01  -0.01   0.00
  15   6     0.00  -0.00   0.00     0.00   0.00   0.00     0.00  -0.01   0.00
  16   6     0.00  -0.00   0.00    -0.04   0.04  -0.01     0.12  -0.12   0.03
  17   6    -0.03  -0.01  -0.01    -0.00  -0.00  -0.00    -0.00  -0.00  -0.00
  18   6    -0.01  -0.02   0.00     0.01   0.05   0.00    -0.05  -0.17  -0.00
  19   6     0.00   0.00   0.00    -0.00   0.00  -0.00     0.00  -0.01   0.00
  20   6    -0.00  -0.00  -0.00    -0.00  -0.00  -0.00    -0.00   0.00  -0.00
  21  17    -0.00   0.00  -0.00     0.00  -0.00   0.00    -0.00  -0.00   0.00
  22   1     0.00  -0.00   0.00    -0.00   0.00  -0.00    -0.00   0.00  -0.00
  23   1     0.02  -0.00  -0.01     0.00  -0.00  -0.00    -0.01   0.00   0.00
  24   1    -0.00  -0.00   0.00    -0.00   0.00  -0.00     0.00   0.00  -0.00
  25   1     0.00  -0.00  -0.00    -0.00   0.00  -0.00    -0.00   0.00   0.00
  26   1     0.00  -0.00   0.00    -0.00   0.00  -0.00    -0.00   0.00  -0.00
  27   1     0.00  -0.00   0.00     0.00  -0.00   0.00    -0.00   0.00  -0.00
  28   1     0.00   0.00   0.00     0.00   0.01   0.00     0.00   0.00   0.00
  29   1    -0.42   0.42  -0.12    -0.04   0.04  -0.01     0.15  -0.15   0.04
  30   1    -0.15  -0.56  -0.00    -0.00  -0.00   0.00    -0.01  -0.02  -0.00
  31   1     0.03   0.10   0.00    -0.22  -0.82  -0.01    -0.07  -0.26  -0.00
  32   1    -0.02  -0.01  -0.00     0.20   0.06   0.04     0.06   0.02   0.01
  33   1    -0.09  -0.32  -0.00    -0.00  -0.01   0.00    -0.06  -0.21  -0.00
  34   1    -0.20   0.20  -0.06    -0.18   0.18  -0.05    -0.04   0.04  -0.01
  35   1    -0.02   0.02  -0.00     0.15  -0.15   0.04    -0.42   0.42  -0.12
  36   1     0.10   0.03   0.02     0.01   0.00   0.00     0.01   0.00   0.00
  37   1     0.02   0.07  -0.00    -0.05  -0.19  -0.00     0.16   0.60   0.00
                    100                    101                    102
                        a                      a                      a 
 Frequencies --  3114.9720              3116.8773              3118.8059
 Red. masses --     1.8884                 1.8771                 1.8793
 Frc consts  --     0.0000                 0.0000                 0.0000
 IR Inten    --    27.9075               139.3741                28.2933
 Raman Activ --     0.0000                 0.0000                 0.0000
 Depolar     --     0.0000                 0.0000                 0.0000
 Atom AN      X      Y      Z        X      Y      Z        X      Y      Z
   1   7     0.00  -0.00  -0.00    -0.00   0.00   0.00    -0.00  -0.00   0.00
   2   6     0.00  -0.00   0.00    -0.00   0.00  -0.00    -0.00  -0.00   0.00
   3   6     0.00   0.00   0.00     0.00  -0.00  -0.00    -0.00  -0.00  -0.00
   4   8     0.00  -0.00  -0.00    -0.00   0.00   0.00    -0.00   0.00   0.00
   5   6    -0.00   0.00  -0.00     0.00  -0.00   0.00    -0.00  -0.00   0.00
   6   6    -0.00  -0.00  -0.00     0.00   0.00   0.00     0.00   0.00   0.00
   7   6    -0.06   0.06  -0.02     0.10  -0.09   0.03     0.06  -0.06   0.02
   8   6     0.02   0.07   0.00    -0.04  -0.15  -0.00    -0.03  -0.10  -0.00
   9   6     0.00   0.00   0.00    -0.00   0.00  -0.00    -0.00  -0.00  -0.00
  10   6    -0.00  -0.00  -0.00    -0.00  -0.00  -0.00     0.00   0.00   0.00
  11   6    -0.00  -0.02  -0.00    -0.01  -0.02  -0.00     0.01   0.02   0.00
  12   6     0.01   0.00   0.00     0.01   0.00   0.00    -0.02  -0.00  -0.00
  13   6    -0.02  -0.08  -0.00    -0.03  -0.11  -0.00     0.03   0.12   0.00
  14   6     0.05  -0.05   0.01     0.09  -0.09   0.02    -0.10   0.10  -0.03
  15   6     0.00   0.01   0.00     0.00  -0.00   0.00    -0.00   0.00  -0.00
  16   6    -0.10   0.10  -0.03     0.02  -0.02   0.01    -0.07   0.07  -0.02
  17   6    -0.11  -0.03  -0.02    -0.01  -0.00  -0.00    -0.07  -0.02  -0.01
  18   6    -0.03  -0.14   0.00    -0.02  -0.06  -0.00    -0.02  -0.09   0.00
  19   6     0.01  -0.00   0.00    -0.00  -0.00  -0.00    -0.00  -0.00  -0.00
  20   6    -0.00  -0.00  -0.00    -0.00   0.00  -0.00     0.00   0.00   0.00
  21  17     0.00  -0.00  -0.00    -0.00   0.00  -0.00    -0.00   0.00   0.00
  22   1    -0.00   0.00  -0.00     0.00  -0.00   0.00    -0.00   0.00  -0.00
  23   1    -0.01   0.00   0.01     0.02  -0.00  -0.01     0.01  -0.00  -0.00
  24   1     0.00   0.00  -0.00    -0.00  -0.00   0.00    -0.00  -0.00  -0.00
  25   1    -0.00   0.00   0.00     0.00  -0.00  -0.00     0.00   0.00  -0.00
  26   1    -0.00   0.00  -0.00     0.00  -0.00   0.00     0.00   0.00  -0.00
  27   1    -0.00   0.00   0.00    -0.00   0.00  -0.00    -0.00  -0.00   0.00
  28   1    -0.00  -0.00  -0.00     0.00   0.00   0.00     0.00   0.00   0.00
  29   1     0.21  -0.21   0.06    -0.33   0.32  -0.10    -0.21   0.21  -0.06
  30   1    -0.07  -0.25  -0.00     0.14   0.52  -0.00     0.09   0.35  -0.00
  31   1     0.02   0.06   0.00     0.02   0.07   0.00    -0.02  -0.08  -0.00
  32   1    -0.03  -0.01  -0.01    -0.02  -0.01  -0.00     0.06   0.02   0.01
  33   1     0.07   0.28   0.00     0.10   0.38   0.00    -0.10  -0.40  -0.00
  34   1    -0.16   0.16  -0.04    -0.30   0.31  -0.08     0.33  -0.34   0.09
  35   1     0.35  -0.35   0.10    -0.07   0.07  -0.02     0.25  -0.25   0.07
  36   1     0.35   0.10   0.07     0.04   0.01   0.01     0.22   0.06   0.04
  37   1     0.12   0.46   0.00     0.06   0.20   0.00     0.08   0.31   0.00
                    103                    104                    105
                        a                      a                      a 
 Frequencies --  3134.2924              3164.8411              3208.0983
 Red. masses --     1.8424                 1.8644                 1.6727
 Frc consts  --     0.0000                 0.0000                 0.0000
 IR Inten    --    56.6556                67.2197                37.1030
 Raman Activ --     0.0000                 0.0000                 0.0000
 Depolar     --     0.0000                 0.0000                 0.0000
 Atom AN      X      Y      Z        X      Y      Z        X      Y      Z
   1   7    -0.01   0.00   0.00    -0.24   0.04   0.07     0.05  -0.22   0.03
   2   6    -0.00   0.00  -0.00    -0.01  -0.00   0.00    -0.00  -0.01   0.00
   3   6    -0.00  -0.00  -0.00     0.00  -0.00   0.00     0.00  -0.00  -0.00
   4   8    -0.00  -0.00   0.00     0.00  -0.00  -0.00     0.00  -0.00   0.00
   5   6    -0.01   0.00  -0.00     0.00   0.00  -0.00     0.00  -0.00   0.00
   6   6     0.00  -0.00   0.00    -0.00   0.00  -0.00    -0.00   0.00  -0.00
   7   6    -0.00   0.00  -0.00    -0.01   0.01  -0.00    -0.00   0.00  -0.00
   8   6     0.00   0.00   0.00    -0.00  -0.00  -0.00    -0.00   0.00  -0.00
   9   6     0.00   0.00   0.00    -0.00   0.00  -0.00    -0.00   0.00   0.00
  10   6     0.00  -0.00   0.00    -0.00  -0.00  -0.00    -0.00   0.00  -0.00
  11   6    -0.02  -0.07  -0.00     0.00   0.00   0.00     0.00  -0.00   0.00
  12   6    -0.25  -0.07  -0.05     0.01   0.00   0.00     0.00   0.00   0.00
  13   6    -0.00  -0.01  -0.00     0.00   0.00   0.00    -0.00  -0.00   0.00
  14   6     0.00  -0.00   0.00    -0.00   0.00  -0.00     0.00  -0.00   0.00
  15   6     0.00  -0.00   0.00     0.00   0.00   0.00    -0.00   0.00   0.00
  16   6     0.00  -0.00   0.00    -0.00   0.00  -0.00     0.00  -0.00   0.00
  17   6     0.00   0.00   0.00    -0.00  -0.00  -0.00     0.00   0.00   0.00
  18   6     0.00   0.00   0.00    -0.00  -0.00  -0.00     0.00   0.00  -0.00
  19   6     0.00   0.00  -0.00     0.00  -0.00   0.00     0.00  -0.00   0.00
  20   6     0.00  -0.00   0.00     0.00   0.00   0.00    -0.00   0.00  -0.00
  21  17     0.00   0.00   0.00    -0.00   0.00  -0.00    -0.00   0.00  -0.00
  22   1     0.00  -0.00   0.00     0.05  -0.16   0.03    -0.38   0.87  -0.08
  23   1     0.04   0.00  -0.02     0.88   0.02  -0.35     0.18  -0.02  -0.06
  24   1    -0.00  -0.00   0.00    -0.02  -0.01   0.05     0.01  -0.03   0.04
  25   1    -0.00   0.00   0.00     0.03  -0.00  -0.01     0.01   0.00  -0.00
  26   1     0.00  -0.00  -0.00     0.00  -0.00   0.00    -0.01   0.02  -0.00
  27   1     0.00  -0.00  -0.00    -0.00   0.00  -0.00    -0.00  -0.00  -0.00
  28   1     0.01   0.02   0.01    -0.00  -0.00  -0.00     0.00   0.00   0.00
  29   1     0.01  -0.01   0.00     0.03  -0.03   0.01     0.00  -0.00   0.00
  30   1    -0.00  -0.02  -0.00     0.00   0.00   0.00    -0.00  -0.00  -0.00
  31   1     0.06   0.23   0.00    -0.00  -0.01  -0.00     0.00   0.00   0.00
  32   1     0.87   0.26   0.19    -0.04  -0.01  -0.01    -0.00  -0.00  -0.00
  33   1     0.01   0.03  -0.00    -0.00  -0.00  -0.00     0.00   0.00   0.00
  34   1    -0.01   0.01  -0.00     0.00  -0.00   0.00    -0.00   0.00  -0.00
  35   1    -0.01   0.01  -0.00     0.00  -0.00   0.00    -0.00   0.00  -0.00
  36   1    -0.01  -0.00  -0.00     0.00   0.00   0.00    -0.00  -0.00  -0.00
  37   1    -0.00  -0.01  -0.00     0.00   0.00   0.00    -0.00  -0.00  -0.00
