 Entering Gaussian System
 *********************************************
 Gaussian 98:
 frequency output generated by the xtb code
 *********************************************
                         Standard orientation:
 --------------------------------------------------------------------
  Center     Atomic     Atomic              Coordinates (Angstroms)
  Number     Number      Type              X           Y           Z
 --------------------------------------------------------------------
    1          7             0       -1.159434    1.602565   -0.672089
    2          6             0       -0.009922    1.336721    0.233818
    3          6             0        0.352930   -0.153621    0.315859
    4          6             0        1.421583   -0.426685    1.409406
    5          6             0        2.815744    0.081337    1.001870
    6          6             0        3.254076   -0.512558   -0.346740
    7          6             0        2.218754   -0.216394   -1.444288
    8          6             0        0.825463   -0.731676   -1.044642
    9         17             0       -3.736262   -0.525170    0.279694
   10          1             0       -1.459869    2.590857   -0.640879
   11          1             0       -1.973126    1.017380   -0.409625
   12          1             0       -0.927539    1.382672   -1.654919
   13          1             0       -0.245307    1.708024    1.238528
   14          1             0        0.860830    1.914096   -0.093036
   15          1             0       -0.569852   -0.688116    0.603113
   16          1             0        1.473298   -1.504105    1.610658
   17          1             0        1.108779    0.033978    2.355436
   18          1             0        3.554226   -0.148176    1.783388
   19          1             0        2.803410    1.176147    0.932378
   20          1             0        3.372601   -1.598618   -0.243419
   21          1             0        4.246327   -0.136773   -0.634695
   22          1             0        2.533668   -0.654678   -2.402148
   23          1             0        2.175139    0.864676   -1.624649
   24          1             0        0.852477   -1.827266   -0.983450
   25          1             0        0.091931   -0.505184   -1.828000
 --------------------------------------------------------------------
     1 basis functions        1 primitive gaussians
     1 alpha electrons        1 beta electrons

 Harmonic frequencies (cm**-1), IR intensities (km*mol⁻¹),
 Raman scattering activities (A**4/amu), Raman depolarization ratios,
 reduced masses (AMU), force constants (mDyne/A) and normal coordinates:
                      1                      2                      3
                        a                      a                      a 
 Frequencies --  -133.3044                61.7448                82.3586
 Red. masses --    22.1589                20.4431                16.2363
 Frc consts  --     0.0000                 0.0000                 0.0000
 IR Inten    --   144.4696                10.3793                12.7215
 Raman Activ --     0.0000                 0.0000                 0.0000
 Depolar     --     0.0000                 0.0000                 0.0000
 Atom AN      X      Y      Z        X      Y      Z        X      Y      Z
   1   7    -0.43  -0.35   0.20    -0.16  -0.24   0.04     0.06  -0.13   0.14
   2   6    -0.20  -0.12  -0.01    -0.02  -0.15  -0.10    -0.01  -0.08   0.23
   3   6    -0.03  -0.07   0.01     0.13  -0.12  -0.14     0.11  -0.05   0.26
   4   6    -0.01  -0.01   0.00     0.07  -0.08  -0.07     0.32   0.11   0.11
   5   6    -0.03   0.04  -0.01     0.07   0.04   0.06     0.23   0.14  -0.17
   6   6    -0.01   0.03   0.00     0.22   0.11   0.08     0.03   0.07  -0.20
   7   6    -0.02   0.00   0.01     0.29   0.10   0.01    -0.18  -0.05  -0.04
   8   6    -0.01  -0.04   0.00     0.28  -0.00  -0.14    -0.07  -0.13   0.23
   9  17     0.54   0.39  -0.15    -0.57   0.24   0.17    -0.33   0.10  -0.38
  10   1    -0.16  -0.11   0.06    -0.01  -0.05  -0.03    -0.00  -0.04   0.05
  11   1    -0.10  -0.14   0.10    -0.06  -0.02   0.08     0.01  -0.05  -0.01
  12   1    -0.15  -0.09   0.04    -0.09  -0.12   0.01     0.05  -0.01   0.04
  13   1    -0.02  -0.03   0.00     0.02  -0.05  -0.02    -0.03  -0.03   0.06
  14   1    -0.09  -0.01  -0.05    -0.03  -0.02  -0.06    -0.00  -0.01   0.09
  15   1     0.00  -0.04   0.01     0.05  -0.06  -0.06     0.06  -0.03   0.13
  16   1     0.01  -0.00   0.00     0.04  -0.02  -0.03     0.12   0.04   0.06
  17   1    -0.01  -0.00  -0.00    -0.01  -0.04  -0.02     0.13   0.05   0.03
  18   1    -0.01   0.02  -0.00     0.01   0.02   0.03     0.10   0.06  -0.08
  19   1    -0.02   0.01  -0.01    -0.00   0.01   0.03     0.05   0.04  -0.07
  20   1     0.00   0.01   0.00     0.08   0.03   0.02     0.03   0.02  -0.04
  21   1    -0.01   0.01  -0.00     0.06   0.05   0.05    -0.01   0.03  -0.11
  22   1    -0.00   0.01  -0.00     0.11   0.04   0.00    -0.09  -0.03  -0.02
  23   1    -0.02  -0.00   0.01     0.07   0.03   0.02    -0.08  -0.02  -0.03
  24   1     0.01  -0.01  -0.01     0.10  -0.00  -0.06     0.01  -0.03   0.09
  25   1    -0.00  -0.01   0.00     0.10   0.01  -0.06    -0.07  -0.08   0.10
                      4                      5                      6
                        a                      a                      a 
 Frequencies --   121.6189               189.9359               221.7186
 Red. masses --    11.2066                 8.5743                 7.5697
 Frc consts  --     0.0000                 0.0000                 0.0000
 IR Inten    --    10.9467                 7.7081                 2.8186
 Raman Activ --     0.0000                 0.0000                 0.0000
 Depolar     --     0.0000                 0.0000                 0.0000
 Atom AN      X      Y      Z        X      Y      Z        X      Y      Z
   1   7     0.31  -0.07  -0.28    -0.02   0.22   0.37     0.02   0.22   0.04
   2   6    -0.03  -0.24   0.08     0.33   0.01  -0.16    -0.28  -0.15   0.30
   3   6    -0.08  -0.25   0.02    -0.01  -0.07  -0.07    -0.04  -0.13  -0.11
   4   6    -0.07  -0.22   0.01    -0.06  -0.11  -0.05     0.00   0.08  -0.10
   5   6    -0.17   0.10   0.05    -0.17   0.21   0.02    -0.09   0.29  -0.14
   6   6    -0.06   0.38  -0.04     0.00   0.25   0.06     0.07  -0.12   0.10
   7   6    -0.15   0.16  -0.01    -0.03  -0.25  -0.06     0.19  -0.28  -0.06
   8   6    -0.02  -0.18   0.01    -0.02  -0.26   0.00     0.06  -0.01  -0.14
   9  17     0.14   0.21   0.13    -0.02  -0.03  -0.10     0.04   0.03   0.04
  10   1     0.16   0.01  -0.14     0.01   0.06   0.18    -0.01   0.05   0.12
  11   1     0.02   0.07  -0.09     0.02   0.05   0.14    -0.00   0.01  -0.13
  12   1     0.14  -0.08  -0.05    -0.12   0.11   0.06     0.10   0.20   0.00
  13   1    -0.10  -0.10   0.01     0.26   0.06  -0.03    -0.20  -0.18   0.11
  14   1     0.03  -0.07   0.13     0.09  -0.08  -0.19    -0.07   0.03   0.25
  15   1    -0.02  -0.08  -0.01    -0.03   0.03  -0.02     0.02  -0.09  -0.05
  16   1     0.03  -0.07  -0.03     0.03  -0.04  -0.06     0.06   0.03  -0.01
  17   1    -0.04  -0.11   0.02    -0.05  -0.09   0.00    -0.02   0.02  -0.04
  18   1    -0.03   0.03  -0.00    -0.04   0.11   0.01    -0.03   0.21  -0.00
  19   1    -0.10   0.03   0.07    -0.12   0.06   0.01    -0.09   0.08  -0.15
  20   1     0.07   0.12  -0.04     0.11   0.09   0.05    -0.01  -0.03   0.12
  21   1    -0.05   0.20  -0.01    -0.03   0.15   0.01     0.04  -0.08   0.03
  22   1    -0.02   0.07  -0.01     0.02  -0.15   0.03     0.07  -0.15   0.02
  23   1    -0.12   0.04  -0.00    -0.05  -0.09  -0.13     0.09  -0.09  -0.08
  24   1     0.07  -0.05   0.01    -0.01  -0.07   0.04    -0.04  -0.01  -0.07
  25   1    -0.03  -0.11   0.01    -0.01  -0.09  -0.00     0.05   0.06  -0.05
                      7                      8                      9
                        a                      a                      a 
 Frequencies --   291.4847               315.5992               320.6735
 Red. masses --     4.9313                 6.2189                 6.8667
 Frc consts  --     0.0000                 0.0000                 0.0000
 IR Inten    --     6.5428                 2.5781                 5.7020
 Raman Activ --     0.0000                 0.0000                 0.0000
 Depolar     --     0.0000                 0.0000                 0.0000
 Atom AN      X      Y      Z        X      Y      Z        X      Y      Z
   1   7    -0.16   0.21  -0.13    -0.19   0.24  -0.02     0.06  -0.28  -0.12
   2   6    -0.14  -0.02  -0.12    -0.26   0.12   0.09     0.01   0.23   0.09
   3   6    -0.02  -0.02  -0.04    -0.09   0.12   0.02     0.02   0.23   0.09
   4   6    -0.02   0.04  -0.00    -0.00  -0.04  -0.09     0.04  -0.28  -0.08
   5   6     0.12  -0.23   0.08     0.10  -0.20   0.01    -0.03  -0.02   0.06
   6   6     0.15   0.12  -0.08     0.26   0.12  -0.09     0.10   0.16   0.02
   7   6    -0.01   0.03   0.04     0.06  -0.22  -0.00     0.04  -0.25  -0.05
   8   6     0.11  -0.23   0.11     0.03  -0.08   0.14    -0.15   0.26   0.02
   9  17    -0.02   0.04   0.07     0.05  -0.04  -0.04    -0.05   0.03   0.04
  10   1    -0.26  -0.02   0.30     0.19   0.15  -0.25    -0.19  -0.14   0.02
  11   1     0.07  -0.20  -0.26    -0.17   0.31   0.16     0.10  -0.25  -0.13
  12   1     0.05   0.47  -0.10    -0.13  -0.26   0.05     0.13   0.05  -0.03
  13   1    -0.06  -0.04  -0.03    -0.12  -0.01   0.03    -0.05   0.08   0.01
  14   1    -0.04   0.02   0.00    -0.07   0.06   0.08    -0.02   0.10   0.03
  15   1    -0.00  -0.01  -0.00    -0.02   0.02   0.00    -0.01   0.09   0.02
  16   1    -0.06   0.01   0.04    -0.04  -0.02  -0.06     0.02  -0.11  -0.19
  17   1     0.02   0.05  -0.01     0.04  -0.03  -0.00     0.02  -0.22   0.05
  18   1     0.01  -0.17   0.01     0.00  -0.13   0.01    -0.00   0.00   0.01
  19   1     0.10  -0.06   0.11     0.06  -0.05   0.07    -0.06  -0.00   0.06
  20   1     0.13   0.04  -0.09     0.23   0.05  -0.06     0.14   0.06   0.02
  21   1     0.01   0.12  -0.02     0.02   0.18  -0.03    -0.01   0.14  -0.01
  22   1     0.00   0.04  -0.00    -0.01  -0.12   0.02    -0.01  -0.22   0.05
  23   1    -0.06   0.01   0.03     0.00  -0.07  -0.07     0.07  -0.09  -0.17
  24   1     0.11  -0.06   0.11    -0.00  -0.02   0.11    -0.16   0.07  -0.02
  25   1     0.01  -0.16   0.02     0.03  -0.07   0.01    -0.01   0.16  -0.00
                     10                     11                     12
                        a                      a                      a 
 Frequencies --   382.8867               406.4231               464.9546
 Red. masses --     7.5135                 7.7064                 8.5068
 Frc consts  --     0.0000                 0.0000                 0.0000
 IR Inten    --     3.1178                 1.2403                 3.2820
 Raman Activ --     0.0000                 0.0000                 0.0000
 Depolar     --     0.0000                 0.0000                 0.0000
 Atom AN      X      Y      Z        X      Y      Z        X      Y      Z
   1   7     0.14  -0.18   0.15     0.06  -0.10   0.08    -0.10   0.13  -0.12
   2   6     0.08  -0.02   0.17     0.03   0.24   0.15    -0.04  -0.17  -0.16
   3   6     0.06   0.01  -0.09    -0.03   0.20   0.00    -0.07  -0.17   0.33
   4   6    -0.25   0.30   0.21    -0.19  -0.12  -0.03    -0.04  -0.13   0.35
   5   6    -0.11  -0.18   0.09    -0.30  -0.02  -0.26    -0.19  -0.09  -0.18
   6   6    -0.09   0.16  -0.11     0.02  -0.13  -0.12     0.12  -0.02  -0.15
   7   6     0.07  -0.10  -0.34     0.13   0.12  -0.09     0.17   0.03  -0.13
   8   6     0.09   0.04  -0.14     0.32  -0.13   0.24     0.11   0.30   0.18
   9  17    -0.01   0.00  -0.00    -0.02   0.00   0.00     0.01  -0.00   0.00
  10   1     0.00  -0.06   0.00    -0.07  -0.05  -0.03     0.04   0.05   0.05
  11   1     0.05  -0.07   0.04     0.05  -0.08   0.02    -0.05   0.07  -0.05
  12   1     0.07  -0.07   0.05     0.06  -0.05   0.04    -0.07   0.09  -0.06
  13   1    -0.01  -0.06   0.06    -0.02   0.04   0.05     0.07   0.10  -0.08
  14   1     0.02   0.03   0.09    -0.01   0.11   0.06     0.02  -0.17  -0.16
  15   1     0.01  -0.01  -0.08    -0.05   0.09  -0.06    -0.02  -0.08   0.04
  16   1    -0.16   0.12   0.27    -0.07  -0.04  -0.06    -0.02  -0.03   0.17
  17   1    -0.08   0.29  -0.04    -0.01  -0.07   0.02     0.06   0.04   0.09
  18   1    -0.03  -0.18  -0.01    -0.07   0.13  -0.05     0.00   0.11  -0.06
  19   1     0.07  -0.04   0.12    -0.17  -0.01  -0.17    -0.16  -0.03  -0.13
  20   1     0.05   0.05  -0.08    -0.05  -0.04  -0.04     0.08  -0.00  -0.07
  21   1    -0.04   0.12   0.02     0.04  -0.07   0.04     0.03   0.06   0.02
  22   1     0.04  -0.15  -0.03    -0.00   0.08  -0.06    -0.04  -0.08  -0.02
  23   1     0.03  -0.05  -0.23     0.01   0.04   0.04     0.13   0.00  -0.11
  24   1     0.02   0.01  -0.02     0.25  -0.02   0.26    -0.01   0.08  -0.08
  25   1     0.00  -0.00  -0.02     0.05  -0.28   0.04     0.02   0.19   0.09
                     13                     14                     15
                        a                      a                      a 
 Frequencies --   485.3577               621.0861               781.8326
 Red. masses --     8.2437                 6.5021                 7.6246
 Frc consts  --     0.0000                 0.0000                 0.0000
 IR Inten    --     0.6175                 5.2382                12.5330
 Raman Activ --     0.0000                 0.0000                 0.0000
 Depolar     --     0.0000                 0.0000                 0.0000
 Atom AN      X      Y      Z        X      Y      Z        X      Y      Z
   1   7     0.16  -0.14   0.10     0.08  -0.05   0.05     0.06  -0.08   0.00
   2   6     0.11  -0.04   0.05    -0.03  -0.17   0.03     0.10  -0.28  -0.21
   3   6    -0.30  -0.06  -0.03    -0.40  -0.08   0.09     0.33   0.12  -0.11
   4   6    -0.18   0.18  -0.20    -0.07   0.14  -0.34    -0.06   0.11  -0.20
   5   6    -0.04  -0.05  -0.23     0.12   0.09   0.01    -0.15  -0.06  -0.08
   6   6     0.40  -0.04  -0.05    -0.02   0.05   0.01    -0.12  -0.01   0.00
   7   6    -0.00  -0.02   0.35     0.10   0.09  -0.08    -0.12  -0.03   0.17
   8   6    -0.17   0.03   0.01     0.07   0.18   0.23     0.08   0.22   0.33
   9  17    -0.01   0.01  -0.00     0.00   0.00   0.00    -0.00  -0.00  -0.00
  10   1    -0.01  -0.05   0.02     0.03  -0.01   0.03     0.15   0.01   0.18
  11   1     0.07  -0.08   0.02     0.01  -0.02  -0.02    -0.01   0.06   0.10
  12   1     0.06  -0.03   0.03     0.05   0.00   0.02    -0.22   0.08  -0.08
  13   1     0.08   0.03   0.01     0.09   0.08  -0.02    -0.17  -0.30  -0.02
  14   1     0.06  -0.08  -0.02     0.07  -0.22  -0.09    -0.02   0.12   0.16
  15   1    -0.10   0.01   0.01    -0.08  -0.07   0.03     0.09   0.03  -0.04
  16   1    -0.08   0.08   0.08     0.05   0.02  -0.19    -0.05   0.02  -0.11
  17   1    -0.00   0.17  -0.10    -0.00  -0.08  -0.03    -0.03  -0.01  -0.04
  18   1    -0.08   0.04   0.02    -0.06  -0.21   0.02    -0.07  -0.06  -0.01
  19   1    -0.00  -0.02  -0.14     0.22   0.04   0.15     0.01  -0.02  -0.01
  20   1     0.28   0.01  -0.05    -0.20  -0.00   0.05     0.04   0.00  -0.02
  21   1     0.04   0.16  -0.04     0.07  -0.18   0.01    -0.06   0.08  -0.00
  22   1    -0.05   0.12   0.02    -0.03  -0.19   0.06    -0.11  -0.09   0.06
  23   1    -0.01   0.02   0.23     0.12  -0.01  -0.23     0.02  -0.02  -0.02
  24   1    -0.13   0.00  -0.06     0.14   0.06   0.14    -0.02   0.06   0.08
  25   1     0.04   0.11  -0.05     0.02  -0.09   0.03    -0.00   0.11   0.13
                     16                     17                     18
                        a                      a                      a 
 Frequencies --   818.6805               845.5825               859.5190
 Red. masses --     4.5355                 3.9755                 7.1166
 Frc consts  --     0.0000                 0.0000                 0.0000
 IR Inten    --     0.8738                23.6532                 7.8040
 Raman Activ --     0.0000                 0.0000                 0.0000
 Depolar     --     0.0000                 0.0000                 0.0000
 Atom AN      X      Y      Z        X      Y      Z        X      Y      Z
   1   7     0.01  -0.00  -0.03     0.02   0.07  -0.08    -0.09   0.05   0.01
   2   6     0.01   0.03  -0.00     0.14   0.16  -0.09    -0.05   0.10   0.12
   3   6     0.01   0.01   0.20    -0.18  -0.14   0.00     0.15  -0.08   0.01
   4   6    -0.13   0.19   0.10    -0.02  -0.19   0.04     0.14  -0.07  -0.22
   5   6    -0.17   0.15  -0.08     0.09   0.03  -0.09    -0.16  -0.13  -0.28
   6   6    -0.03  -0.00  -0.15     0.13   0.19  -0.06    -0.29   0.22   0.06
   7   6     0.15  -0.17  -0.12     0.05   0.07   0.09     0.04  -0.05   0.31
   8   6     0.17  -0.20   0.05    -0.01  -0.12   0.08     0.20  -0.08   0.08
   9  17    -0.00   0.00   0.00    -0.01   0.00  -0.01     0.00   0.00   0.00
  10   1    -0.02  -0.01   0.01    -0.17  -0.04   0.00    -0.03   0.01  -0.12
  11   1     0.03  -0.01   0.06     0.19  -0.10   0.29    -0.08   0.01  -0.17
  12   1    -0.05   0.00  -0.02    -0.29  -0.04  -0.08     0.21  -0.03   0.07
  13   1    -0.04   0.01  -0.01    -0.22  -0.12  -0.02     0.15   0.11   0.04
  14   1     0.02   0.00   0.04     0.08   0.14   0.26    -0.05  -0.02  -0.14
  15   1    -0.01   0.00   0.02    -0.11   0.05  -0.02     0.06  -0.04   0.02
  16   1     0.10   0.00  -0.26    -0.05  -0.02   0.19    -0.02   0.02   0.14
  17   1    -0.02  -0.23   0.16     0.05   0.12  -0.05     0.12   0.18  -0.13
  18   1    -0.09  -0.28  -0.07     0.04  -0.01  -0.04    -0.02  -0.16  -0.14
  19   1     0.21   0.06   0.18    -0.04   0.01   0.07    -0.03  -0.03   0.07
  20   1    -0.01   0.01   0.05    -0.27   0.02   0.05    -0.15   0.05   0.04
  21   1     0.01  -0.02   0.01     0.14  -0.25  -0.02    -0.06  -0.00   0.03
  22   1     0.04   0.24  -0.17     0.01  -0.10   0.08     0.09  -0.08   0.14
  23   1    -0.11  -0.00   0.25    -0.07  -0.01  -0.13    -0.06  -0.03  -0.01
  24   1    -0.21  -0.07  -0.20    -0.09  -0.04  -0.11    -0.09  -0.03  -0.11
  25   1     0.09   0.27   0.06     0.07   0.12  -0.01     0.15   0.18  -0.01
                     19                     20                     21
                        a                      a                      a 
 Frequencies --   893.7838               911.8400               942.0045
 Red. masses --     5.0521                 7.9048                 6.8717
 Frc consts  --     0.0000                 0.0000                 0.0000
 IR Inten    --     5.7831                 4.9210                14.3420
 Raman Activ --     0.0000                 0.0000                 0.0000
 Depolar     --     0.0000                 0.0000                 0.0000
 Atom AN      X      Y      Z        X      Y      Z        X      Y      Z
   1   7    -0.04  -0.10   0.08     0.01  -0.02  -0.04    -0.14   0.20  -0.11
   2   6    -0.03  -0.09  -0.01     0.01   0.00   0.01     0.10   0.10   0.14
   3   6     0.18   0.12  -0.06     0.11   0.02   0.27     0.23  -0.30  -0.03
   4   6    -0.19  -0.10  -0.04     0.18   0.11  -0.28    -0.03  -0.05  -0.24
   5   6     0.03   0.07   0.12    -0.26  -0.18  -0.06    -0.08   0.11   0.19
   6   6     0.37   0.11  -0.12     0.11   0.04   0.26     0.10  -0.14  -0.01
   7   6    -0.02   0.02  -0.12     0.17   0.15  -0.25    -0.15  -0.04  -0.18
   8   6    -0.11  -0.08   0.15    -0.29  -0.16  -0.08     0.06   0.12   0.22
   9  17     0.01  -0.00   0.01     0.00  -0.00  -0.00    -0.00   0.00  -0.00
  10   1     0.20   0.04   0.03     0.04   0.00   0.07    -0.30  -0.02  -0.23
  11   1    -0.19   0.11  -0.25     0.01   0.02   0.06     0.11  -0.11   0.07
  12   1     0.20   0.05   0.05    -0.12   0.04  -0.05     0.04  -0.11   0.03
  13   1     0.10  -0.05   0.03    -0.08   0.05  -0.03     0.07   0.04   0.04
  14   1    -0.11   0.06  -0.13     0.01   0.00   0.04     0.06  -0.04   0.02
  15   1     0.01   0.10  -0.02     0.08   0.02   0.27     0.10  -0.15  -0.02
  16   1    -0.16  -0.02   0.07    -0.01   0.04  -0.02     0.06   0.02   0.11
  17   1    -0.08   0.06  -0.06     0.15   0.10  -0.07    -0.17   0.09  -0.17
  18   1    -0.02   0.05   0.07    -0.17  -0.04   0.08    -0.12  -0.00   0.14
  19   1    -0.11   0.02   0.11    -0.06  -0.05  -0.02     0.01   0.03   0.07
  20   1    -0.25  -0.00   0.06    -0.02  -0.00   0.02     0.11  -0.02   0.05
  21   1     0.23  -0.31  -0.03     0.09   0.01   0.28    -0.00   0.02  -0.03
  22   1    -0.07   0.05  -0.08     0.15   0.06  -0.04    -0.20   0.06  -0.13
  23   1    -0.14   0.00  -0.02     0.00   0.04  -0.06     0.02   0.01   0.07
  24   1    -0.19  -0.03   0.00    -0.03  -0.04  -0.02     0.04   0.03  -0.02
  25   1    -0.04   0.11   0.08    -0.19  -0.07   0.08    -0.10   0.06   0.17
                     22                     23                     24
                        a                      a                      a 
 Frequencies --   951.5584               980.9775              1020.9837
 Red. masses --     3.9371                 6.6626                 8.0601
 Frc consts  --     0.0000                 0.0000                 0.0000
 IR Inten    --     9.7079                17.5618                 7.6464
 Raman Activ --     0.0000                 0.0000                 0.0000
 Depolar     --     0.0000                 0.0000                 0.0000
 Atom AN      X      Y      Z        X      Y      Z        X      Y      Z
   1   7     0.01  -0.06  -0.04    -0.20   0.06  -0.05    -0.22  -0.11  -0.33
   2   6     0.01  -0.03   0.02     0.22  -0.02   0.03     0.29  -0.01   0.48
   3   6    -0.03   0.06  -0.02     0.15  -0.10  -0.06     0.10   0.06   0.13
   4   6     0.10  -0.25   0.01    -0.05   0.06   0.26    -0.15   0.02  -0.07
   5   6    -0.08   0.17  -0.13    -0.20   0.08  -0.25     0.04   0.03   0.04
   6   6    -0.02   0.04   0.02     0.22  -0.03  -0.01     0.02  -0.00  -0.09
   7   6     0.08  -0.22  -0.05    -0.02   0.15   0.21    -0.07  -0.02   0.12
   8   6    -0.11   0.23  -0.06    -0.23   0.01  -0.14     0.09  -0.03  -0.17
   9  17     0.00  -0.00  -0.00     0.00   0.00   0.00     0.00  -0.00  -0.00
  10   1     0.10   0.01   0.11    -0.08   0.01  -0.14     0.13   0.02   0.16
  11   1    -0.03   0.05   0.02    -0.07  -0.00  -0.11    -0.13   0.11  -0.01
  12   1    -0.11   0.06  -0.05     0.12  -0.04   0.04    -0.31   0.14  -0.18
  13   1    -0.05   0.05  -0.03     0.07  -0.17   0.07     0.02   0.25   0.02
  14   1     0.01  -0.01   0.00    -0.03   0.13   0.03     0.12  -0.13   0.02
  15   1    -0.03   0.02  -0.05    -0.00   0.06   0.00     0.03  -0.00   0.00
  16   1     0.00  -0.02   0.26     0.16  -0.00  -0.06    -0.04   0.01  -0.01
  17   1     0.06   0.17  -0.10    -0.03  -0.14   0.14    -0.10  -0.00  -0.03
  18   1     0.02  -0.22  -0.15    -0.12  -0.25  -0.08    -0.04   0.05   0.06
  19   1     0.01   0.06   0.31     0.21   0.03   0.08     0.02   0.00  -0.05
  20   1     0.05   0.05   0.32     0.00  -0.01   0.03    -0.04  -0.01  -0.07
  21   1    -0.02  -0.02  -0.08     0.09  -0.06   0.03    -0.01  -0.04  -0.12
  22   1    -0.02   0.19  -0.14    -0.05  -0.17   0.14     0.04  -0.05   0.07
  23   1     0.12   0.00   0.30     0.16   0.01  -0.13    -0.07  -0.02  -0.05
  24   1     0.08   0.08   0.25     0.14   0.01  -0.00     0.03  -0.01   0.01
  25   1    -0.06  -0.20  -0.06    -0.14  -0.16  -0.01     0.06  -0.03  -0.08
                     25                     26                     27
                        a                      a                      a 
 Frequencies --  1026.4868              1035.2467              1071.0302
 Red. masses --     7.1631                 5.9526                 6.0036
 Frc consts  --     0.0000                 0.0000                 0.0000
 IR Inten    --     3.1824                19.3302                 1.3712
 Raman Activ --     0.0000                 0.0000                 0.0000
 Depolar     --     0.0000                 0.0000                 0.0000
 Atom AN      X      Y      Z        X      Y      Z        X      Y      Z
   1   7    -0.27  -0.06  -0.08    -0.13   0.19  -0.12     0.02   0.06   0.03
   2   6     0.41  -0.01   0.05     0.14  -0.38   0.14    -0.04  -0.03  -0.05
   3   6    -0.28  -0.06  -0.01     0.01   0.23  -0.15     0.19  -0.04   0.19
   4   6     0.03  -0.06  -0.08     0.03   0.10   0.09    -0.36  -0.04  -0.10
   5   6     0.17   0.02   0.02     0.03  -0.14  -0.05     0.25   0.06  -0.07
   6   6    -0.20  -0.04   0.12    -0.01   0.16   0.04    -0.16   0.04  -0.10
   7   6     0.16   0.04  -0.20     0.09  -0.10  -0.03     0.28   0.03   0.09
   8   6    -0.01  -0.03   0.20    -0.11   0.09   0.05    -0.17  -0.08   0.00
   9  17     0.00  -0.00   0.00    -0.00   0.00  -0.00    -0.00   0.00  -0.00
  10   1     0.06   0.03  -0.04    -0.27  -0.02  -0.19    -0.07  -0.00  -0.06
  11   1    -0.20   0.08  -0.20     0.12  -0.11   0.07     0.05  -0.03   0.03
  12   1     0.08   0.03   0.00     0.00  -0.11   0.02     0.04  -0.04   0.03
  13   1     0.04  -0.25   0.09     0.14  -0.13   0.07    -0.02  -0.01  -0.01
  14   1    -0.01   0.23   0.10     0.13  -0.24   0.03    -0.02   0.01  -0.00
  15   1    -0.21   0.20  -0.02     0.06  -0.03  -0.04     0.07   0.01   0.18
  16   1     0.05   0.01   0.07    -0.16  -0.01  -0.13    -0.28  -0.03  -0.07
  17   1     0.03   0.05  -0.04     0.11  -0.05   0.09    -0.20  -0.02  -0.06
  18   1     0.08   0.05  -0.01     0.12   0.07  -0.08     0.19   0.05  -0.13
  19   1     0.07   0.00  -0.09    -0.12  -0.04  -0.03    -0.05   0.02   0.01
  20   1     0.10   0.00  -0.02    -0.12   0.03   0.02     0.04   0.03   0.07
  21   1    -0.09   0.14   0.10     0.06  -0.06   0.10    -0.10   0.02  -0.23
  22   1     0.07   0.08  -0.07     0.11   0.11  -0.04     0.25   0.01   0.08
  23   1     0.04   0.03   0.04    -0.13  -0.01   0.09     0.26   0.02   0.07
  24   1    -0.07  -0.01  -0.04    -0.17   0.04   0.24     0.08  -0.02  -0.08
  25   1    -0.01   0.09   0.09     0.03  -0.04  -0.06    -0.22  -0.05   0.17
                     28                     29                     30
                        a                      a                      a 
 Frequencies --  1081.9339              1096.6345              1150.0076
 Red. masses --     4.4716                 6.8310                 3.8932
 Frc consts  --     0.0000                 0.0000                 0.0000
 IR Inten    --     1.2044                 0.3470                 0.6923
 Raman Activ --     0.0000                 0.0000                 0.0000
 Depolar     --     0.0000                 0.0000                 0.0000
 Atom AN      X      Y      Z        X      Y      Z        X      Y      Z
   1   7     0.08  -0.05  -0.02     0.01  -0.03  -0.02    -0.02   0.04   0.08
   2   6    -0.14   0.12   0.07    -0.02   0.04   0.06     0.04  -0.04  -0.16
   3   6     0.12  -0.10  -0.23     0.03  -0.01   0.01     0.04  -0.03   0.26
   4   6    -0.09  -0.11   0.09    -0.18   0.00   0.04    -0.13  -0.10  -0.03
   5   6     0.11   0.03  -0.18     0.22  -0.07  -0.29     0.07   0.02  -0.07
   6   6    -0.03   0.03   0.13     0.11   0.05   0.42     0.02   0.07   0.07
   7   6     0.13   0.05  -0.04    -0.32   0.02  -0.15    -0.10  -0.15  -0.02
   8   6    -0.19   0.02   0.20     0.17  -0.01  -0.04     0.10   0.20  -0.14
   9  17    -0.00  -0.00  -0.00    -0.00  -0.00   0.00    -0.00   0.00   0.00
  10   1     0.05  -0.01   0.08     0.02  -0.00   0.02    -0.04   0.00  -0.07
  11   1     0.02   0.02   0.06    -0.01   0.01   0.02    -0.00  -0.02  -0.04
  12   1    -0.08   0.04  -0.04    -0.03   0.02  -0.02     0.09  -0.03   0.05
  13   1     0.00   0.18  -0.03     0.02   0.06   0.00    -0.06  -0.07  -0.04
  14   1    -0.00  -0.07  -0.06     0.01  -0.03  -0.02    -0.01   0.06   0.05
  15   1     0.02  -0.10  -0.22    -0.03  -0.04  -0.21    -0.05  -0.01  -0.13
  16   1     0.24  -0.00   0.10    -0.22  -0.03  -0.11     0.05  -0.01   0.07
  17   1    -0.31  -0.05  -0.06     0.17  -0.03   0.09     0.14   0.03   0.02
  18   1     0.08  -0.06  -0.11     0.11  -0.02  -0.12    -0.32   0.00   0.29
  19   1     0.26   0.00  -0.19     0.05  -0.02  -0.06     0.21  -0.00  -0.18
  20   1    -0.02  -0.01  -0.16     0.08   0.04   0.34    -0.06   0.00  -0.07
  21   1     0.04   0.06   0.27     0.03   0.01   0.10    -0.05  -0.05  -0.24
  22   1     0.17   0.04   0.03    -0.13  -0.00  -0.05     0.41   0.10   0.08
  23   1    -0.14   0.00  -0.04    -0.07   0.01  -0.03    -0.30  -0.04   0.01
  24   1    -0.22   0.01   0.20     0.15  -0.01  -0.21     0.02   0.06   0.14
  25   1    -0.09   0.01   0.09    -0.15   0.06   0.18    -0.09  -0.07   0.04
                     31                     32                     33
                        a                      a                      a 
 Frequencies --  1158.5446              1160.7651              1221.4819
 Red. masses --     3.7976                 7.8189                 3.1347
 Frc consts  --     0.0000                 0.0000                 0.0000
 IR Inten    --     1.5767                 0.6460                13.6217
 Raman Activ --     0.0000                 0.0000                 0.0000
 Depolar     --     0.0000                 0.0000                 0.0000
 Atom AN      X      Y      Z        X      Y      Z        X      Y      Z
   1   7     0.04  -0.06  -0.07    -0.04  -0.08   0.02     0.18   0.05  -0.18
   2   6    -0.05   0.08   0.13     0.12   0.26  -0.05    -0.15  -0.10   0.17
   3   6    -0.06  -0.03  -0.28    -0.03  -0.40  -0.00    -0.00  -0.02   0.04
   4   6     0.16   0.10   0.06     0.01   0.28  -0.01    -0.06  -0.02  -0.00
   5   6    -0.10  -0.03   0.09    -0.01  -0.30   0.05     0.07  -0.05  -0.01
   6   6    -0.02  -0.02  -0.12     0.01   0.27  -0.06    -0.05   0.15   0.01
   7   6     0.12   0.06   0.04     0.03  -0.26   0.05     0.03  -0.09  -0.02
   8   6    -0.09  -0.09   0.15    -0.04   0.22  -0.01    -0.01   0.03  -0.01
   9  17    -0.00  -0.00   0.00     0.00  -0.00   0.00    -0.00   0.00  -0.00
  10   1     0.03  -0.01   0.05     0.08   0.01   0.03    -0.07  -0.03   0.08
  11   1    -0.00   0.03   0.06    -0.09   0.05  -0.06     0.15  -0.01   0.18
  12   1    -0.07   0.05  -0.05     0.03   0.05  -0.00    -0.19  -0.02  -0.09
  13   1     0.08   0.04   0.05    -0.05   0.02  -0.02     0.37  -0.18   0.20
  14   1     0.00  -0.05  -0.06    -0.02   0.18   0.04    -0.38   0.29  -0.33
  15   1    -0.07  -0.07  -0.38     0.05  -0.19   0.01    -0.08   0.16   0.09
  16   1     0.01   0.01  -0.06     0.08   0.04  -0.17     0.09   0.01   0.04
  17   1     0.34   0.01   0.12    -0.09  -0.12   0.06     0.00  -0.01   0.01
  18   1    -0.14   0.02   0.14     0.12   0.11  -0.05    -0.11   0.00   0.12
  19   1    -0.13  -0.00   0.10    -0.19  -0.08  -0.08     0.09  -0.02  -0.16
  20   1     0.00  -0.00   0.01    -0.18   0.05   0.04    -0.08   0.03  -0.00
  21   1    -0.06  -0.03  -0.27     0.09  -0.11   0.05     0.01  -0.02   0.01
  22   1     0.20  -0.01   0.08    -0.03   0.08  -0.06    -0.10   0.01  -0.05
  23   1     0.16   0.02   0.01    -0.02  -0.04   0.18     0.09  -0.01   0.09
  24   1    -0.03  -0.03  -0.09     0.13   0.06   0.06     0.10   0.01  -0.05
  25   1    -0.30   0.06   0.32    -0.07  -0.10   0.01     0.03  -0.02  -0.04
                     34                     35                     36
                        a                      a                      a 
 Frequencies --  1239.3479              1241.7580              1249.3414
 Red. masses --     3.4691                 3.3198                 3.6115
 Frc consts  --     0.0000                 0.0000                 0.0000
 IR Inten    --     1.2213                 0.1194                 0.0423
 Raman Activ --     0.0000                 0.0000                 0.0000
 Depolar     --     0.0000                 0.0000                 0.0000
 Atom AN      X      Y      Z        X      Y      Z        X      Y      Z
   1   7     0.06  -0.01  -0.07     0.00   0.00  -0.00    -0.01  -0.02   0.01
   2   6     0.01   0.07   0.03    -0.00  -0.02  -0.01     0.03   0.13  -0.02
   3   6    -0.06  -0.21   0.04     0.01   0.03   0.11     0.16  -0.26  -0.00
   4   6     0.01   0.09  -0.03    -0.02  -0.08  -0.09    -0.15  -0.04   0.03
   5   6    -0.05   0.12   0.01     0.01   0.25   0.10     0.13   0.13  -0.03
   6   6     0.10  -0.30   0.03    -0.02  -0.04  -0.13    -0.12   0.01   0.02
   7   6    -0.07   0.12  -0.03     0.02  -0.22   0.16     0.13   0.10  -0.03
   8   6     0.04   0.12   0.00     0.01   0.07  -0.12    -0.16  -0.04   0.04
   9  17     0.00   0.00  -0.00    -0.00   0.00   0.00     0.00   0.00   0.00
  10   1    -0.00  -0.01   0.04    -0.02  -0.00  -0.02     0.03   0.01   0.02
  11   1     0.03   0.02   0.04     0.00   0.00   0.02    -0.02   0.01  -0.02
  12   1    -0.07   0.01  -0.04     0.02   0.01   0.00     0.00   0.02  -0.00
  13   1     0.15  -0.10   0.09     0.01  -0.02   0.01    -0.02   0.04  -0.01
  14   1    -0.19   0.23  -0.13    -0.01  -0.00  -0.01    -0.02   0.08  -0.00
  15   1     0.04  -0.12   0.07    -0.06   0.01  -0.17     0.10  -0.20  -0.07
  16   1    -0.15   0.00  -0.08    -0.22  -0.02  -0.00    -0.35  -0.04  -0.10
  17   1     0.04  -0.01   0.02     0.21   0.07   0.00     0.39   0.01   0.13
  18   1     0.19  -0.07  -0.21     0.10  -0.01  -0.09    -0.16   0.01   0.17
  19   1    -0.22   0.04   0.30     0.04   0.07   0.09     0.12   0.03  -0.06
  20   1     0.16  -0.06  -0.01    -0.11  -0.06  -0.49     0.01   0.01  -0.04
  21   1    -0.03   0.04  -0.02     0.11   0.06   0.46    -0.04   0.06   0.04
  22   1     0.30  -0.00   0.11    -0.07  -0.00  -0.01    -0.24  -0.03  -0.07
  23   1    -0.37  -0.02  -0.18    -0.06  -0.05   0.09     0.15   0.03   0.00
  24   1    -0.10   0.04   0.16     0.20   0.01  -0.13    -0.23  -0.00   0.24
  25   1     0.06  -0.01  -0.05    -0.21  -0.05   0.15     0.23  -0.04  -0.25
                     37                     38                     39
                        a                      a                      a 
 Frequencies --  1287.3423              1319.1043              1331.5039
 Red. masses --     3.9506                 4.2381                 3.7249
 Frc consts  --     0.0000                 0.0000                 0.0000
 IR Inten    --     7.2219                 5.6745                 0.4855
 Raman Activ --     0.0000                 0.0000                 0.0000
 Depolar     --     0.0000                 0.0000                 0.0000
 Atom AN      X      Y      Z        X      Y      Z        X      Y      Z
   1   7    -0.04  -0.10  -0.06    -0.06  -0.07  -0.09    -0.04  -0.02  -0.04
   2   6    -0.06   0.24  -0.02    -0.10   0.22  -0.13    -0.02   0.03  -0.01
   3   6    -0.13   0.05  -0.30     0.02   0.15   0.31     0.04   0.01   0.11
   4   6     0.04  -0.13   0.13    -0.16  -0.00  -0.14     0.20   0.04   0.07
   5   6    -0.04   0.08  -0.03     0.01  -0.05   0.05     0.13  -0.00  -0.13
   6   6     0.01   0.02   0.02     0.01   0.00  -0.02    -0.04  -0.03  -0.20
   7   6     0.00  -0.09  -0.02    -0.07   0.05   0.02    -0.19  -0.03  -0.06
   8   6     0.00   0.08   0.12     0.04  -0.09  -0.13    -0.17  -0.01   0.19
   9  17     0.00  -0.00  -0.00    -0.00  -0.00  -0.00    -0.00   0.00   0.00
  10   1     0.12   0.01   0.07     0.09   0.01   0.06     0.03   0.01   0.03
  11   1    -0.03   0.02   0.03     0.00   0.01   0.11     0.01   0.00   0.07
  12   1     0.01   0.06  -0.03     0.07   0.06  -0.02     0.07   0.03   0.01
  13   1     0.20  -0.22   0.14     0.30  -0.40   0.21     0.05  -0.05   0.03
  14   1     0.17  -0.16   0.10     0.16  -0.16   0.11     0.03  -0.03   0.02
  15   1     0.27  -0.20   0.48     0.08  -0.25  -0.23    -0.06  -0.03  -0.25
  16   1    -0.20  -0.05   0.03     0.28   0.04   0.12    -0.21  -0.02  -0.06
  17   1     0.02  -0.00   0.02     0.04   0.01  -0.01    -0.27  -0.04  -0.07
  18   1    -0.09  -0.02   0.06     0.11   0.04  -0.08    -0.22   0.02   0.21
  19   1     0.20   0.02  -0.10    -0.07  -0.01   0.03    -0.10   0.01   0.10
  20   1    -0.02  -0.00  -0.05    -0.00   0.00   0.01     0.04   0.02   0.16
  21   1    -0.00  -0.01  -0.04     0.02  -0.00   0.03     0.08   0.04   0.30
  22   1     0.10   0.05  -0.00    -0.04  -0.02   0.01     0.32   0.03   0.09
  23   1    -0.11  -0.02   0.02     0.17   0.02   0.00     0.14   0.01   0.05
  24   1     0.17   0.01  -0.15    -0.15  -0.02   0.12     0.20  -0.01  -0.17
  25   1    -0.03   0.02   0.05     0.01  -0.01  -0.03     0.23   0.01  -0.21
                     40                     41                     42
                        a                      a                      a 
 Frequencies --  1345.4981              1349.8159              1350.7045
 Red. masses --     4.3866                 4.3277                 4.1928
 Frc consts  --     0.0000                 0.0000                 0.0000
 IR Inten    --     1.7027                 3.5196                 1.3841
 Raman Activ --     0.0000                 0.0000                 0.0000
 Depolar     --     0.0000                 0.0000                 0.0000
 Atom AN      X      Y      Z        X      Y      Z        X      Y      Z
   1   7     0.01  -0.01  -0.01    -0.02  -0.03  -0.03     0.02   0.03   0.02
   2   6    -0.12   0.07  -0.02    -0.06   0.07  -0.04     0.13  -0.10  -0.00
   3   6     0.22  -0.09   0.05    -0.04  -0.05   0.14    -0.15   0.17   0.12
   4   6    -0.08   0.03  -0.09     0.31   0.03   0.05     0.17  -0.07  -0.04
   5   6    -0.14  -0.02   0.16    -0.02  -0.01  -0.05    -0.27   0.02   0.24
   6   6     0.01  -0.03   0.03    -0.08  -0.02  -0.05     0.07   0.04  -0.08
   7   6     0.19  -0.01  -0.02     0.31   0.06   0.14    -0.04   0.03  -0.01
   8   6    -0.29   0.06   0.19     0.06   0.01  -0.18    -0.05  -0.07   0.03
   9  17    -0.00  -0.00   0.00    -0.00  -0.00  -0.00     0.00   0.00   0.00
  10   1    -0.03  -0.01   0.03     0.04   0.01   0.02    -0.02   0.00  -0.02
  11   1    -0.03   0.02  -0.01     0.01   0.00   0.07     0.01  -0.02  -0.04
  12   1    -0.02  -0.01  -0.00     0.04   0.03  -0.00    -0.03  -0.03   0.00
  13   1     0.06  -0.05   0.04     0.12  -0.11   0.07    -0.04   0.05  -0.04
  14   1     0.12  -0.18   0.06     0.05  -0.06   0.05    -0.15   0.23  -0.06
  15   1    -0.16   0.24  -0.18    -0.12   0.08  -0.15     0.15  -0.40  -0.21
  16   1     0.06   0.01  -0.01    -0.33  -0.03  -0.07    -0.20  -0.03  -0.00
  17   1     0.18   0.03   0.03    -0.32  -0.04  -0.10    -0.06   0.04  -0.07
  18   1     0.18   0.01  -0.16    -0.12  -0.02   0.09     0.18  -0.04  -0.19
  19   1     0.11  -0.01  -0.12     0.04  -0.01  -0.06     0.34  -0.02  -0.33
  20   1     0.04   0.00   0.06     0.03   0.02   0.16     0.01   0.03   0.15
  21   1    -0.04  -0.03  -0.17    -0.05   0.04  -0.06     0.02  -0.05  -0.07
  22   1    -0.02   0.05  -0.06    -0.34  -0.04  -0.08     0.07  -0.00   0.03
  23   1    -0.30  -0.03  -0.09    -0.32  -0.03  -0.12     0.07   0.01  -0.00
  24   1     0.32   0.01  -0.22    -0.09   0.01   0.09     0.02  -0.02  -0.06
  25   1     0.21  -0.04  -0.23    -0.19  -0.05   0.13     0.02   0.01  -0.02
                     43                     44                     45
                        a                      a                      a 
 Frequencies --  1355.3116              1361.2541              1378.4651
 Red. masses --     4.6005                 4.4584                 2.5498
 Frc consts  --     0.0000                 0.0000                 0.0000
 IR Inten    --     2.5409                 0.2035               134.8262
 Raman Activ --     0.0000                 0.0000                 0.0000
 Depolar     --     0.0000                 0.0000                 0.0000
 Atom AN      X      Y      Z        X      Y      Z        X      Y      Z
   1   7    -0.03  -0.00  -0.02     0.01   0.03   0.02    -0.31   0.04  -0.10
   2   6     0.01   0.01  -0.01     0.13  -0.09   0.00     0.02  -0.08   0.03
   3   6    -0.02   0.02   0.08    -0.09   0.27   0.02     0.01  -0.02  -0.04
   4   6     0.17   0.04   0.05    -0.13  -0.03   0.02    -0.04   0.00  -0.01
   5   6    -0.05   0.03  -0.15     0.19  -0.02  -0.14    -0.01   0.00   0.03
   6   6     0.11   0.06   0.46    -0.10  -0.05   0.03    -0.00  -0.01  -0.01
   7   6    -0.03  -0.06  -0.13     0.28   0.00   0.05     0.02   0.00   0.00
   8   6    -0.06  -0.03   0.07    -0.17  -0.03   0.07    -0.01   0.01   0.02
   9  17    -0.00   0.00  -0.00     0.00   0.00   0.00    -0.01   0.00  -0.00
  10   1     0.03   0.01   0.02    -0.02   0.00  -0.02     0.53   0.18  -0.01
  11   1     0.02  -0.01   0.05    -0.01  -0.01  -0.07     0.36  -0.40   0.34
  12   1     0.04   0.01   0.01    -0.03  -0.03   0.01     0.32   0.11   0.05
  13   1     0.01  -0.04   0.02    -0.06   0.04  -0.04    -0.03   0.13  -0.05
  14   1    -0.00   0.01  -0.01    -0.09   0.15  -0.05    -0.06   0.09   0.00
  15   1    -0.02  -0.05  -0.14     0.23  -0.41  -0.09    -0.02   0.04   0.02
  16   1    -0.15  -0.01  -0.06     0.24   0.02   0.07     0.05   0.00   0.00
  17   1    -0.22  -0.01  -0.07    -0.01  -0.00   0.01     0.07   0.01   0.02
  18   1    -0.00  -0.07  -0.07    -0.13   0.00   0.13     0.03   0.00  -0.03
  19   1    -0.08   0.01   0.11    -0.21   0.00   0.17     0.00  -0.00  -0.02
  20   1    -0.13  -0.06  -0.53     0.04  -0.01  -0.00     0.02   0.00   0.02
  21   1    -0.09  -0.05  -0.38    -0.05   0.04  -0.01    -0.00  -0.00  -0.01
  22   1    -0.06   0.04  -0.07    -0.20  -0.01  -0.07    -0.01  -0.00  -0.00
  23   1     0.16   0.01   0.07    -0.30  -0.03  -0.07    -0.05  -0.00  -0.01
  24   1     0.03  -0.01  -0.07     0.21  -0.01  -0.21     0.02   0.00  -0.02
  25   1     0.10  -0.02  -0.09     0.01  -0.02  -0.03     0.00  -0.01  -0.00
                     46                     47                     48
                        a                      a                      a 
 Frequencies --  1407.4870              1447.3595              1483.4921
 Red. masses --     1.5960                 1.9048                 1.8785
 Frc consts  --     0.0000                 0.0000                 0.0000
 IR Inten    --    67.0562                81.4728                11.4229
 Raman Activ --     0.0000                 0.0000                 0.0000
 Depolar     --     0.0000                 0.0000                 0.0000
 Atom AN      X      Y      Z        X      Y      Z        X      Y      Z
   1   7    -0.01  -0.12  -0.14     0.06  -0.15   0.20    -0.01   0.03  -0.02
   2   6     0.05  -0.09  -0.01    -0.01  -0.00   0.02     0.14   0.18   0.14
   3   6    -0.01   0.03  -0.03     0.00   0.01   0.01    -0.00  -0.00   0.01
   4   6    -0.03  -0.01  -0.00     0.00  -0.00  -0.00     0.00  -0.00   0.00
   5   6    -0.01  -0.00   0.01    -0.00   0.00  -0.00     0.01   0.01   0.02
   6   6    -0.00  -0.00   0.00    -0.00   0.00   0.01     0.00  -0.00  -0.01
   7   6     0.01  -0.00   0.00    -0.00  -0.00  -0.00    -0.01  -0.03   0.06
   8   6    -0.00  -0.00   0.01    -0.03  -0.02  -0.02     0.02   0.01   0.01
   9  17     0.00  -0.00  -0.01     0.00  -0.00  -0.00    -0.00   0.00  -0.00
  10   1    -0.30  -0.11   0.11     0.03   0.03  -0.68     0.02   0.01   0.07
  11   1    -0.15   0.46   0.54    -0.00   0.00   0.07     0.04  -0.02   0.04
  12   1     0.47   0.24   0.04    -0.16   0.62  -0.16     0.06  -0.05   0.03
  13   1    -0.07   0.09  -0.06    -0.03  -0.07   0.02    -0.52  -0.39   0.02
  14   1    -0.04   0.06  -0.00    -0.02  -0.03  -0.09    -0.04  -0.27  -0.59
  15   1     0.03  -0.01   0.05     0.00   0.00  -0.00     0.00  -0.01  -0.00
  16   1     0.03   0.00   0.01     0.00   0.00   0.01    -0.00  -0.00  -0.01
  17   1     0.03   0.01   0.00    -0.01  -0.00  -0.00    -0.01   0.01  -0.01
  18   1     0.01   0.00  -0.01    -0.00  -0.01  -0.00    -0.01  -0.05  -0.01
  19   1     0.02  -0.00  -0.02    -0.00  -0.00  -0.01    -0.02  -0.01  -0.06
  20   1    -0.00   0.00   0.01     0.01   0.00  -0.00    -0.01   0.00   0.02
  21   1    -0.00  -0.00  -0.02    -0.00  -0.01  -0.01    -0.00   0.01   0.01
  22   1    -0.02   0.00  -0.01    -0.00   0.02  -0.01     0.00   0.15  -0.06
  23   1    -0.03  -0.00  -0.02     0.00  -0.00  -0.02     0.02  -0.02  -0.15
  24   1     0.01   0.00  -0.01     0.07   0.00   0.06    -0.03  -0.00  -0.03
  25   1     0.01   0.00  -0.01     0.04   0.08  -0.01    -0.01  -0.05  -0.01
                     49                     50                     51
                        a                      a                      a 
 Frequencies --  1502.3194              1508.5102              1516.8835
 Red. masses --     1.9084                 1.9300                 1.8905
 Frc consts  --     0.0000                 0.0000                 0.0000
 IR Inten    --     5.5247                 5.1761                 1.5124
 Raman Activ --     0.0000                 0.0000                 0.0000
 Depolar     --     0.0000                 0.0000                 0.0000
 Atom AN      X      Y      Z        X      Y      Z        X      Y      Z
   1   7    -0.00   0.01  -0.00    -0.01   0.01  -0.02    -0.00   0.01  -0.01
   2   6     0.01  -0.01   0.00     0.01   0.01  -0.00    -0.01  -0.00  -0.01
   3   6     0.00   0.00  -0.03    -0.01  -0.01  -0.01    -0.01  -0.01  -0.00
   4   6     0.06   0.13  -0.22     0.01  -0.01   0.03    -0.02  -0.05   0.09
   5   6     0.01   0.02   0.01     0.01   0.03   0.01    -0.02  -0.04  -0.02
   6   6     0.06  -0.03   0.01    -0.17   0.11   0.04     0.14  -0.09  -0.02
   7   6    -0.01  -0.02   0.02    -0.01  -0.01   0.01    -0.01  -0.06   0.07
   8   6    -0.05  -0.06  -0.03    -0.09  -0.12  -0.11    -0.09  -0.11  -0.09
   9  17    -0.00   0.00   0.00    -0.00  -0.00  -0.00    -0.00   0.00   0.00
  10   1    -0.00  -0.00   0.03     0.00  -0.00   0.06     0.00  -0.00   0.04
  11   1     0.00  -0.00  -0.01     0.00  -0.00  -0.00     0.00  -0.01  -0.01
  12   1     0.02  -0.03   0.01     0.03  -0.06   0.02     0.01  -0.05   0.01
  13   1    -0.02   0.03  -0.02    -0.01  -0.02   0.00     0.03   0.02   0.00
  14   1    -0.00   0.00   0.00     0.01  -0.01  -0.01    -0.01   0.03   0.03
  15   1     0.00   0.01  -0.00    -0.00  -0.01   0.00     0.00  -0.01   0.00
  16   1    -0.18   0.10   0.58     0.00  -0.01  -0.06     0.07  -0.04  -0.23
  17   1    -0.01  -0.57   0.27    -0.01   0.05  -0.03     0.00   0.21  -0.10
  18   1    -0.01  -0.08  -0.02    -0.03  -0.09  -0.01     0.02   0.12   0.02
  19   1    -0.05  -0.00  -0.05    -0.07  -0.00  -0.07     0.08   0.00   0.09
  20   1    -0.14  -0.01   0.02     0.46   0.04  -0.12    -0.39  -0.04   0.09
  21   1    -0.05   0.13  -0.01     0.17  -0.45   0.01    -0.15   0.37  -0.01
  22   1     0.00   0.06  -0.03    -0.01   0.02  -0.01     0.01   0.21  -0.10
  23   1     0.02  -0.01  -0.06     0.01  -0.00  -0.02     0.08  -0.04  -0.22
  24   1     0.15   0.01   0.13     0.30   0.03   0.33     0.28   0.02   0.30
  25   1     0.03   0.20   0.03     0.05   0.45   0.08     0.05   0.40   0.07
                     52                     53                     54
                        a                      a                      a 
 Frequencies --  1520.5490              1528.3337              2866.2344
 Red. masses --     1.9472                 1.9759                 1.9912
 Frc consts  --     0.0000                 0.0000                 0.0000
 IR Inten    --     1.8578                 0.7054              1575.4782
 Raman Activ --     0.0000                 0.0000                 0.0000
 Depolar     --     0.0000                 0.0000                 0.0000
 Atom AN      X      Y      Z        X      Y      Z        X      Y      Z
   1   7    -0.00   0.01  -0.01     0.01   0.00   0.00    -0.20  -0.15   0.08
   2   6     0.03   0.03   0.03    -0.02  -0.03  -0.01     0.01   0.01  -0.01
   3   6     0.00   0.00   0.01    -0.00   0.00  -0.00     0.06   0.04  -0.02
   4   6     0.01   0.01  -0.03     0.01   0.01  -0.04     0.00  -0.01   0.00
   5   6    -0.13  -0.14  -0.11    -0.09  -0.11  -0.10     0.00  -0.01   0.01
   6   6    -0.00  -0.00  -0.00    -0.09   0.04   0.02     0.00   0.00  -0.00
   7   6     0.05   0.08  -0.14    -0.04  -0.09   0.17     0.00  -0.01  -0.01
   8   6    -0.03  -0.03  -0.04     0.04   0.03   0.04     0.01  -0.01   0.00
   9  17    -0.00   0.00  -0.00    -0.00   0.00   0.00     0.01   0.01  -0.00
  10   1     0.00   0.00   0.02    -0.00   0.00  -0.02    -0.02   0.02   0.01
  11   1     0.01  -0.00   0.02     0.00  -0.00  -0.00     0.72   0.52  -0.25
  12   1     0.02  -0.01   0.01    -0.02   0.01  -0.01    -0.00  -0.02  -0.03
  13   1    -0.11  -0.08   0.00     0.06   0.05  -0.01     0.00   0.00   0.00
  14   1    -0.02  -0.05  -0.14    -0.03   0.07   0.05    -0.05  -0.04   0.03
  15   1    -0.00  -0.01  -0.01     0.00   0.00   0.00    -0.21  -0.12   0.07
  16   1    -0.03   0.01   0.06    -0.03   0.01   0.09    -0.00   0.02  -0.00
  17   1    -0.01  -0.06   0.02    -0.01  -0.08   0.03     0.00  -0.01  -0.01
  18   1     0.09   0.49   0.06     0.06   0.40   0.06    -0.01   0.00  -0.02
  19   1     0.36   0.03   0.35     0.28   0.02   0.30    -0.00   0.02  -0.00
  20   1    -0.00  -0.00  -0.00     0.20   0.02  -0.05     0.00   0.00  -0.00
  21   1    -0.01  -0.00  -0.02     0.07  -0.19   0.01    -0.01  -0.01   0.00
  22   1    -0.02  -0.36   0.16     0.01   0.42  -0.19    -0.01   0.01   0.02
  23   1    -0.14   0.05   0.37     0.15  -0.06  -0.44    -0.00   0.03  -0.00
  24   1     0.09   0.01   0.08    -0.10  -0.01  -0.09     0.00   0.03  -0.00
  25   1     0.02   0.12   0.01    -0.02  -0.13  -0.01    -0.02   0.01  -0.02
                     55                     56                     57
                        a                      a                      a 
 Frequencies --  2869.2196              2898.7163              2900.7569
 Red. masses --     1.7820                 1.9454                 1.9219
 Frc consts  --     0.0000                 0.0000                 0.0000
 IR Inten    --   103.5528                30.1977                28.9398
 Raman Activ --     0.0000                 0.0000                 0.0000
 Depolar     --     0.0000                 0.0000                 0.0000
 Atom AN      X      Y      Z        X      Y      Z        X      Y      Z
   1   7    -0.05  -0.04   0.02    -0.01  -0.00   0.00     0.01   0.01  -0.00
   2   6     0.01   0.00  -0.01    -0.00  -0.00   0.00     0.00   0.00   0.00
   3   6    -0.21  -0.12   0.07    -0.00  -0.00  -0.00     0.00   0.00  -0.00
   4   6    -0.01   0.00  -0.00     0.00   0.01  -0.00    -0.00   0.02   0.00
   5   6     0.01  -0.00   0.00     0.05  -0.07   0.06     0.11  -0.15   0.12
   6   6     0.01   0.00  -0.00    -0.03  -0.04   0.02     0.11   0.13  -0.04
   7   6     0.00  -0.00  -0.00    -0.06   0.22   0.14     0.01  -0.05  -0.02
   8   6    -0.00   0.00   0.01     0.00  -0.02   0.01    -0.00   0.00  -0.00
   9  17     0.00   0.00  -0.00     0.00   0.00  -0.00    -0.00  -0.00   0.00
  10   1    -0.00   0.00   0.00    -0.00   0.00   0.00     0.00  -0.00  -0.00
  11   1     0.19   0.14  -0.06     0.02   0.02  -0.01    -0.03  -0.02   0.01
  12   1    -0.00  -0.01  -0.01     0.00  -0.00  -0.00    -0.00   0.00   0.00
  13   1    -0.00   0.01   0.02    -0.00  -0.00   0.00     0.00  -0.00  -0.01
  14   1    -0.07  -0.04   0.03     0.01   0.00  -0.00    -0.01  -0.01   0.01
  15   1     0.77   0.46  -0.25     0.01   0.00  -0.00    -0.02  -0.01   0.01
  16   1     0.00  -0.03   0.00     0.00  -0.04   0.01     0.00  -0.08   0.01
  17   1    -0.00   0.01   0.01    -0.00   0.00   0.00     0.01  -0.00  -0.02
  18   1    -0.01   0.01  -0.01    -0.19   0.06  -0.20    -0.39   0.12  -0.41
  19   1     0.00   0.00   0.00     0.00   0.20  -0.01     0.00   0.45  -0.02
  20   1     0.00  -0.00  -0.00    -0.02   0.12  -0.01     0.05  -0.34   0.03
  21   1    -0.02  -0.01   0.01     0.11   0.04  -0.03    -0.42  -0.16   0.12
  22   1    -0.01   0.01   0.02     0.20  -0.27  -0.60    -0.03   0.04   0.11
  23   1     0.00   0.00  -0.00     0.02  -0.52   0.10    -0.01   0.14  -0.03
  24   1     0.00  -0.02   0.00    -0.00   0.10  -0.01    -0.00  -0.01   0.00
  25   1    -0.02   0.01  -0.02    -0.02   0.00  -0.02     0.01  -0.00   0.01
                     58                     59                     60
                        a                      a                      a 
 Frequencies --  2903.1667              2914.7191              2918.0188
 Red. masses --     1.8856                 1.9185                 1.8939
 Frc consts  --     0.0000                 0.0000                 0.0000
 IR Inten    --    33.2261                23.4066                27.2317
 Raman Activ --     0.0000                 0.0000                 0.0000
 Depolar     --     0.0000                 0.0000                 0.0000
 Atom AN      X      Y      Z        X      Y      Z        X      Y      Z
   1   7     0.00   0.00  -0.00     0.01   0.01  -0.00    -0.00  -0.00   0.00
   2   6     0.00   0.00  -0.00     0.00  -0.00  -0.01     0.00  -0.00  -0.01
   3   6    -0.00   0.00  -0.00     0.00  -0.00   0.01    -0.00   0.01   0.00
   4   6    -0.00   0.03   0.01    -0.03   0.12   0.07    -0.06   0.19   0.14
   5   6     0.08  -0.08   0.09    -0.01  -0.01  -0.01    -0.03  -0.01  -0.03
   6   6    -0.16  -0.14   0.06    -0.00   0.00  -0.00     0.01  -0.01  -0.00
   7   6     0.02  -0.07  -0.07     0.02   0.00  -0.04    -0.01  -0.00   0.03
   8   6    -0.01   0.02  -0.01     0.13  -0.16   0.14    -0.07   0.08  -0.08
   9  17    -0.00   0.00   0.00    -0.00  -0.00   0.00     0.00   0.00  -0.00
  10   1     0.00  -0.00  -0.00     0.00  -0.00  -0.00    -0.00   0.00   0.00
  11   1    -0.01  -0.01   0.00    -0.03  -0.02   0.01     0.02   0.01  -0.01
  12   1    -0.00   0.00   0.00     0.00   0.00  -0.01    -0.00  -0.00   0.01
  13   1     0.00  -0.00  -0.00    -0.01   0.01   0.03    -0.01   0.01   0.03
  14   1    -0.01  -0.00   0.00     0.00   0.00  -0.00    -0.00  -0.00   0.00
  15   1     0.00   0.00  -0.00    -0.00  -0.00   0.00    -0.00  -0.00   0.00
  16   1     0.00  -0.10   0.02     0.01  -0.26   0.06     0.01  -0.41   0.09
  17   1     0.01  -0.02  -0.04     0.11  -0.15  -0.32     0.19  -0.29  -0.59
  18   1    -0.30   0.10  -0.32     0.05  -0.02   0.05     0.12  -0.05   0.13
  19   1     0.01   0.18  -0.00    -0.00   0.06  -0.01    -0.01   0.11  -0.02
  20   1    -0.05   0.23  -0.02    -0.00  -0.01   0.00    -0.00   0.06  -0.01
  21   1     0.63   0.25  -0.18     0.01   0.01  -0.00    -0.05  -0.02   0.01
  22   1    -0.09   0.13   0.28    -0.05   0.08   0.14     0.03  -0.05  -0.10
  23   1     0.00   0.09  -0.03     0.01  -0.10   0.01    -0.00   0.07  -0.00
  24   1     0.00  -0.08   0.00     0.00   0.42  -0.01    -0.00  -0.20   0.00
  25   1     0.04  -0.01   0.04    -0.47   0.14  -0.49     0.27  -0.08   0.28
                     61                     62                     63
                        a                      a                      a 
 Frequencies --  2937.5138              2939.1456              2943.9400
 Red. masses --     1.5302                 1.5129                 1.5902
 Frc consts  --     0.0000                 0.0000                 0.0000
 IR Inten    --    51.1360                35.8217                64.9817
 Raman Activ --     0.0000                 0.0000                 0.0000
 Depolar     --     0.0000                 0.0000                 0.0000
 Atom AN      X      Y      Z        X      Y      Z        X      Y      Z
   1   7     0.00   0.00   0.00    -0.00  -0.00   0.00     0.00   0.00  -0.00
   2   6     0.01   0.00  -0.02     0.02   0.01  -0.01     0.02   0.01  -0.01
   3   6     0.00  -0.00  -0.00    -0.00  -0.00  -0.00     0.01   0.00  -0.00
   4   6    -0.00   0.03  -0.00     0.01  -0.03  -0.04     0.02   0.02  -0.07
   5   6     0.02   0.05   0.02    -0.08  -0.14  -0.07    -0.02  -0.08  -0.02
   6   6    -0.04   0.02   0.01    -0.08   0.07   0.01     0.08  -0.16  -0.00
   7   6    -0.03  -0.12   0.14    -0.01  -0.01   0.02     0.00  -0.06   0.02
   8   6     0.03  -0.03   0.04     0.01   0.01   0.01     0.03   0.03   0.03
   9  17    -0.00  -0.00   0.00    -0.00   0.00  -0.00    -0.00  -0.00   0.00
  10   1    -0.00   0.00   0.00    -0.00   0.00   0.00    -0.00   0.00  -0.00
  11   1    -0.01  -0.01   0.00     0.00   0.00  -0.00    -0.01  -0.01   0.00
  12   1     0.00  -0.00  -0.01     0.00  -0.00  -0.00     0.00  -0.00  -0.00
  13   1    -0.01   0.02   0.05    -0.01   0.01   0.03    -0.01   0.01   0.03
  14   1    -0.03  -0.02   0.01    -0.06  -0.04   0.02    -0.05  -0.03   0.02
  15   1     0.00   0.00  -0.00     0.01   0.00  -0.00    -0.02  -0.01   0.01
  16   1     0.00  -0.09   0.01    -0.00   0.01  -0.01     0.01  -0.22   0.02
  17   1     0.00   0.00  -0.01    -0.05   0.08   0.15    -0.08   0.13   0.23
  18   1    -0.10   0.04  -0.10     0.31  -0.14   0.33     0.09  -0.04   0.09
  19   1     0.01  -0.22   0.02    -0.03   0.64  -0.07    -0.01   0.33  -0.03
  20   1     0.01  -0.14   0.02     0.02  -0.39   0.04    -0.05   0.70  -0.07
  21   1     0.14   0.07  -0.04     0.28   0.13  -0.08    -0.24  -0.13   0.07
  22   1     0.15  -0.25  -0.44     0.02  -0.04  -0.07     0.02  -0.04  -0.05
  23   1    -0.04   0.70  -0.08    -0.01   0.08  -0.01    -0.01   0.23  -0.03
  24   1    -0.00   0.07   0.00     0.00  -0.05   0.01     0.01  -0.15   0.02
  25   1    -0.11   0.04  -0.12    -0.03   0.01  -0.03    -0.12   0.05  -0.13
                     64                     65                     66
                        a                      a                      a 
 Frequencies --  2948.1745              2950.7885              2954.5119
 Red. masses --     1.5498                 1.6045                 1.9421
 Frc consts  --     0.0000                 0.0000                 0.0000
 IR Inten    --    43.3014                81.5783                 9.8078
 Raman Activ --     0.0000                 0.0000                 0.0000
 Depolar     --     0.0000                 0.0000                 0.0000
 Atom AN      X      Y      Z        X      Y      Z        X      Y      Z
   1   7     0.00   0.00  -0.00    -0.01  -0.01   0.01     0.01   0.01  -0.00
   2   6     0.02   0.00  -0.03    -0.03  -0.01   0.03     0.16   0.00  -0.24
   3   6     0.00  -0.00   0.01     0.01   0.01  -0.00     0.02   0.01  -0.01
   4   6    -0.02  -0.13   0.13     0.01   0.08  -0.05     0.00   0.02  -0.02
   5   6     0.00  -0.04   0.01     0.01   0.05   0.00     0.01   0.02   0.00
   6   6     0.01  -0.03   0.00    -0.01   0.06  -0.00    -0.00   0.02  -0.00
   7   6    -0.00  -0.01   0.02     0.00   0.05  -0.01     0.00   0.02  -0.02
   8   6     0.05   0.08   0.05     0.06   0.17   0.05    -0.00   0.01  -0.00
   9  17    -0.00  -0.00  -0.00     0.00   0.00  -0.00    -0.00  -0.00   0.00
  10   1     0.00  -0.00  -0.00    -0.00   0.00   0.00     0.00  -0.00   0.00
  11   1    -0.02  -0.01   0.01     0.03   0.02  -0.01    -0.04  -0.03   0.01
  12   1     0.00   0.00  -0.01     0.00  -0.00  -0.01     0.00  -0.00  -0.02
  13   1    -0.02   0.03   0.08     0.01  -0.02  -0.06    -0.17   0.26   0.72
  14   1    -0.05  -0.04   0.02     0.10   0.07  -0.04    -0.40  -0.27   0.14
  15   1     0.01   0.00   0.00    -0.03  -0.02   0.01    -0.05  -0.03   0.02
  16   1    -0.04   0.68  -0.09     0.02  -0.35   0.05     0.01  -0.09   0.01
  17   1     0.12  -0.22  -0.36    -0.04   0.07   0.12    -0.02   0.03   0.06
  18   1    -0.02   0.00  -0.02    -0.03   0.02  -0.03    -0.02   0.01  -0.02
  19   1    -0.00   0.13  -0.01     0.01  -0.19   0.02     0.01  -0.10   0.01
  20   1    -0.01   0.12  -0.01     0.02  -0.22   0.02     0.00  -0.06   0.01
  21   1    -0.02  -0.01   0.01     0.03   0.02  -0.01    -0.00   0.00   0.00
  22   1     0.02  -0.03  -0.06     0.00   0.01  -0.00    -0.01   0.03   0.04
  23   1    -0.00   0.05  -0.01     0.01  -0.17   0.02     0.00  -0.11   0.01
  24   1     0.02  -0.38   0.04     0.04  -0.71   0.06     0.00  -0.05   0.00
  25   1    -0.19   0.08  -0.20    -0.24   0.11  -0.26     0.01  -0.00   0.01
                     67                     68                     69
                        a                      a                      a 
 Frequencies --  2984.7170              3178.6069              3191.5012
 Red. masses --     1.5225                 2.0010                 1.5216
 Frc consts  --     0.0000                 0.0000                 0.0000
 IR Inten    --     8.6767                56.5342                19.4857
 Raman Activ --     0.0000                 0.0000                 0.0000
 Depolar     --     0.0000                 0.0000                 0.0000
 Atom AN      X      Y      Z        X      Y      Z        X      Y      Z
   1   7     0.02   0.01  -0.01    -0.08   0.17   0.20     0.04  -0.17   0.10
   2   6     0.13   0.15   0.07     0.00   0.00   0.01     0.00  -0.00   0.01
   3   6     0.01   0.01  -0.00     0.00  -0.00  -0.00    -0.00   0.00   0.00
   4   6    -0.00   0.01   0.00    -0.00   0.00   0.00    -0.00  -0.00   0.00
   5   6     0.00   0.02   0.00    -0.00  -0.00  -0.00     0.00  -0.00   0.00
   6   6    -0.00   0.01  -0.00    -0.00  -0.00   0.00     0.00  -0.00  -0.00
   7   6    -0.00   0.01  -0.00     0.00  -0.00  -0.00     0.00  -0.00  -0.00
   8   6     0.00   0.01   0.00    -0.00   0.00  -0.00    -0.00  -0.00  -0.00
   9  17    -0.00  -0.00   0.00     0.00  -0.00  -0.00     0.00   0.00  -0.00
  10   1     0.00  -0.00   0.00     0.13  -0.45  -0.00    -0.24   0.81   0.06
  11   1    -0.05  -0.03   0.02    -0.03   0.00   0.03    -0.04  -0.05   0.02
  12   1    -0.00   0.01   0.02     0.20  -0.17  -0.79     0.12  -0.13  -0.46
  13   1     0.15  -0.15  -0.51     0.01  -0.01  -0.02     0.00  -0.00  -0.01
  14   1    -0.64  -0.40   0.27    -0.00  -0.00   0.00    -0.01  -0.00   0.00
  15   1    -0.03  -0.02   0.01    -0.00  -0.00   0.00     0.00   0.00  -0.00
  16   1     0.00  -0.03   0.01    -0.00  -0.00  -0.00    -0.00   0.00  -0.00
  17   1     0.01  -0.01  -0.02     0.00  -0.00  -0.00     0.00  -0.00  -0.00
  18   1    -0.01   0.00  -0.01     0.00  -0.00   0.00    -0.00   0.00  -0.00
  19   1     0.00  -0.06   0.01    -0.00   0.00   0.00     0.00   0.00   0.00
  20   1     0.00  -0.02   0.00    -0.00   0.00  -0.00    -0.00   0.00  -0.00
  21   1     0.00   0.00  -0.00     0.00   0.00  -0.00    -0.00  -0.00   0.00
  22   1     0.00   0.00  -0.00    -0.00   0.00   0.00    -0.00   0.00   0.00
  23   1     0.00  -0.04   0.00    -0.00   0.00  -0.00     0.00  -0.00  -0.00
  24   1     0.00  -0.04   0.00     0.00   0.00  -0.00    -0.00   0.00  -0.00
  25   1    -0.01   0.01  -0.02     0.01  -0.00   0.01     0.01  -0.00   0.01
