22
 energy: -30.705379612784 gnorm: 0.000220332611 xtb: 6.5.1 (fef0646)
N            0.94143913152638        0.04943149716385        0.02360437022614
C            2.40650051501890        0.16855978815944        0.08978308645033
C            2.98897804169881       -1.18452447021214        0.49740707709984
C            2.95682251431952        0.60869499692797       -1.24602170389804
C            3.86704365955930        1.65516307633922       -1.31295380628166
C            4.39118942601163        2.05730750373534       -2.52915947312536
C            4.00588461500444        1.41770173569849       -3.69412718324684
C            3.09798201034644        0.37369776164584       -3.63490660638454
C            2.57655103011209       -0.03197865950077       -2.41941223380353
Cl          -0.11521020225175       -2.35525522144800       -1.25274053759907
H            0.54886752437316       -0.03907068917127        0.95494612130855
H            0.43361065874034       -1.21469654886384       -0.67088434989365
H            0.53063357562777        0.85554943682557       -0.43537017059243
H            2.69638215629713        0.91855940143038        0.84416885849042
H            2.72297950349073       -1.93750397541333       -0.23738672063183
H            2.59770265366218       -1.48901761343134        1.46510340629198
H            4.07151039116567       -1.11919083616716        0.56162113489981
H            4.17135778678920        2.15995392431195       -0.40620601556673
H            5.09873402670608        2.87267852867155       -2.56583445840947
H            4.41173171541404        1.73200636212631       -4.64430765891672
H            2.79444605932585       -0.12971297395103       -4.54078521880281
H            1.87057320706581       -0.84578302487445       -2.38086791762512
