21
 energy: -29.297725895683 gnorm: 0.000355565918 xtb: 6.5.1 (fef0646)
N            2.99745375860538        0.62266216813993       -1.20276260989983
C            2.44323896730256        1.59583780380200       -0.21461658090381
C            2.91484261777631        1.17992240039134        1.17972102257630
C            4.42180954468291        1.13884408361717        1.19868356571841
C            5.15760541246880        2.28499074575698        1.48129758898716
C            6.53804303131967        2.27050569400742        1.42553285207752
C            7.20002999125339        1.10025771864568        1.07394148039628
Br           9.09977316594287        1.07778872557304        0.97633837605170
C            6.48487394254510       -0.05568106300099        0.79717339406029
C            5.10055640510400       -0.03071518026073        0.85305253597380
H            3.00390657301882        0.99250236358597       -2.15888963872878
H            2.46265372808949       -0.25371702986286       -1.18991209365883
H            3.97331103855664        0.41423450488082       -0.87994802651575
H            1.35601996665350        1.61329101723339       -0.28359340183194
H            2.83140394046160        2.58660054329611       -0.45438432197111
H            2.50011221993066        0.20560576473867        1.44198073792947
H            2.54697295661274        1.90494015061861        1.90404992183504
H            4.64749086610067        3.19370251239444        1.76197230147926
H            7.10261520684405        3.15913316385447        1.65764061588922
H            7.00547262669312       -0.96700470713077        0.55059397648690
H            4.56040404003728       -0.95755138028017        0.70688830404793
