 Entering Gaussian System
 *********************************************
 Gaussian 98:
 frequency output generated by the xtb code
 *********************************************
                         Standard orientation:
 --------------------------------------------------------------------
  Center     Atomic     Atomic              Coordinates (Angstroms)
  Number     Number      Type              X           Y           Z
 --------------------------------------------------------------------
    1          7             0        3.536167    0.082949   -1.194743
    2          6             0        2.807333    0.570815    0.019289
    3          6             0        3.538366    0.180494    1.299027
    4          6             0        1.371371    0.100043    0.017925
    5          6             0        1.068544   -1.259796    0.027448
    6          6             0       -0.241029   -1.703569    0.024604
    7          6             0        0.329125    1.020558    0.001797
    8          6             0       -1.015227    0.607155   -0.002138
    9          6             0       -1.308484   -0.790613    0.010456
   10          6             0       -2.652717   -1.204536    0.008101
   11          6             0       -3.675352   -0.275011   -0.006777
   12          6             0       -3.391565    1.081618   -0.019880
   13          6             0       -2.081912    1.523901   -0.017685
   14          1             0        4.491689    0.466404   -1.241747
   15          1             0        3.043225    0.353281   -2.058061
   16          1             0        3.613961   -0.943331   -1.189041
   17          1             0        2.789199    1.672325   -0.040063
   18          1             0        3.024671    0.560368    2.183489
   19          1             0        4.558168    0.567868    1.308823
   20          1             0        3.600160   -0.903367    1.394309
   21          1             0        1.871620   -1.977130    0.037817
   22          1             0       -0.453984   -2.759758    0.033386
   23          1             0        0.550321    2.073657   -0.008366
   24          1             0       -2.879452   -2.257815    0.018104
   25          1             0       -4.702014   -0.607445   -0.008123
   26          1             0       -4.199111    1.797282   -0.031838
   27          1             0       -1.868357    2.579830   -0.028098
 --------------------------------------------------------------------
     1 basis functions        1 primitive gaussians
     1 alpha electrons        1 beta electrons

 Harmonic frequencies (cm**-1), IR intensities (km*mol⁻¹),
 Raman scattering activities (A**4/amu), Raman depolarization ratios,
 reduced masses (AMU), force constants (mDyne/A) and normal coordinates:
                      1                      2                      3
                        a                      a                      a 
 Frequencies --    52.8243                80.7271               136.8145
 Red. masses --     9.5057                10.0508                 4.2339
 Frc consts  --     0.0000                 0.0000                 0.0000
 IR Inten    --    11.8798                 7.5368                 9.1310
 Raman Activ --     0.0000                 0.0000                 0.0000
 Depolar     --     0.0000                 0.0000                 0.0000
 Atom AN      X      Y      Z        X      Y      Z        X      Y      Z
   1   7    -0.16   0.45  -0.16    -0.27  -0.17  -0.17    -0.14  -0.23   0.01
   2   6     0.00  -0.02   0.13     0.01   0.01  -0.07     0.05   0.02   0.00
   3   6     0.18  -0.42  -0.10     0.25   0.15  -0.17    -0.03  -0.15  -0.00
   4   6     0.00  -0.02   0.12     0.00   0.01   0.20    -0.00   0.19   0.02
   5   6    -0.01  -0.02   0.22     0.01   0.01   0.25     0.06   0.17  -0.03
   6   6    -0.01  -0.01   0.21     0.01   0.01   0.17     0.09   0.10  -0.02
   7   6     0.00  -0.02  -0.01    -0.00   0.01   0.25    -0.03   0.16   0.04
   8   6     0.00  -0.01  -0.05     0.00   0.01   0.20    -0.01   0.08   0.01
   9   6    -0.01  -0.00   0.09     0.01   0.00   0.02     0.06   0.06   0.01
  10   6    -0.01   0.00   0.10     0.01  -0.01  -0.33     0.10  -0.04   0.03
  11   6    -0.00   0.01  -0.03     0.01  -0.01  -0.40     0.03  -0.12   0.01
  12   6     0.01   0.01  -0.23     0.00  -0.00  -0.04    -0.06  -0.10  -0.04
  13   6     0.01  -0.00  -0.23    -0.00   0.00   0.21    -0.09  -0.01  -0.03
  14   1    -0.05   0.13  -0.04    -0.08  -0.05  -0.12     0.13  -0.46   0.20
  15   1    -0.08   0.21   0.00    -0.13  -0.09  -0.03     0.19   0.31  -0.01
  16   1    -0.03   0.12  -0.15    -0.07  -0.05  -0.00    -0.49  -0.10  -0.18
  17   1    -0.01   0.00   0.14     0.00  -0.00  -0.06     0.08   0.01   0.00
  18   1     0.08  -0.20   0.02     0.11   0.06  -0.03     0.01  -0.03   0.00
  19   1     0.05  -0.11  -0.03     0.07   0.06  -0.11     0.01  -0.09   0.01
  20   1     0.07  -0.13  -0.13     0.09   0.05  -0.02    -0.06  -0.05  -0.01
  21   1    -0.00  -0.00   0.08     0.00   0.01   0.09     0.03   0.06  -0.01
  22   1    -0.01  -0.00   0.09     0.00   0.00   0.05     0.04   0.03  -0.01
  23   1     0.00  -0.00  -0.02    -0.00   0.00   0.08    -0.02   0.05   0.02
  24   1    -0.00   0.00   0.06     0.00  -0.00  -0.16     0.05  -0.02   0.02
  25   1    -0.00   0.00  -0.00     0.00  -0.00  -0.20     0.02  -0.06   0.01
  26   1     0.00   0.00  -0.10    -0.00  -0.00  -0.01    -0.03  -0.05  -0.02
  27   1     0.00  -0.00  -0.10    -0.00   0.00   0.12    -0.05   0.00  -0.02
                      4                      5                      6
                        a                      a                      a 
 Frequencies --   156.3208               176.0207               191.4770
 Red. masses --     8.9059                 7.3643                 9.8684
 Frc consts  --     0.0000                 0.0000                 0.0000
 IR Inten    --     2.2560                 4.3677                 6.5250
 Raman Activ --     0.0000                 0.0000                 0.0000
 Depolar     --     0.0000                 0.0000                 0.0000
 Atom AN      X      Y      Z        X      Y      Z        X      Y      Z
   1   7    -0.18  -0.13   0.01    -0.12  -0.20   0.03    -0.30  -0.03   0.07
   2   6     0.02   0.01   0.06     0.06  -0.01   0.07    -0.02   0.01   0.20
   3   6     0.11   0.02   0.01    -0.03  -0.31   0.03     0.32   0.21   0.07
   4   6     0.00   0.05   0.15    -0.00   0.21   0.02     0.00  -0.07   0.23
   5   6     0.02   0.04  -0.35     0.06   0.20   0.13    -0.01  -0.07   0.09
   6   6     0.03   0.03  -0.25     0.09   0.14   0.00    -0.02  -0.06  -0.24
   7   6    -0.01   0.05   0.38    -0.02   0.20  -0.17     0.01  -0.07  -0.06
   8   6    -0.00   0.03   0.17    -0.02   0.12  -0.17     0.01  -0.05  -0.28
   9   6     0.02   0.02   0.11     0.07   0.10  -0.14    -0.02  -0.04  -0.32
  10   6     0.03  -0.01   0.27     0.12  -0.04  -0.10    -0.04   0.01  -0.10
  11   6     0.01  -0.03   0.08     0.03  -0.15   0.08    -0.00   0.06   0.29
  12   6    -0.01  -0.03  -0.35    -0.09  -0.12   0.17     0.04   0.05   0.17
  13   6    -0.02  -0.00  -0.19    -0.12   0.01  -0.02     0.05  -0.00  -0.20
  14   1    -0.09   0.06  -0.12    -0.12   0.14  -0.19    -0.05  -0.08  -0.01
  15   1    -0.15  -0.17   0.02    -0.21  -0.30   0.03    -0.09   0.06   0.05
  16   1     0.06  -0.03   0.10     0.19  -0.04   0.18    -0.16  -0.01  -0.01
  17   1     0.02   0.00   0.00     0.09  -0.00   0.03    -0.03   0.00   0.04
  18   1     0.08   0.05   0.01     0.06  -0.02   0.02     0.11   0.03   0.05
  19   1     0.05  -0.04  -0.05     0.04  -0.22  -0.01     0.06   0.14  -0.05
  20   1    -0.02   0.00   0.03    -0.15  -0.10   0.01     0.18   0.07   0.03
  21   1     0.01   0.01  -0.21     0.02   0.07   0.09    -0.01  -0.02   0.09
  22   1     0.01   0.01  -0.15     0.04   0.04   0.02    -0.01  -0.02  -0.10
  23   1    -0.00   0.01   0.18    -0.01   0.06  -0.07     0.00  -0.02  -0.01
  24   1     0.01  -0.00   0.13     0.07  -0.02  -0.04    -0.02   0.01  -0.03
  25   1     0.00  -0.01   0.05     0.02  -0.07   0.05    -0.00   0.03   0.19
  26   1    -0.01  -0.01  -0.21    -0.04  -0.06   0.11     0.02   0.02   0.11
  27   1    -0.01   0.00  -0.11    -0.07   0.01  -0.00     0.03  -0.00  -0.08
                      7                      8                      9
                        a                      a                      a 
 Frequencies --   245.1691               259.9718               330.2278
 Red. masses --     3.6009                 7.8562                 9.5228
 Frc consts  --     0.0000                 0.0000                 0.0000
 IR Inten    --     4.8706                 6.9793                 3.6447
 Raman Activ --     0.0000                 0.0000                 0.0000
 Depolar     --     0.0000                 0.0000                 0.0000
 Atom AN      X      Y      Z        X      Y      Z        X      Y      Z
   1   7     0.19  -0.14   0.09    -0.41  -0.03  -0.13     0.19   0.00  -0.13
   2   6     0.06  -0.05  -0.01    -0.11   0.04  -0.01     0.00  -0.01  -0.20
   3   6     0.21  -0.06  -0.09    -0.42   0.01   0.15    -0.22  -0.02  -0.10
   4   6    -0.00   0.06  -0.01    -0.02  -0.02  -0.03    -0.00  -0.00   0.08
   5   6    -0.04   0.07  -0.01     0.10  -0.04  -0.01    -0.00   0.00   0.15
   6   6    -0.04   0.09  -0.01     0.12  -0.06   0.01    -0.00   0.01   0.14
   7   6    -0.03   0.07   0.01     0.05   0.01  -0.02     0.00   0.01   0.49
   8   6    -0.05   0.08   0.01     0.10  -0.02   0.01     0.00   0.01   0.03
   9   6    -0.04   0.08   0.01     0.15  -0.03   0.02     0.01   0.01  -0.19
  10   6    -0.02  -0.00   0.02     0.15   0.01   0.02     0.01  -0.00  -0.30
  11   6    -0.08  -0.08   0.01     0.19   0.05  -0.01     0.00  -0.00   0.29
  12   6    -0.12  -0.07  -0.02     0.17   0.06  -0.00    -0.00  -0.01   0.05
  13   6    -0.14   0.01  -0.01     0.17   0.03   0.02    -0.00  -0.00  -0.32
  14   1     0.04  -0.00   0.04    -0.12  -0.01  -0.14     0.04   0.02   0.02
  15   1     0.07  -0.10  -0.00    -0.20  -0.03   0.01     0.10   0.00  -0.06
  16   1     0.09  -0.03   0.08    -0.11  -0.01  -0.02     0.08   0.00  -0.04
  17   1     0.02  -0.01  -0.01    -0.03   0.01  -0.00     0.00  -0.00  -0.07
  18   1    -0.16  -0.44   0.03    -0.34  -0.21   0.01    -0.12  -0.01  -0.06
  19   1    -0.10   0.39   0.15    -0.20   0.20   0.25    -0.06  -0.02   0.04
  20   1     0.50  -0.02  -0.28     0.08   0.00  -0.08    -0.08  -0.01  -0.03
  21   1    -0.02   0.02  -0.00     0.04   0.01  -0.00    -0.00   0.00   0.05
  22   1    -0.01   0.03  -0.01     0.03  -0.02   0.01    -0.00   0.00   0.09
  23   1    -0.01   0.02   0.01     0.02  -0.00  -0.01     0.00   0.00   0.25
  24   1     0.02  -0.01   0.01     0.03   0.01   0.01     0.01  -0.00  -0.16
  25   1    -0.02  -0.04   0.00     0.05   0.02  -0.01     0.00  -0.00   0.20
  26   1    -0.04  -0.03  -0.01     0.05   0.01  -0.00    -0.00  -0.00   0.04
  27   1    -0.06   0.01  -0.00     0.07   0.00   0.01    -0.00  -0.00  -0.19
                     10                     11                     12
                        a                      a                      a 
 Frequencies --   370.8100               389.8589               415.9314
 Red. masses --     9.6486                 9.3907                 9.5319
 Frc consts  --     0.0000                 0.0000                 0.0000
 IR Inten    --     1.8775                 1.8809                 5.0980
 Raman Activ --     0.0000                 0.0000                 0.0000
 Depolar     --     0.0000                 0.0000                 0.0000
 Atom AN      X      Y      Z        X      Y      Z        X      Y      Z
   1   7     0.00   0.06  -0.17     0.12  -0.01  -0.10    -0.06   0.01   0.35
   2   6     0.01  -0.26   0.01     0.01   0.02  -0.12    -0.40   0.11  -0.03
   3   6    -0.02   0.10   0.15    -0.12  -0.02  -0.08    -0.04  -0.05  -0.36
   4   6     0.01  -0.27   0.03     0.00   0.04   0.16    -0.22  -0.13   0.00
   5   6    -0.08  -0.24   0.05     0.01   0.05   0.47     0.00  -0.17   0.03
   6   6    -0.16   0.10  -0.06     0.02  -0.01  -0.40     0.02  -0.10  -0.01
   7   6     0.18  -0.01  -0.01    -0.02   0.01  -0.03    -0.07   0.01  -0.00
   8   6     0.05   0.35   0.02    -0.01  -0.04   0.13    -0.03   0.12   0.01
   9   6     0.09   0.34  -0.03    -0.01  -0.05  -0.26     0.18   0.08  -0.01
  10   6     0.21   0.05   0.03    -0.03  -0.01   0.18     0.25   0.01  -0.00
  11   6     0.03  -0.20   0.01    -0.01   0.02   0.10     0.25  -0.01   0.01
  12   6    -0.11  -0.17  -0.03     0.01   0.02  -0.29     0.06   0.03  -0.02
  13   6    -0.18   0.13   0.03     0.02  -0.02   0.26     0.00   0.15  -0.00
  14   1    -0.01   0.05  -0.03     0.03   0.01   0.01    -0.01   0.01   0.21
  15   1    -0.03   0.10  -0.00     0.06  -0.01  -0.04     0.11  -0.07  -0.00
  16   1     0.03   0.02  -0.16     0.05  -0.00  -0.02    -0.00   0.00   0.19
  17   1    -0.04  -0.07   0.00     0.01   0.00  -0.05    -0.16   0.03  -0.01
  18   1    -0.04   0.11  -0.01    -0.06  -0.01  -0.04     0.12  -0.06  -0.01
  19   1    -0.02   0.06   0.03    -0.03  -0.03   0.02     0.00  -0.04  -0.22
  20   1     0.02   0.04   0.15    -0.06  -0.01  -0.03    -0.02  -0.02  -0.18
  21   1    -0.05  -0.10   0.03     0.01   0.02   0.26     0.02  -0.03   0.01
  22   1    -0.14   0.05  -0.04     0.02  -0.01  -0.22    -0.05  -0.02  -0.01
  23   1     0.15  -0.02  -0.02    -0.02   0.00  -0.09     0.03  -0.01  -0.01
  24   1     0.15  -0.00   0.02    -0.02   0.00   0.15     0.08   0.00  -0.00
  25   1     0.03  -0.11   0.01    -0.01   0.01   0.09     0.08  -0.03   0.01
  26   1    -0.07  -0.09  -0.02     0.01   0.01  -0.18    -0.02  -0.03  -0.01
  27   1    -0.14   0.06   0.02     0.02  -0.01   0.16     0.00   0.04   0.00
                     13                     14                     15
                        a                      a                      a 
 Frequencies --   445.1352               496.6024               509.9192
 Red. masses --     8.4386                11.2872                 9.8413
 Frc consts  --     0.0000                 0.0000                 0.0000
 IR Inten    --     6.2388                 0.5237                 1.6695
 Raman Activ --     0.0000                 0.0000                 0.0000
 Depolar     --     0.0000                 0.0000                 0.0000
 Atom AN      X      Y      Z        X      Y      Z        X      Y      Z
   1   7    -0.02   0.00   0.02    -0.02   0.02   0.04     0.10  -0.01  -0.10
   2   6    -0.00  -0.00   0.01    -0.06  -0.02   0.00    -0.01  -0.00  -0.09
   3   6     0.02   0.00   0.01    -0.00   0.02  -0.03    -0.10  -0.00  -0.09
   4   6    -0.01  -0.01  -0.14    -0.07   0.11  -0.01    -0.01   0.01   0.42
   5   6    -0.00  -0.01  -0.12    -0.40   0.18  -0.00    -0.01   0.01   0.09
   6   6    -0.00  -0.00   0.24    -0.34   0.06  -0.00    -0.00  -0.00  -0.17
   7   6    -0.00   0.00   0.23     0.11   0.22  -0.01    -0.01   0.01   0.15
   8   6     0.00  -0.00  -0.43     0.21   0.00   0.01    -0.00  -0.00  -0.34
   9   6     0.01  -0.00  -0.45    -0.19   0.07  -0.01    -0.00  -0.00   0.14
  10   6     0.01   0.00   0.24    -0.07  -0.25  -0.00     0.00  -0.01   0.30
  11   6     0.01  -0.00  -0.10     0.07  -0.17   0.01     0.02  -0.01  -0.37
  12   6     0.00  -0.00  -0.12     0.43  -0.24  -0.00     0.01   0.00   0.34
  13   6    -0.00   0.01   0.25     0.33  -0.02   0.01     0.01   0.01  -0.22
  14   1    -0.00  -0.00  -0.00    -0.01   0.01   0.03     0.02   0.02   0.04
  15   1    -0.01  -0.00   0.01     0.01   0.01   0.00     0.07   0.00  -0.05
  16   1    -0.01   0.00   0.01     0.01   0.01   0.01     0.05  -0.00  -0.04
  17   1    -0.00  -0.00   0.01    -0.02  -0.00   0.00    -0.01  -0.00  -0.06
  18   1     0.01   0.00   0.00     0.01   0.01  -0.00    -0.07  -0.01  -0.04
  19   1     0.00   0.00  -0.01    -0.00   0.01  -0.03    -0.03  -0.01   0.03
  20   1     0.01   0.00   0.01     0.01   0.01  -0.01    -0.05  -0.00  -0.04
  21   1     0.00  -0.00   0.04    -0.13   0.04  -0.00    -0.00   0.00  -0.07
  22   1    -0.00   0.00   0.28    -0.08   0.02   0.00     0.00  -0.00  -0.16
  23   1     0.00   0.00   0.29    -0.00   0.07  -0.00    -0.00   0.00   0.02
  24   1     0.00   0.00   0.28     0.04  -0.08  -0.00     0.00  -0.00   0.16
  25   1     0.00  -0.00   0.04    -0.01   0.04   0.00     0.00  -0.00  -0.21
  26   1    -0.00  -0.00   0.02     0.13  -0.06  -0.00     0.00   0.00   0.26
  27   1    -0.00   0.00   0.28     0.06   0.00   0.00     0.00   0.00  -0.02
                     16                     17                     18
                        a                      a                      a 
 Frequencies --   533.6611               587.1011               621.3461
 Red. masses --     9.5509                11.1566                 9.8718
 Frc consts  --     0.0000                 0.0000                 0.0000
 IR Inten    --     6.6200                 1.4158                 0.8422
 Raman Activ --     0.0000                 0.0000                 0.0000
 Depolar     --     0.0000                 0.0000                 0.0000
 Atom AN      X      Y      Z        X      Y      Z        X      Y      Z
   1   7     0.11  -0.04  -0.15    -0.04   0.01   0.06    -0.06   0.02   0.07
   2   6    -0.10  -0.43   0.04    -0.11  -0.08  -0.00     0.01  -0.00   0.04
   3   6     0.10   0.01   0.15    -0.03   0.01  -0.05     0.06  -0.01   0.06
   4   6    -0.30   0.16  -0.02    -0.08   0.05  -0.01     0.00  -0.01  -0.64
   5   6    -0.10   0.14  -0.02    -0.10   0.01   0.00    -0.00  -0.00   0.25
   6   6     0.06  -0.21   0.00    -0.00  -0.27  -0.01    -0.00  -0.00  -0.27
   7   6    -0.27   0.23  -0.01     0.22   0.33   0.00    -0.00  -0.00   0.19
   8   6    -0.15  -0.06   0.01     0.32  -0.04   0.00    -0.01   0.00   0.17
   9   6     0.12  -0.15   0.01     0.20   0.00   0.00    -0.00  -0.00  -0.03
  10   6     0.15  -0.05  -0.01     0.05   0.40   0.00    -0.00  -0.01   0.22
  11   6     0.27   0.08   0.01    -0.31   0.04  -0.01     0.01  -0.00  -0.19
  12   6     0.00   0.13  -0.00    -0.16  -0.05   0.01     0.00   0.00   0.22
  13   6    -0.02   0.09   0.00     0.01  -0.46  -0.00    -0.00   0.01  -0.21
  14   1    -0.01   0.10   0.06    -0.02   0.03   0.06    -0.01  -0.02  -0.05
  15   1     0.03   0.08  -0.01     0.01   0.01   0.00    -0.06  -0.00   0.04
  16   1     0.15  -0.00  -0.22     0.02   0.01  -0.01    -0.05   0.00   0.04
  17   1     0.01  -0.12   0.02    -0.04  -0.02   0.00     0.01   0.00   0.05
  18   1     0.03   0.09   0.01     0.01   0.01  -0.01     0.05   0.01   0.03
  19   1    -0.01   0.10  -0.05    -0.02   0.02  -0.06     0.01   0.01  -0.03
  20   1     0.13   0.02   0.19     0.01   0.01   0.01     0.04   0.00   0.04
  21   1     0.05   0.13   0.00     0.02   0.05   0.01    -0.00   0.00   0.29
  22   1     0.05  -0.06   0.01     0.00  -0.08  -0.00    -0.00   0.00   0.02
  23   1    -0.11   0.07   0.00     0.07   0.09   0.00    -0.00  -0.00   0.18
  24   1    -0.01  -0.00  -0.01     0.04   0.11   0.00    -0.00  -0.00   0.01
  25   1     0.08   0.01   0.00    -0.06  -0.06  -0.00     0.00  -0.00  -0.15
  26   1    -0.03   0.00  -0.01     0.04   0.08   0.00    -0.00  -0.00   0.04
  27   1     0.05   0.01  -0.01    -0.01  -0.12  -0.00     0.00   0.00  -0.17
                     19                     20                     21
                        a                      a                      a 
 Frequencies --   686.9448               722.9480               743.4028
 Red. masses --     9.7439                11.1052                 3.5617
 Frc consts  --     0.0000                 0.0000                 0.0000
 IR Inten    --     4.8719                 0.0742                 6.9431
 Raman Activ --     0.0000                 0.0000                 0.0000
 Depolar     --     0.0000                 0.0000                 0.0000
 Atom AN      X      Y      Z        X      Y      Z        X      Y      Z
   1   7     0.10   0.03  -0.08    -0.01   0.00   0.02     0.02  -0.01  -0.03
   2   6     0.28   0.34  -0.01    -0.01  -0.02   0.00     0.00   0.02   0.01
   3   6     0.08   0.02   0.08     0.01   0.00   0.01    -0.02   0.01  -0.03
   4   6     0.04   0.02  -0.00    -0.00  -0.00  -0.24     0.00   0.00   0.20
   5   6    -0.38  -0.04   0.02     0.01   0.00   0.23    -0.00  -0.01  -0.11
   6   6    -0.27  -0.41   0.00     0.01   0.01  -0.16    -0.01  -0.01  -0.11
   7   6    -0.02   0.03   0.00    -0.00   0.00   0.17     0.00  -0.00  -0.13
   8   6    -0.05  -0.01  -0.02     0.00  -0.01  -0.55     0.00  -0.00  -0.17
   9   6     0.09  -0.06   0.02    -0.01   0.01   0.56     0.00   0.00  -0.01
  10   6     0.20   0.03  -0.01    -0.01  -0.00  -0.19     0.00   0.00   0.17
  11   6     0.26   0.04   0.01    -0.01   0.00   0.19     0.00   0.00   0.15
  12   6    -0.15   0.11  -0.01     0.01  -0.01  -0.20    -0.00   0.00   0.09
  13   6    -0.12   0.02   0.00     0.00   0.00   0.17    -0.00   0.00   0.24
  14   1     0.07  -0.12  -0.18    -0.00  -0.00  -0.01     0.00   0.01   0.02
  15   1    -0.04  -0.05  -0.00    -0.01   0.00   0.01     0.03  -0.00  -0.02
  16   1    -0.11  -0.00   0.12    -0.01   0.00   0.00     0.02  -0.00  -0.01
  17   1     0.07   0.09  -0.01     0.00  -0.00   0.01    -0.00   0.00  -0.02
  18   1    -0.03  -0.06   0.02     0.01   0.01   0.00    -0.02  -0.00  -0.01
  19   1     0.05  -0.09   0.16    -0.00   0.01  -0.02     0.00  -0.01   0.02
  20   1    -0.08  -0.01  -0.09     0.01   0.00   0.01    -0.02  -0.00  -0.02
  21   1    -0.10  -0.02  -0.02     0.00  -0.00  -0.06    -0.00   0.00   0.21
  22   1    -0.10  -0.11  -0.01     0.00   0.00  -0.15    -0.00   0.00   0.25
  23   1    -0.03   0.01  -0.01     0.00   0.00   0.13     0.00   0.00   0.27
  24   1     0.03   0.01  -0.00    -0.00  -0.00  -0.13     0.00  -0.00  -0.40
  25   1     0.09  -0.06   0.01    -0.00   0.00   0.02     0.00  -0.00  -0.39
  26   1    -0.08  -0.02   0.00     0.00   0.00   0.00     0.00  -0.00  -0.39
  27   1    -0.00   0.00   0.01    -0.00   0.00   0.15     0.00  -0.00  -0.36
                     22                     23                     24
                        a                      a                      a 
 Frequencies --   801.6066               818.9877               840.8813
 Red. masses --    10.4649                 4.4460                10.3138
 Frc consts  --     0.0000                 0.0000                 0.0000
 IR Inten    --     5.9445                33.9924                 9.2541
 Raman Activ --     0.0000                 0.0000                 0.0000
 Depolar     --     0.0000                 0.0000                 0.0000
 Atom AN      X      Y      Z        X      Y      Z        X      Y      Z
   1   7    -0.03  -0.01   0.02     0.03  -0.01  -0.04     0.17  -0.06  -0.31
   2   6    -0.02  -0.05  -0.00    -0.01   0.03   0.01    -0.14   0.21   0.12
   3   6    -0.01  -0.00  -0.01    -0.01   0.00  -0.01     0.08  -0.01   0.24
   4   6     0.06   0.02  -0.01    -0.01   0.00   0.16    -0.23   0.00  -0.02
   5   6    -0.16   0.17   0.01    -0.00  -0.01  -0.29     0.09  -0.13   0.02
   6   6    -0.13   0.42   0.00    -0.01   0.01  -0.24     0.03  -0.01   0.02
   7   6    -0.15  -0.34   0.00    -0.01  -0.01  -0.11    -0.31  -0.07  -0.02
   8   6    -0.04  -0.26   0.00    -0.01  -0.01   0.08    -0.12  -0.02   0.00
   9   6     0.01   0.17  -0.01    -0.00   0.02   0.28     0.09   0.13  -0.01
  10   6     0.27   0.20   0.00     0.01   0.02  -0.11     0.07   0.31  -0.00
  11   6     0.25   0.06   0.00     0.00  -0.00  -0.04    -0.25  -0.08  -0.00
  12   6    -0.08   0.07   0.00     0.01  -0.01  -0.12     0.29  -0.23   0.01
  13   6     0.02  -0.42   0.01     0.01  -0.02  -0.12     0.14   0.04   0.00
  14   1    -0.02   0.03   0.04     0.00   0.01   0.01     0.07  -0.09  -0.11
  15   1     0.01   0.02   0.00     0.02  -0.01  -0.02     0.08  -0.09  -0.12
  16   1     0.03  -0.00  -0.03     0.01  -0.00  -0.01    -0.03  -0.02   0.05
  17   1    -0.01  -0.01  -0.00    -0.00   0.01  -0.01    -0.03   0.05   0.01
  18   1     0.00   0.01  -0.00    -0.01  -0.01  -0.00     0.11  -0.08   0.15
  19   1    -0.01   0.02  -0.02     0.00  -0.02   0.02     0.04  -0.04   0.03
  20   1     0.01   0.00   0.02    -0.02  -0.00  -0.02     0.00  -0.02  -0.04
  21   1    -0.12  -0.04  -0.02    -0.00   0.01   0.60     0.05  -0.01  -0.04
  22   1    -0.07   0.13  -0.01    -0.01   0.01   0.36    -0.07   0.01  -0.03
  23   1    -0.13  -0.08   0.00    -0.01  -0.00   0.16    -0.13  -0.01   0.04
  24   1     0.12   0.05  -0.00     0.01   0.00   0.08     0.11   0.07   0.00
  25   1     0.11  -0.09  -0.00     0.00  -0.00   0.19    -0.07  -0.01   0.00
  26   1     0.01   0.05  -0.01     0.00   0.00   0.26     0.13  -0.01  -0.00
  27   1     0.11  -0.14  -0.01     0.00  -0.00   0.23     0.01   0.01  -0.01
                     25                     26                     27
                        a                      a                      a 
 Frequencies --   850.1559               870.9979               887.1793
 Red. masses --     3.8732                 3.8051                 9.4349
 Frc consts  --     0.0000                 0.0000                 0.0000
 IR Inten    --     5.1869                 0.1248                17.3047
 Raman Activ --     0.0000                 0.0000                 0.0000
 Depolar     --     0.0000                 0.0000                 0.0000
 Atom AN      X      Y      Z        X      Y      Z        X      Y      Z
   1   7    -0.00   0.02   0.01    -0.00   0.02   0.00     0.09  -0.03  -0.34
   2   6     0.02  -0.01  -0.02     0.01  -0.01  -0.01    -0.30   0.13   0.15
   3   6     0.01  -0.01   0.01     0.00  -0.01  -0.01     0.00  -0.02   0.22
   4   6    -0.02   0.00  -0.04    -0.01   0.00  -0.00    -0.04  -0.07  -0.02
   5   6     0.00  -0.01  -0.15     0.00  -0.00  -0.07     0.08  -0.10   0.00
   6   6     0.00  -0.00  -0.05    -0.00  -0.00  -0.06     0.00   0.19  -0.01
   7   6    -0.03  -0.01   0.43    -0.01  -0.00   0.15     0.18   0.22   0.02
   8   6    -0.01  -0.00  -0.12    -0.00  -0.00  -0.11     0.15   0.01  -0.01
   9   6     0.01   0.01  -0.04     0.00   0.00   0.10    -0.10  -0.02  -0.00
  10   6     0.01   0.03   0.11     0.00   0.01  -0.29    -0.09  -0.29   0.00
  11   6    -0.02  -0.01   0.09    -0.01  -0.00  -0.12     0.21   0.09  -0.00
  12   6     0.03  -0.02  -0.01     0.01  -0.01   0.11    -0.20   0.19  -0.00
  13   6     0.01   0.00  -0.04     0.00   0.01   0.30    -0.06  -0.21   0.01
  14   1     0.01  -0.01  -0.01     0.00  -0.01  -0.00     0.05  -0.08  -0.02
  15   1     0.00  -0.02  -0.01     0.00  -0.01  -0.01     0.17  -0.15  -0.22
  16   1    -0.02   0.00   0.03    -0.01   0.00   0.02    -0.03  -0.01   0.13
  17   1     0.00   0.00   0.03     0.00  -0.00   0.01    -0.12   0.03   0.05
  18   1    -0.01   0.01  -0.01    -0.01   0.01  -0.01     0.14  -0.07   0.17
  19   1     0.00   0.00   0.01    -0.00   0.00   0.01     0.00  -0.00  -0.07
  20   1     0.01  -0.00   0.03     0.01  -0.00   0.01     0.03  -0.01  -0.02
  21   1     0.01   0.01   0.18     0.00   0.00   0.13    -0.01  -0.06  -0.01
  22   1    -0.01   0.00   0.19    -0.00   0.00   0.07    -0.02   0.05   0.02
  23   1    -0.01  -0.01  -0.75    -0.01  -0.00  -0.21     0.11   0.05  -0.04
  24   1     0.01   0.00  -0.23     0.00   0.01   0.55    -0.10  -0.06  -0.00
  25   1    -0.00  -0.00  -0.16    -0.00   0.00   0.17     0.05   0.04   0.00
  26   1     0.01  -0.00  -0.04     0.00  -0.00  -0.16    -0.06   0.05  -0.00
  27   1     0.00   0.00   0.14     0.00  -0.01  -0.57     0.03  -0.07  -0.01
                     28                     29                     30
                        a                      a                      a 
 Frequencies --   897.7664               900.3420               918.4135
 Red. masses --     3.4805                 3.5980                 4.0235
 Frc consts  --     0.0000                 0.0000                 0.0000
 IR Inten    --    15.7801                 5.9277                 0.5573
 Raman Activ --     0.0000                 0.0000                 0.0000
 Depolar     --     0.0000                 0.0000                 0.0000
 Atom AN      X      Y      Z        X      Y      Z        X      Y      Z
   1   7     0.15  -0.25   0.05     0.09  -0.08   0.02     0.02  -0.00   0.01
   2   6    -0.07   0.12   0.17    -0.02   0.04   0.07     0.00  -0.00   0.00
   3   6    -0.11   0.16   0.00    -0.06   0.05  -0.01    -0.01   0.00  -0.01
   4   6     0.01  -0.01  -0.02    -0.01  -0.01  -0.04    -0.00  -0.00  -0.01
   5   6     0.01  -0.02   0.09     0.01  -0.03  -0.25     0.00  -0.01  -0.05
   6   6    -0.01   0.00  -0.13    -0.01   0.02   0.34    -0.00   0.00   0.09
   7   6     0.03   0.02   0.03     0.01   0.02   0.04    -0.00   0.01   0.03
   8   6     0.02   0.01   0.01     0.01  -0.00  -0.06    -0.00  -0.00  -0.04
   9   6    -0.01  -0.00   0.01    -0.01   0.00  -0.02    -0.00   0.00  -0.05
  10   6    -0.01  -0.03  -0.00    -0.01  -0.02  -0.03    -0.00   0.00   0.27
  11   6     0.02   0.01  -0.02     0.02   0.01   0.07     0.00  -0.00  -0.22
  12   6    -0.02   0.02  -0.01    -0.01   0.02   0.05     0.00  -0.00  -0.26
  13   6    -0.01  -0.02   0.02    -0.00  -0.03  -0.03    -0.00  -0.00   0.26
  14   1    -0.03   0.08  -0.12     0.00   0.02  -0.09     0.00  -0.00  -0.02
  15   1    -0.22   0.23   0.26    -0.10   0.09   0.11    -0.02   0.01   0.02
  16   1     0.16  -0.06  -0.45     0.04  -0.02  -0.16    -0.00  -0.00  -0.01
  17   1     0.00   0.02  -0.19     0.00   0.01  -0.05     0.00  -0.00   0.00
  18   1     0.17  -0.17   0.20     0.07  -0.05   0.07     0.01  -0.00   0.00
  19   1     0.02  -0.08  -0.11    -0.00  -0.03  -0.06    -0.00   0.00  -0.01
  20   1    -0.10   0.01  -0.32    -0.03   0.00  -0.11     0.00   0.00  -0.01
  21   1    -0.00  -0.01  -0.17     0.00   0.00   0.48     0.00   0.00   0.08
  22   1    -0.01   0.00   0.26    -0.01   0.00  -0.63    -0.00   0.00  -0.15
  23   1     0.02   0.00  -0.08     0.00   0.01   0.03    -0.00   0.00  -0.04
  24   1    -0.01  -0.01   0.01    -0.01  -0.00   0.06     0.00  -0.00  -0.41
  25   1     0.01   0.00   0.02     0.01   0.00  -0.14    -0.00   0.00   0.38
  26   1    -0.01   0.00   0.02    -0.00   0.00  -0.10    -0.00   0.01   0.46
  27   1    -0.00  -0.01  -0.03     0.00  -0.01   0.05     0.00  -0.01  -0.40
                     31                     32                     33
                        a                      a                      a 
 Frequencies --   929.4896               934.2785               948.9660
 Red. masses --     4.8726                 3.5705                 8.6905
 Frc consts  --     0.0000                 0.0000                 0.0000
 IR Inten    --    51.8032                 0.3842                 5.1184
 Raman Activ --     0.0000                 0.0000                 0.0000
 Depolar     --     0.0000                 0.0000                 0.0000
 Atom AN      X      Y      Z        X      Y      Z        X      Y      Z
   1   7    -0.31  -0.14  -0.09    -0.02  -0.01  -0.01     0.10  -0.01  -0.15
   2   6    -0.05   0.13  -0.08    -0.01   0.01   0.00    -0.21  -0.04   0.19
   3   6     0.17   0.05   0.21     0.01   0.00   0.02    -0.21  -0.04  -0.02
   4   6     0.13   0.03  -0.10     0.01   0.00  -0.01     0.28   0.05   0.02
   5   6    -0.08   0.11  -0.02    -0.01   0.01  -0.02    -0.22   0.38  -0.01
   6   6    -0.01  -0.10   0.03    -0.00  -0.01   0.01     0.03  -0.15   0.01
   7   6     0.08  -0.14   0.03     0.01  -0.01   0.01     0.16  -0.35   0.01
   8   6     0.02   0.02   0.00     0.00   0.00  -0.08     0.04   0.03  -0.00
   9   6     0.02  -0.03  -0.01     0.00  -0.00   0.08     0.05  -0.09   0.00
  10   6     0.01   0.03  -0.01     0.00   0.00   0.10     0.04   0.10  -0.00
  11   6    -0.03  -0.02   0.02    -0.00  -0.01  -0.33    -0.09  -0.05   0.00
  12   6    -0.01  -0.02  -0.03    -0.00   0.00   0.30    -0.03  -0.03  -0.00
  13   6    -0.01   0.10   0.01    -0.00   0.01  -0.07    -0.02   0.23  -0.00
  14   1    -0.17   0.24   0.49    -0.01   0.02   0.04     0.05  -0.07  -0.09
  15   1     0.26  -0.01  -0.21     0.02   0.00  -0.01     0.03  -0.06  -0.06
  16   1     0.25  -0.01  -0.14     0.02  -0.00  -0.02    -0.05  -0.01   0.06
  17   1     0.00   0.03  -0.16     0.00   0.00  -0.02    -0.07  -0.01   0.12
  18   1     0.01  -0.10   0.09     0.00  -0.01   0.01     0.14   0.01   0.10
  19   1     0.10  -0.13   0.20     0.01  -0.01   0.01    -0.10   0.12  -0.30
  20   1    -0.10  -0.01  -0.11    -0.01  -0.00  -0.02     0.11   0.00   0.04
  21   1    -0.02   0.03   0.04    -0.00   0.00   0.03    -0.04   0.12   0.01
  22   1     0.06  -0.04  -0.06     0.01  -0.00  -0.03     0.21  -0.08  -0.00
  23   1     0.04  -0.04  -0.02     0.00  -0.00  -0.01     0.08  -0.10  -0.00
  24   1     0.01   0.01   0.02     0.00  -0.00  -0.24     0.03   0.02  -0.00
  25   1    -0.00  -0.02  -0.05    -0.00   0.00   0.60    -0.01  -0.06  -0.01
  26   1    -0.02  -0.02   0.05    -0.00  -0.01  -0.55    -0.05  -0.05   0.00
  27   1    -0.03   0.03  -0.03    -0.00   0.01   0.19    -0.06   0.07  -0.00
                     34                     35                     36
                        a                      a                      a 
 Frequencies --  1047.5778              1070.5498              1089.0350
 Red. masses --     7.2158                 5.5757                 6.1796
 Frc consts  --     0.0000                 0.0000                 0.0000
 IR Inten    --    33.9614                51.8545                 0.0581
 Raman Activ --     0.0000                 0.0000                 0.0000
 Depolar     --     0.0000                 0.0000                 0.0000
 Atom AN      X      Y      Z        X      Y      Z        X      Y      Z
   1   7     0.02   0.20   0.14     0.12  -0.03  -0.07    -0.00  -0.00   0.01
   2   6    -0.03  -0.26  -0.50    -0.18  -0.12   0.36     0.02   0.03  -0.03
   3   6     0.08   0.08   0.32     0.25   0.15  -0.23    -0.01  -0.02   0.01
   4   6    -0.09  -0.09   0.06    -0.10  -0.11  -0.07    -0.03   0.03   0.01
   5   6    -0.07   0.16  -0.01    -0.09   0.15   0.00    -0.02  -0.04   0.00
   6   6     0.07   0.07  -0.01     0.08   0.08   0.01    -0.00  -0.02  -0.00
   7   6     0.02  -0.04  -0.01     0.02  -0.04   0.01    -0.00   0.01  -0.00
   8   6     0.02   0.01  -0.01     0.04   0.01   0.01     0.01  -0.07   0.00
   9   6     0.03  -0.04   0.00     0.03  -0.04  -0.00     0.04   0.07  -0.00
  10   6     0.00   0.00   0.00     0.01  -0.02   0.00     0.10  -0.25   0.00
  11   6    -0.03  -0.01  -0.00    -0.05  -0.02   0.00    -0.33  -0.21   0.00
  12   6    -0.01   0.01   0.00    -0.03   0.03  -0.00    -0.22   0.33  -0.00
  13   6     0.00   0.03   0.00     0.01   0.03  -0.00     0.19   0.17  -0.00
  14   1     0.05  -0.08  -0.14     0.05  -0.07  -0.11    -0.00   0.01   0.01
  15   1    -0.10  -0.01   0.07    -0.02  -0.02   0.01    -0.00   0.01   0.00
  16   1    -0.17   0.03   0.16    -0.04  -0.01   0.01     0.01  -0.00  -0.01
  17   1    -0.26  -0.08  -0.25    -0.29  -0.04   0.04     0.05   0.01  -0.00
  18   1     0.15  -0.17   0.24    -0.28   0.00  -0.24     0.01   0.01   0.01
  19   1     0.09  -0.14   0.05     0.12  -0.15   0.41    -0.01   0.02  -0.03
  20   1    -0.05  -0.02  -0.18    -0.26   0.01  -0.12     0.02  -0.00   0.02
  21   1     0.01   0.07   0.02    -0.00   0.07  -0.01     0.01   0.00  -0.00
  22   1     0.15  -0.01   0.01     0.19  -0.01  -0.01    -0.04   0.00   0.00
  23   1     0.06  -0.02   0.02     0.07  -0.03  -0.01    -0.01   0.00   0.00
  24   1     0.01  -0.00   0.00     0.03  -0.01  -0.00     0.44  -0.16   0.00
  25   1    -0.00  -0.01  -0.00    -0.01  -0.03   0.00    -0.06  -0.19   0.00
  26   1    -0.00   0.01  -0.00     0.00   0.02   0.00     0.03   0.21  -0.00
  27   1     0.00   0.01  -0.00     0.02   0.01   0.00     0.47  -0.03   0.00
                     37                     38                     39
                        a                      a                      a 
 Frequencies --  1131.3046              1148.3816              1163.0694
 Red. masses --     5.9801                 5.8563                 2.7356
 Frc consts  --     0.0000                 0.0000                 0.0000
 IR Inten    --     3.1094                 5.4071                 6.4218
 Raman Activ --     0.0000                 0.0000                 0.0000
 Depolar     --     0.0000                 0.0000                 0.0000
 Atom AN      X      Y      Z        X      Y      Z        X      Y      Z
   1   7     0.05  -0.05   0.04    -0.08   0.09  -0.07    -0.03   0.00  -0.01
   2   6    -0.08   0.19  -0.11     0.20  -0.33   0.19     0.10   0.02   0.02
   3   6     0.08  -0.13   0.04    -0.15   0.23  -0.08    -0.05   0.02  -0.01
   4   6    -0.16  -0.01   0.01     0.21   0.06  -0.02    -0.07  -0.07   0.00
   5   6    -0.05   0.12  -0.00     0.06   0.01   0.00    -0.15  -0.09  -0.00
   6   6     0.01  -0.13  -0.00    -0.03  -0.12   0.00     0.11   0.10   0.00
   7   6    -0.02  -0.26  -0.00    -0.07  -0.01   0.00    -0.07   0.13  -0.00
   8   6    -0.01   0.22  -0.00    -0.01   0.04   0.00    -0.12   0.05  -0.00
   9   6     0.05   0.19  -0.00     0.09   0.12  -0.00    -0.01  -0.11   0.00
  10   6     0.00  -0.24   0.00     0.01  -0.16   0.00     0.11  -0.02   0.00
  11   6     0.01   0.10  -0.00    -0.03   0.03  -0.00    -0.04   0.08  -0.00
  12   6     0.05   0.05   0.00     0.05   0.07  -0.00     0.06  -0.02   0.00
  13   6    -0.10  -0.26   0.00    -0.11  -0.09  -0.00    -0.05  -0.06   0.00
  14   1    -0.00   0.01  -0.05     0.00  -0.03   0.07    -0.01   0.02   0.04
  15   1    -0.05   0.04   0.06     0.09  -0.08  -0.11     0.02   0.00  -0.02
  16   1     0.02  -0.01  -0.08    -0.03   0.02   0.14     0.02   0.00   0.01
  17   1     0.06   0.05  -0.03    -0.06  -0.09   0.06     0.14   0.01   0.03
  18   1    -0.04   0.06  -0.06     0.06  -0.11   0.11     0.03   0.01   0.02
  19   1    -0.00   0.03   0.04     0.01  -0.07  -0.07    -0.02   0.02  -0.05
  20   1     0.07  -0.01   0.15    -0.12   0.03  -0.27     0.01   0.00  -0.02
  21   1     0.21   0.28  -0.01     0.05   0.03  -0.00    -0.39  -0.40   0.01
  22   1    -0.00  -0.03   0.00    -0.20   0.00  -0.00     0.57  -0.08   0.00
  23   1     0.26  -0.13   0.01    -0.33   0.06  -0.01     0.11   0.01  -0.00
  24   1     0.14  -0.10   0.00     0.17  -0.08   0.00     0.24  -0.05   0.00
  25   1    -0.10   0.33  -0.00    -0.09   0.26  -0.00    -0.06   0.16  -0.00
  26   1     0.22   0.24  -0.00     0.16   0.19   0.00     0.16   0.15  -0.00
  27   1    -0.17  -0.04  -0.00    -0.20   0.01   0.00    -0.15   0.01  -0.00
                     40                     41                     42
                        a                      a                      a 
 Frequencies --  1172.4845              1179.5178              1225.8808
 Red. masses --     4.3641                 1.8274                 4.8559
 Frc consts  --     0.0000                 0.0000                 0.0000
 IR Inten    --    16.9358                 1.1896                 1.3687
 Raman Activ --     0.0000                 0.0000                 0.0000
 Depolar     --     0.0000                 0.0000                 0.0000
 Atom AN      X      Y      Z        X      Y      Z        X      Y      Z
   1   7     0.06  -0.07   0.05    -0.02   0.02  -0.02     0.02  -0.01   0.01
   2   6    -0.25   0.16  -0.14     0.09  -0.04   0.04    -0.09   0.00  -0.02
   3   6     0.12  -0.20   0.07    -0.04   0.06  -0.02     0.04  -0.04   0.02
   4   6     0.23  -0.01   0.01    -0.08  -0.03  -0.00     0.13   0.05   0.00
   5   6     0.02  -0.02  -0.00    -0.00   0.04   0.00    -0.07   0.15  -0.00
   6   6    -0.03  -0.01  -0.00    -0.02   0.04   0.00     0.08   0.05  -0.00
   7   6     0.01   0.04  -0.00    -0.06  -0.03  -0.00    -0.08   0.02   0.00
   8   6     0.18  -0.04  -0.00    -0.03   0.11  -0.00    -0.08   0.04  -0.00
   9   6     0.05  -0.04   0.00     0.01  -0.09   0.00     0.45  -0.10   0.00
  10   6     0.01  -0.06   0.00     0.01  -0.04   0.00     0.06  -0.11   0.00
  11   6    -0.03  -0.03   0.00    -0.01  -0.10   0.00    -0.13  -0.11   0.00
  12   6    -0.00   0.11  -0.00     0.04   0.07  -0.00     0.01  -0.03   0.00
  13   6    -0.04   0.08  -0.00     0.03   0.01  -0.00    -0.10   0.03  -0.00
  14   1    -0.00   0.02  -0.06    -0.00  -0.00   0.02    -0.00   0.01  -0.01
  15   1    -0.07   0.06   0.09     0.02  -0.02  -0.03    -0.02   0.01   0.02
  16   1     0.00  -0.02  -0.10     0.00   0.01   0.03    -0.01  -0.00  -0.01
  17   1    -0.29   0.03  -0.09     0.11  -0.01   0.04    -0.07  -0.00  -0.04
  18   1    -0.06   0.08  -0.09     0.02  -0.02   0.03    -0.02   0.02  -0.02
  19   1    -0.01   0.05   0.07    -0.00  -0.01  -0.03    -0.00   0.02   0.02
  20   1     0.07  -0.03   0.20    -0.02   0.01  -0.06    -0.00  -0.01   0.03
  21   1    -0.11  -0.14   0.01     0.01   0.02  -0.00    -0.31  -0.28   0.01
  22   1    -0.00  -0.00   0.00    -0.05   0.02  -0.00    -0.35   0.09  -0.00
  23   1    -0.52   0.12   0.00     0.16  -0.04  -0.00     0.17  -0.03  -0.00
  24   1     0.06  -0.03   0.00    -0.34   0.06  -0.00    -0.37   0.05  -0.00
  25   1     0.02  -0.09   0.00     0.17  -0.57   0.01    -0.14   0.28  -0.00
  26   1     0.12   0.17  -0.00     0.39   0.45  -0.00     0.07   0.07  -0.00
  27   1    -0.34   0.09  -0.00    -0.19   0.04  -0.00     0.25  -0.05   0.00
                     43                     44                     45
                        a                      a                      a 
 Frequencies --  1252.9802              1262.9006              1297.8599
 Red. masses --     4.5443                 8.8209                 7.4278
 Frc consts  --     0.0000                 0.0000                 0.0000
 IR Inten    --     0.5124                 5.4801                15.0921
 Raman Activ --     0.0000                 0.0000                 0.0000
 Depolar     --     0.0000                 0.0000                 0.0000
 Atom AN      X      Y      Z        X      Y      Z        X      Y      Z
   1   7     0.01   0.02   0.01    -0.02  -0.02  -0.01     0.07   0.07   0.03
   2   6    -0.06  -0.01  -0.01     0.17   0.07  -0.02    -0.38  -0.15  -0.10
   3   6     0.03   0.03   0.00    -0.05   0.05  -0.01     0.11   0.12   0.02
   4   6    -0.11   0.04   0.00    -0.34  -0.26   0.00    -0.03   0.31   0.01
   5   6     0.02   0.08  -0.00    -0.11   0.06   0.00    -0.05  -0.10   0.00
   6   6     0.01   0.14  -0.00    -0.02   0.17  -0.00     0.17  -0.11   0.00
   7   6     0.03   0.04  -0.00    -0.13  -0.13  -0.00     0.14  -0.20   0.00
   8   6     0.08  -0.34   0.00     0.45  -0.03   0.00     0.02   0.10  -0.00
   9   6     0.03  -0.33   0.00     0.35   0.04   0.00    -0.10   0.15  -0.00
  10   6     0.03   0.06  -0.00    -0.10  -0.10   0.00     0.11  -0.12   0.00
  11   6    -0.06   0.04  -0.00    -0.08  -0.13   0.00    -0.06   0.12  -0.00
  12   6     0.02   0.10  -0.00    -0.05   0.17  -0.00    -0.15  -0.06   0.00
  13   6     0.02   0.14  -0.00     0.02   0.07  -0.00     0.21  -0.02   0.00
  14   1     0.01  -0.01  -0.02    -0.01   0.01   0.02     0.03  -0.02  -0.07
  15   1    -0.00  -0.01   0.00     0.03   0.01  -0.02    -0.04  -0.03   0.02
  16   1    -0.01   0.00   0.01     0.04  -0.00  -0.00    -0.07   0.01   0.02
  17   1     0.16   0.00   0.00     0.23   0.03   0.16     0.51  -0.02   0.10
  18   1    -0.01  -0.01  -0.00     0.03  -0.01   0.03    -0.05  -0.07   0.01
  19   1     0.01  -0.01   0.03    -0.00  -0.01  -0.02     0.06  -0.07   0.11
  20   1    -0.02   0.00  -0.01     0.02   0.01  -0.04    -0.09   0.01  -0.05
  21   1    -0.05  -0.03   0.00     0.01   0.07  -0.00    -0.12  -0.14   0.00
  22   1    -0.40   0.12  -0.00     0.16   0.02   0.00    -0.05  -0.01   0.00
  23   1     0.33  -0.06   0.00    -0.24  -0.00   0.00    -0.17  -0.01   0.00
  24   1     0.35  -0.06   0.00    -0.21   0.01  -0.00    -0.13   0.00  -0.00
  25   1    -0.02   0.01  -0.00    -0.06   0.07  -0.00    -0.00  -0.03  -0.00
  26   1    -0.07  -0.05   0.00    -0.17  -0.12   0.00    -0.06  -0.03  -0.00
  27   1    -0.46   0.13  -0.00    -0.13   0.05  -0.00    -0.08   0.02  -0.00
                     46                     47                     48
                        a                      a                      a 
 Frequencies --  1301.1148              1315.3818              1344.2239
 Red. masses --     3.1127                 9.6445                 6.9051
 Frc consts  --     0.0000                 0.0000                 0.0000
 IR Inten    --    11.8353                 7.2393                 0.7749
 Raman Activ --     0.0000                 0.0000                 0.0000
 Depolar     --     0.0000                 0.0000                 0.0000
 Atom AN      X      Y      Z        X      Y      Z        X      Y      Z
   1   7    -0.05   0.19   0.02     0.04   0.02   0.01     0.00  -0.06  -0.05
   2   6     0.01  -0.04   0.33    -0.22  -0.08  -0.06     0.23   0.01   0.04
   3   6     0.00  -0.13  -0.03     0.06   0.05   0.01    -0.05  -0.04  -0.00
   4   6    -0.04   0.02  -0.03     0.18   0.01   0.01    -0.12   0.18  -0.01
   5   6     0.00  -0.01  -0.00     0.31   0.17  -0.00     0.05   0.08  -0.00
   6   6    -0.01  -0.01   0.00    -0.26  -0.18   0.00     0.14  -0.15   0.00
   7   6    -0.04  -0.05   0.01    -0.31   0.00  -0.00    -0.20  -0.13  -0.00
   8   6     0.08   0.01   0.00     0.21   0.08  -0.00     0.06   0.26  -0.00
   9   6     0.03   0.05  -0.00     0.07   0.10  -0.00     0.00   0.11  -0.00
  10   6    -0.02  -0.02  -0.00    -0.35   0.09  -0.00    -0.06  -0.17   0.00
  11   6    -0.01  -0.01   0.00     0.15  -0.14   0.00    -0.11   0.22  -0.00
  12   6    -0.01   0.03  -0.00     0.20   0.16  -0.00    -0.02   0.08  -0.00
  13   6     0.02  -0.01   0.00    -0.22  -0.09  -0.00     0.31  -0.19   0.00
  14   1     0.05  -0.10  -0.05     0.01   0.00  -0.02    -0.02   0.05   0.07
  15   1     0.06  -0.09  -0.08    -0.03  -0.01   0.02    -0.02   0.05   0.02
  16   1    -0.01   0.05   0.05    -0.04   0.00   0.00    -0.00  -0.01   0.04
  17   1     0.19  -0.05  -0.84     0.21  -0.01   0.06    -0.38  -0.00   0.01
  18   1    -0.04   0.05  -0.06    -0.03  -0.03  -0.00     0.02   0.04  -0.01
  19   1    -0.05   0.08  -0.06     0.02  -0.02   0.05    -0.02   0.03  -0.05
  20   1     0.02  -0.02   0.05    -0.05   0.01  -0.02     0.03  -0.01  -0.01
  21   1    -0.01  -0.02   0.00    -0.11  -0.17   0.01    -0.19  -0.21   0.00
  22   1     0.03  -0.01  -0.00     0.08  -0.08  -0.00    -0.11  -0.01  -0.00
  23   1    -0.03  -0.01  -0.01     0.15  -0.05   0.00     0.11  -0.07   0.00
  24   1    -0.03  -0.00  -0.00     0.18  -0.03   0.00     0.03  -0.06   0.00
  25   1     0.00  -0.01   0.00     0.07  -0.13   0.00     0.06  -0.23   0.00
  26   1    -0.04  -0.03   0.00    -0.04  -0.07   0.00    -0.22  -0.22   0.00
  27   1    -0.03   0.01   0.00     0.10  -0.06   0.00    -0.17   0.00  -0.00
                     49                     50                     51
                        a                      a                      a 
 Frequencies --  1379.0281              1395.4198              1418.8490
 Red. masses --     3.0722                11.5768                 8.2468
 Frc consts  --     0.0000                 0.0000                 0.0000
 IR Inten    --   239.4063                18.8671                 3.8363
 Raman Activ --     0.0000                 0.0000                 0.0000
 Depolar     --     0.0000                 0.0000                 0.0000
 Atom AN      X      Y      Z        X      Y      Z        X      Y      Z
   1   7     0.19  -0.10  -0.31     0.00   0.01  -0.00    -0.01   0.01  -0.02
   2   6    -0.02  -0.00   0.05    -0.04  -0.01  -0.00    -0.05   0.04  -0.00
   3   6    -0.02  -0.00  -0.07     0.00   0.01  -0.01    -0.02   0.02  -0.07
   4   6    -0.01   0.00  -0.01     0.10  -0.16   0.00     0.03  -0.31   0.00
   5   6    -0.01  -0.02   0.00     0.21   0.11   0.00    -0.21   0.11  -0.00
   6   6    -0.02   0.01   0.00    -0.32   0.08  -0.00     0.24   0.08   0.00
   7   6     0.02   0.00   0.00    -0.26   0.01  -0.00     0.12   0.03   0.00
   8   6     0.01  -0.05   0.00     0.16   0.41  -0.00    -0.17   0.30  -0.00
   9   6    -0.00   0.01  -0.00    -0.15  -0.47   0.00     0.15  -0.23   0.00
  10   6     0.01   0.02  -0.00     0.32   0.02   0.00    -0.20  -0.05  -0.00
  11   6     0.01  -0.04   0.00    -0.06   0.11  -0.00    -0.05   0.29  -0.00
  12   6    -0.01  -0.00   0.00    -0.23  -0.15   0.00     0.21  -0.07   0.00
  13   6    -0.03   0.03  -0.00     0.24  -0.03   0.00    -0.15  -0.13   0.00
  14   1    -0.07   0.25   0.46     0.00   0.00   0.02     0.02  -0.05   0.02
  15   1    -0.39   0.20   0.27    -0.02  -0.01   0.00    -0.02   0.03   0.02
  16   1    -0.26  -0.02   0.43    -0.01   0.00   0.00     0.05   0.01   0.04
  17   1     0.06  -0.00  -0.12     0.08  -0.00  -0.01     0.19   0.01  -0.02
  18   1     0.06  -0.03   0.04     0.00  -0.01   0.01     0.08  -0.04   0.06
  19   1    -0.00  -0.01   0.07     0.00  -0.01   0.01     0.00  -0.02   0.10
  20   1     0.02   0.01   0.08    -0.00   0.00   0.01     0.02   0.01   0.09
  21   1     0.03   0.02  -0.00     0.07   0.04   0.00    -0.02   0.07   0.00
  22   1     0.02  -0.00   0.00    -0.02   0.00  -0.00    -0.18   0.08  -0.00
  23   1    -0.00   0.00  -0.00    -0.05  -0.00  -0.00    -0.23   0.07  -0.00
  24   1    -0.02   0.01   0.00     0.01   0.02   0.00     0.23  -0.08   0.00
  25   1    -0.01   0.03  -0.00    -0.05   0.13  -0.00     0.10  -0.24   0.00
  26   1     0.02   0.03  -0.00    -0.00   0.03  -0.00    -0.02  -0.11   0.00
  27   1     0.00   0.01  -0.00     0.06  -0.00   0.00     0.15  -0.08   0.00
                     52                     53                     54
                        a                      a                      a 
 Frequencies --  1426.2363              1434.1788              1436.2845
 Red. masses --     2.9335                 6.4785                 1.9817
 Frc consts  --     0.0000                 0.0000                 0.0000
 IR Inten    --    56.8471                41.7799                44.3964
 Raman Activ --     0.0000                 0.0000                 0.0000
 Depolar     --     0.0000                 0.0000                 0.0000
 Atom AN      X      Y      Z        X      Y      Z        X      Y      Z
   1   7    -0.08   0.07  -0.01    -0.09  -0.10  -0.03    -0.06   0.14  -0.12
   2   6     0.01  -0.01   0.01     0.08  -0.00   0.02    -0.01   0.02  -0.05
   3   6    -0.15   0.06  -0.33     0.00  -0.01   0.00     0.08  -0.05   0.15
   4   6     0.01   0.08  -0.00    -0.30   0.08  -0.00    -0.04   0.01   0.01
   5   6     0.05  -0.02  -0.00     0.10   0.13  -0.00     0.01   0.01  -0.00
   6   6    -0.05  -0.03   0.00     0.13  -0.08   0.00     0.02  -0.01  -0.00
   7   6    -0.03  -0.00   0.00     0.13  -0.16   0.00     0.02  -0.02   0.00
   8   6     0.02  -0.06   0.00     0.24   0.06   0.00     0.04   0.01  -0.00
   9   6    -0.02   0.06  -0.00    -0.20  -0.08   0.00    -0.03  -0.01   0.00
  10   6     0.04   0.00  -0.00    -0.13   0.14  -0.00    -0.02   0.02  -0.00
  11   6     0.00  -0.06   0.00     0.20  -0.06   0.00     0.03  -0.01   0.00
  12   6    -0.03   0.02  -0.00    -0.14  -0.18   0.00    -0.02  -0.03  -0.00
  13   6     0.04   0.02  -0.00    -0.13   0.12  -0.00    -0.02   0.02  -0.00
  14   1     0.11  -0.28   0.03    -0.02  -0.01  -0.19     0.23  -0.52   0.35
  15   1    -0.06  -0.01   0.02     0.18   0.39   0.02    -0.36  -0.12   0.14
  16   1     0.27   0.03  -0.02     0.21   0.01   0.27     0.41   0.05  -0.01
  17   1    -0.06  -0.00  -0.01    -0.04  -0.00  -0.02    -0.02   0.01   0.06
  18   1     0.37  -0.20   0.28    -0.00   0.01  -0.01    -0.12   0.10  -0.10
  19   1     0.01  -0.07   0.44    -0.01   0.01  -0.02    -0.03   0.11  -0.17
  20   1     0.11   0.06   0.41    -0.01  -0.00  -0.01    -0.11  -0.03  -0.19
  21   1    -0.02  -0.04  -0.00    -0.14  -0.14   0.00    -0.02  -0.01   0.01
  22   1     0.04  -0.02  -0.00    -0.15   0.01  -0.00    -0.02   0.00  -0.00
  23   1     0.06  -0.01  -0.00    -0.11  -0.02   0.00    -0.02  -0.00   0.00
  24   1    -0.05   0.01  -0.00     0.11   0.01   0.00     0.02   0.00   0.00
  25   1    -0.02   0.04  -0.00     0.03   0.09  -0.00     0.00   0.01  -0.00
  26   1    -0.01   0.01   0.00     0.14   0.15  -0.00     0.02   0.02   0.00
  27   1    -0.04   0.01   0.00     0.16  -0.00   0.00     0.02  -0.00   0.00
                     55                     56                     57
                        a                      a                      a 
 Frequencies --  1439.8556              1480.9215              1484.9063
 Red. masses --     4.2646                 1.5763                 1.6187
 Frc consts  --     0.0000                 0.0000                 0.0000
 IR Inten    --    31.8512                22.0547                 7.3820
 Raman Activ --     0.0000                 0.0000                 0.0000
 Depolar     --     0.0000                 0.0000                 0.0000
 Atom AN      X      Y      Z        X      Y      Z        X      Y      Z
   1   7    -0.13  -0.10  -0.05    -0.01  -0.01   0.00    -0.01   0.01  -0.02
   2   6    -0.11  -0.02  -0.03    -0.05  -0.05  -0.02    -0.06   0.01   0.03
   3   6     0.07   0.01   0.05    -0.06  -0.19   0.01    -0.19   0.08   0.06
   4   6     0.24  -0.05   0.01     0.03  -0.02  -0.00     0.03   0.01  -0.00
   5   6    -0.04  -0.08  -0.00     0.01   0.01   0.00     0.01   0.00   0.00
   6   6    -0.12   0.05  -0.00    -0.02  -0.01  -0.00    -0.02  -0.01   0.00
   7   6    -0.09   0.12   0.00    -0.00   0.02   0.00    -0.00   0.01   0.00
   8   6    -0.18  -0.05  -0.00    -0.03  -0.01  -0.00    -0.02  -0.00   0.00
   9   6     0.12   0.06   0.00    -0.01   0.02  -0.00     0.00   0.00  -0.00
  10   6     0.11  -0.10   0.00     0.03  -0.01   0.00     0.01  -0.00   0.00
  11   6    -0.14   0.03  -0.00    -0.01  -0.01   0.00    -0.01  -0.00  -0.00
  12   6     0.09   0.13  -0.00     0.01   0.02  -0.00     0.01   0.01  -0.00
  13   6     0.10  -0.08   0.00     0.01  -0.01   0.00     0.00  -0.01   0.00
  14   1     0.01  -0.10  -0.20    -0.01   0.02  -0.05     0.03  -0.07   0.01
  15   1     0.16   0.51   0.06     0.04   0.06  -0.00    -0.02   0.04   0.02
  16   1     0.33   0.02   0.38     0.00  -0.00   0.05     0.08   0.01   0.04
  17   1     0.07  -0.00  -0.01     0.05  -0.01   0.03     0.02   0.00  -0.03
  18   1    -0.10  -0.06  -0.03     0.40   0.56  -0.01    -0.11   0.23  -0.14
  19   1    -0.00   0.03  -0.10    -0.12   0.28   0.42     0.21  -0.57   0.04
  20   1    -0.09  -0.01   0.00     0.01  -0.05  -0.43     0.67   0.03  -0.17
  21   1     0.10   0.10   0.01     0.02   0.02   0.00    -0.01  -0.01  -0.01
  22   1     0.11  -0.01   0.00     0.01  -0.00  -0.00     0.00  -0.00  -0.00
  23   1     0.08   0.01  -0.00     0.00   0.00   0.00     0.01   0.00  -0.00
  24   1    -0.09  -0.00   0.00    -0.01   0.00  -0.00    -0.01   0.00  -0.00
  25   1    -0.02  -0.05   0.00    -0.01   0.00  -0.00    -0.00  -0.00   0.00
  26   1    -0.10  -0.10   0.00    -0.01  -0.01   0.00    -0.01  -0.01   0.00
  27   1    -0.12   0.00  -0.00    -0.01   0.00   0.00    -0.01  -0.00   0.00
                     58                     59                     60
                        a                      a                      a 
 Frequencies --  1533.9514              1551.8426              1558.7682
 Red. masses --    10.8936                11.3624                11.5557
 Frc consts  --     0.0000                 0.0000                 0.0000
 IR Inten    --     0.5729                 0.3829                 6.4569
 Raman Activ --     0.0000                 0.0000                 0.0000
 Depolar     --     0.0000                 0.0000                 0.0000
 Atom AN      X      Y      Z        X      Y      Z        X      Y      Z
   1   7    -0.00  -0.00   0.00    -0.01  -0.00   0.01    -0.00   0.00   0.00
   2   6    -0.00  -0.05  -0.00    -0.04   0.01  -0.01    -0.01  -0.03  -0.01
   3   6    -0.00  -0.00  -0.00    -0.01  -0.00  -0.00    -0.00   0.00  -0.00
   4   6     0.04   0.45  -0.00     0.30  -0.22   0.01     0.12   0.24   0.00
   5   6    -0.12  -0.38   0.00    -0.25  -0.04  -0.00    -0.30  -0.32   0.00
   6   6    -0.19   0.20  -0.00     0.34  -0.03   0.00     0.27   0.11   0.00
   7   6    -0.09  -0.13   0.00    -0.42   0.17  -0.00    -0.12  -0.07   0.00
   8   6     0.25  -0.02   0.00     0.15  -0.11   0.00     0.10   0.32  -0.00
   9   6     0.29  -0.14   0.00    -0.01   0.20  -0.00    -0.15  -0.27   0.00
  10   6    -0.10  -0.11   0.00    -0.24   0.03  -0.00    -0.07   0.20  -0.00
  11   6    -0.03   0.34  -0.00     0.18   0.06   0.00     0.09  -0.44   0.01
  12   6    -0.01  -0.25   0.00    -0.33  -0.27   0.00     0.12   0.33  -0.00
  13   6    -0.20   0.13  -0.00     0.25   0.11   0.00    -0.01  -0.14   0.00
  14   1     0.00  -0.01  -0.01    -0.00   0.00   0.00    -0.00  -0.00  -0.01
  15   1     0.01   0.01   0.00     0.00   0.01   0.00     0.00   0.01   0.00
  16   1     0.01   0.00   0.01     0.00   0.00   0.00     0.00   0.00   0.01
  17   1    -0.10  -0.01   0.00     0.05   0.00   0.00    -0.04  -0.00   0.00
  18   1     0.02   0.02  -0.00     0.00   0.00   0.00     0.01   0.01   0.00
  19   1    -0.00   0.00   0.02     0.00  -0.01   0.00    -0.00   0.00   0.01
  20   1     0.00  -0.00  -0.02     0.01   0.00  -0.00     0.00  -0.00  -0.01
  21   1     0.12   0.07  -0.00     0.02   0.08   0.00     0.07   0.08  -0.00
  22   1     0.13   0.02   0.00    -0.06   0.03   0.00    -0.05   0.05  -0.00
  23   1     0.08  -0.05   0.00     0.13  -0.00  -0.00     0.03  -0.02   0.00
  24   1     0.08  -0.06   0.00     0.06  -0.01   0.00     0.01   0.05  -0.00
  25   1     0.06  -0.11   0.00     0.04   0.04  -0.00    -0.05   0.10  -0.00
  26   1     0.08   0.02   0.00     0.07   0.11  -0.00    -0.07  -0.02  -0.00
  27   1     0.12  -0.00   0.00    -0.02   0.05  -0.00    -0.02  -0.03   0.00
                     61                     62                     63
                        a                      a                      a 
 Frequencies --  1575.2228              2890.1032              3010.7037
 Red. masses --    11.4816                 1.7572                 1.8705
 Frc consts  --     0.0000                 0.0000                 0.0000
 IR Inten    --     0.6328                 5.3425                32.3055
 Raman Activ --     0.0000                 0.0000                 0.0000
 Depolar     --     0.0000                 0.0000                 0.0000
 Atom AN      X      Y      Z        X      Y      Z        X      Y      Z
   1   7     0.00   0.00  -0.00    -0.00   0.00   0.00     0.00  -0.00   0.00
   2   6    -0.00  -0.01   0.00    -0.00   0.26  -0.01    -0.01  -0.01   0.00
   3   6     0.00  -0.00   0.00    -0.00  -0.01  -0.00    -0.24  -0.13   0.04
   4   6    -0.07   0.09  -0.00     0.00   0.01  -0.00     0.00   0.00  -0.00
   5   6     0.07  -0.02   0.00     0.00  -0.00  -0.00    -0.00   0.00  -0.00
   6   6    -0.23   0.08  -0.00    -0.00  -0.00   0.00     0.00  -0.00  -0.00
   7   6     0.22  -0.05   0.00    -0.00  -0.00   0.00     0.00   0.00  -0.00
   8   6    -0.36   0.12  -0.00     0.00   0.00   0.00    -0.00   0.00   0.00
   9   6     0.40  -0.10   0.00     0.00  -0.00   0.00     0.00   0.00  -0.00
  10   6    -0.42   0.13  -0.00    -0.00  -0.00  -0.00    -0.00   0.00  -0.00
  11   6     0.22  -0.18   0.00    -0.00  -0.00   0.00    -0.00  -0.00   0.00
  12   6    -0.25  -0.05  -0.00    -0.00   0.00  -0.00    -0.00   0.00  -0.00
  13   6     0.41  -0.06   0.00    -0.00  -0.00  -0.00     0.00   0.00   0.00
  14   1     0.00  -0.00  -0.00     0.00   0.00   0.00     0.00   0.00  -0.00
  15   1    -0.00  -0.00   0.00    -0.00   0.00   0.00    -0.00   0.00  -0.00
  16   1    -0.00   0.00   0.00    -0.00   0.02   0.00    -0.00   0.00   0.00
  17   1    -0.01  -0.00  -0.00     0.02  -0.96   0.05     0.00   0.02  -0.00
  18   1     0.00   0.00  -0.00    -0.01   0.00   0.01     0.05  -0.08  -0.12
  19   1     0.00   0.00   0.00     0.02   0.00  -0.00     0.86   0.33   0.00
  20   1    -0.00  -0.00  -0.00    -0.00   0.04  -0.00    -0.04   0.20  -0.01
  21   1     0.01  -0.01  -0.00    -0.00   0.00   0.00     0.01  -0.00   0.00
  22   1     0.08  -0.01   0.00     0.00   0.00   0.00     0.00   0.00   0.00
  23   1    -0.07   0.01   0.00     0.00   0.00  -0.00    -0.00  -0.00  -0.00
  24   1     0.12  -0.02   0.00    -0.00   0.00   0.00    -0.00  -0.00   0.00
  25   1     0.02   0.07  -0.00    -0.00   0.00   0.00     0.00   0.00   0.00
  26   1     0.01   0.07  -0.00     0.00  -0.00  -0.00     0.00  -0.00  -0.00
  27   1    -0.11   0.03  -0.00     0.00   0.00  -0.00    -0.00  -0.00  -0.00
                     64                     65                     66
                        a                      a                      a 
 Frequencies --  3023.6209              3034.7280              3094.8712
 Red. masses --     1.9131                 1.3935                 1.7723
 Frc consts  --     0.0000                 0.0000                 0.0000
 IR Inten    --     0.7180                 8.1951                 3.7436
 Raman Activ --     0.0000                 0.0000                 0.0000
 Depolar     --     0.0000                 0.0000                 0.0000
 Atom AN      X      Y      Z        X      Y      Z        X      Y      Z
   1   7    -0.00   0.00   0.00     0.00  -0.00   0.00    -0.00  -0.00  -0.00
   2   6     0.00  -0.01  -0.00    -0.00   0.01  -0.00     0.00   0.00   0.00
   3   6     0.10  -0.20  -0.17    -0.02   0.15  -0.11    -0.00   0.00   0.00
   4   6    -0.00  -0.00  -0.00     0.00   0.00  -0.00    -0.00   0.00  -0.00
   5   6    -0.00   0.00  -0.00     0.01  -0.01   0.00    -0.00   0.00  -0.00
   6   6     0.00   0.00   0.00     0.00   0.00  -0.00    -0.00  -0.00   0.00
   7   6     0.00   0.00   0.00    -0.00  -0.00  -0.00    -0.00  -0.00   0.00
   8   6    -0.00   0.00   0.00     0.00  -0.00   0.00     0.00   0.00  -0.00
   9   6    -0.00  -0.00  -0.00     0.00   0.00  -0.00    -0.00   0.00  -0.00
  10   6     0.00   0.00  -0.00    -0.00  -0.00   0.00     0.01   0.04  -0.00
  11   6     0.00   0.00   0.00     0.00  -0.00  -0.00    -0.17  -0.06  -0.00
  12   6     0.00  -0.00   0.00     0.00  -0.00   0.00     0.13  -0.12   0.00
  13   6     0.00   0.00  -0.00    -0.00  -0.00  -0.00     0.01   0.04  -0.00
  14   1     0.00   0.00   0.00     0.00   0.00  -0.00     0.00  -0.00  -0.00
  15   1     0.00  -0.00   0.00    -0.00   0.00  -0.01    -0.00   0.00  -0.00
  16   1     0.00  -0.00   0.00    -0.00  -0.00  -0.00     0.00  -0.00  -0.00
  17   1    -0.00   0.03  -0.00     0.00  -0.03   0.00    -0.00  -0.00   0.00
  18   1    -0.41   0.28   0.68    -0.22   0.18   0.36     0.00  -0.00  -0.00
  19   1     0.05  -0.02  -0.02     0.25   0.12  -0.01     0.00  -0.00   0.00
  20   1    -0.01   0.45  -0.06     0.04  -0.82   0.06     0.00  -0.00   0.00
  21   1     0.01  -0.01  -0.00    -0.02   0.02   0.00     0.01  -0.01   0.00
  22   1     0.00   0.00  -0.00    -0.00  -0.00  -0.00     0.00   0.01  -0.00
  23   1    -0.00  -0.00   0.00     0.00   0.00   0.00     0.00   0.01  -0.00
  24   1    -0.00  -0.00  -0.00     0.00   0.00  -0.00    -0.03  -0.16   0.00
  25   1     0.00   0.00   0.00    -0.00  -0.00   0.00     0.64   0.21   0.00
  26   1    -0.00   0.00   0.00     0.00  -0.00   0.00    -0.49   0.43  -0.01
  27   1    -0.00  -0.00   0.00     0.00   0.00   0.00    -0.03  -0.17   0.00
                     67                     68                     69
                        a                      a                      a 
 Frequencies --  3102.4205              3103.4708              3114.4189
 Red. masses --     1.8013                 1.8226                 1.8531
 Frc consts  --     0.0000                 0.0000                 0.0000
 IR Inten    --    37.5114                 1.2972                 7.9922
 Raman Activ --     0.0000                 0.0000                 0.0000
 Depolar     --     0.0000                 0.0000                 0.0000
 Atom AN      X      Y      Z        X      Y      Z        X      Y      Z
   1   7     0.00  -0.00   0.00     0.00  -0.00   0.00    -0.00   0.00  -0.00
   2   6     0.00  -0.00  -0.00     0.00  -0.00  -0.00    -0.00   0.00   0.00
   3   6    -0.00  -0.01   0.00     0.00  -0.00   0.00    -0.00   0.00  -0.00
   4   6     0.01  -0.00   0.00     0.01  -0.00   0.00     0.00   0.00   0.00
   5   6     0.15  -0.14   0.00     0.10  -0.09   0.00    -0.03   0.03  -0.00
   6   6     0.02   0.09  -0.00     0.01   0.05  -0.00     0.02   0.08  -0.00
   7   6    -0.01  -0.01   0.00    -0.00   0.00  -0.00     0.01   0.06  -0.00
   8   6     0.00   0.00  -0.00    -0.00  -0.00   0.00    -0.01  -0.00  -0.00
   9   6     0.00   0.00  -0.00     0.00   0.01  -0.00     0.01  -0.00   0.00
  10   6    -0.01  -0.05   0.00     0.02   0.06  -0.00    -0.03  -0.16   0.00
  11   6     0.08   0.03   0.00    -0.14  -0.05  -0.00    -0.04  -0.01  -0.00
  12   6     0.07  -0.06   0.00    -0.11   0.10  -0.00     0.05  -0.04   0.00
  13   6     0.01   0.05  -0.00    -0.01  -0.08   0.00    -0.04  -0.18   0.00
  14   1     0.00   0.00   0.00     0.00   0.00   0.00    -0.00  -0.00  -0.00
  15   1    -0.00   0.00  -0.01    -0.00   0.00  -0.00     0.00   0.00   0.00
  16   1    -0.00   0.02   0.00    -0.00   0.01   0.00     0.00  -0.00  -0.00
  17   1     0.00   0.00  -0.00     0.00   0.00  -0.00    -0.00  -0.00   0.00
  18   1     0.00  -0.00  -0.00     0.00  -0.00  -0.00    -0.00   0.00  -0.00
  19   1    -0.00  -0.00  -0.00    -0.00  -0.00  -0.00     0.00   0.00   0.00
  20   1    -0.00   0.02  -0.00    -0.00   0.01  -0.00     0.00  -0.00   0.00
  21   1    -0.54   0.49  -0.01    -0.36   0.32  -0.01     0.11  -0.10   0.00
  22   1    -0.07  -0.35   0.00    -0.04  -0.19   0.00    -0.05  -0.26   0.00
  23   1     0.01   0.05  -0.00    -0.00  -0.01   0.00    -0.04  -0.21   0.00
  24   1     0.04   0.18  -0.00    -0.05  -0.24   0.00     0.12   0.55  -0.01
  25   1    -0.29  -0.09  -0.00     0.49   0.16   0.00     0.11   0.04   0.00
  26   1    -0.25   0.22  -0.00     0.37  -0.33   0.01    -0.15   0.13  -0.00
  27   1    -0.03  -0.17   0.00     0.06   0.28  -0.00     0.13   0.64  -0.01
                     70                     71                     72
                        a                      a                      a 
 Frequencies --  3115.6317              3118.2455              3121.1382
 Red. masses --     1.8868                 1.8631                 1.8262
 Frc consts  --     0.0000                 0.0000                 0.0000
 IR Inten    --    22.1213                27.2284                14.1590
 Raman Activ --     0.0000                 0.0000                 0.0000
 Depolar     --     0.0000                 0.0000                 0.0000
 Atom AN      X      Y      Z        X      Y      Z        X      Y      Z
   1   7     0.00  -0.00   0.00    -0.00   0.00  -0.00    -0.00  -0.00  -0.00
   2   6     0.00  -0.00  -0.00    -0.00   0.00   0.00     0.00   0.00  -0.00
   3   6    -0.00  -0.00   0.00    -0.00   0.00  -0.00    -0.00   0.00  -0.00
   4   6     0.00   0.00   0.00    -0.00  -0.00  -0.00     0.01   0.01   0.00
   5   6     0.05  -0.05   0.00    -0.06   0.06  -0.00     0.02  -0.02   0.00
   6   6    -0.03  -0.13   0.00     0.04   0.19  -0.00    -0.01  -0.03   0.00
   7   6     0.01   0.05  -0.00     0.01   0.06  -0.00     0.05   0.25  -0.00
   8   6    -0.00  -0.00  -0.00    -0.00  -0.00   0.00    -0.00   0.01  -0.00
   9   6    -0.01   0.00  -0.00     0.00   0.01  -0.00    -0.00  -0.00   0.00
  10   6     0.03   0.12  -0.00     0.03   0.15  -0.00    -0.01  -0.03   0.00
  11   6     0.08   0.03   0.00     0.06   0.02   0.00    -0.02  -0.01  -0.00
  12   6     0.07  -0.06   0.00     0.02  -0.02   0.00    -0.02   0.02  -0.00
  13   6    -0.03  -0.15   0.00    -0.00  -0.02   0.00     0.02   0.08  -0.00
  14   1     0.00   0.00   0.00     0.00   0.00  -0.00    -0.00  -0.00   0.00
  15   1    -0.00   0.00  -0.00     0.00   0.00   0.00     0.00   0.00   0.00
  16   1    -0.00   0.01   0.00     0.00  -0.01  -0.00    -0.00   0.01  -0.00
  17   1    -0.00   0.00  -0.00    -0.00  -0.00   0.00    -0.00  -0.00   0.00
  18   1     0.00  -0.00  -0.00    -0.00   0.00  -0.00     0.00   0.00  -0.00
  19   1     0.00   0.00  -0.00    -0.00   0.00   0.00    -0.00  -0.00   0.00
  20   1    -0.00   0.00  -0.00     0.00  -0.01   0.00     0.00  -0.00   0.00
  21   1    -0.17   0.16  -0.00     0.21  -0.19   0.00    -0.07   0.06  -0.00
  22   1     0.09   0.46  -0.00    -0.13  -0.66   0.01     0.02   0.12  -0.00
  23   1    -0.03  -0.18   0.00    -0.04  -0.21   0.00    -0.18  -0.88   0.01
  24   1    -0.09  -0.43   0.00    -0.12  -0.53   0.01     0.02   0.10  -0.00
  25   1    -0.25  -0.08  -0.00    -0.18  -0.06  -0.00     0.05   0.02   0.00
  26   1    -0.22   0.19  -0.00    -0.06   0.06  -0.00     0.07  -0.06   0.00
  27   1     0.10   0.51  -0.00     0.01   0.06  -0.00    -0.05  -0.28   0.00
                     73                     74                     75
                        a                      a                      a 
 Frequencies --  3206.5776              3217.2039              3232.4266
 Red. masses --     1.9806                 2.0165                 1.3417
 Frc consts  --     0.0000                 0.0000                 0.0000
 IR Inten    --    51.2339                67.4150                24.4026
 Raman Activ --     0.0000                 0.0000                 0.0000
 Depolar     --     0.0000                 0.0000                 0.0000
 Atom AN      X      Y      Z        X      Y      Z        X      Y      Z
   1   7    -0.24  -0.13  -0.04     0.10  -0.20   0.17     0.02  -0.12  -0.10
   2   6    -0.00  -0.00   0.00     0.00  -0.01   0.00     0.01  -0.01  -0.01
   3   6     0.00   0.00   0.00     0.00   0.00  -0.00     0.00   0.00  -0.00
   4   6     0.00   0.00   0.00    -0.00  -0.00   0.00     0.00  -0.00   0.00
   5   6    -0.00   0.00  -0.00    -0.00   0.00  -0.00    -0.00   0.00  -0.00
   6   6     0.00   0.00   0.00     0.00   0.00  -0.00     0.00   0.00  -0.00
   7   6     0.00  -0.00   0.00     0.00  -0.00   0.00    -0.00  -0.00  -0.00
   8   6    -0.00   0.00  -0.00    -0.00  -0.00  -0.00    -0.00  -0.00  -0.00
   9   6     0.00   0.00   0.00     0.00  -0.00   0.00    -0.00   0.00   0.00
  10   6    -0.00  -0.00   0.00    -0.00  -0.00   0.00     0.00   0.00   0.00
  11   6    -0.00   0.00  -0.00     0.00   0.00  -0.00     0.00   0.00  -0.00
  12   6    -0.00   0.00   0.00    -0.00   0.00  -0.00     0.00  -0.00   0.00
  13   6     0.00  -0.00  -0.00     0.00   0.00   0.00    -0.00  -0.00  -0.00
  14   1     0.84   0.35  -0.03     0.06   0.00   0.02    -0.30  -0.14  -0.00
  15   1     0.09  -0.07   0.18    -0.39   0.20  -0.66     0.26  -0.16   0.42
  16   1    -0.04   0.22  -0.01    -0.03   0.54   0.00    -0.05   0.77  -0.03
  17   1     0.00   0.01  -0.00    -0.00   0.01  -0.00     0.00   0.01  -0.00
  18   1     0.00  -0.00  -0.00    -0.00   0.00   0.00    -0.00   0.00   0.01
  19   1    -0.00  -0.00   0.00    -0.00  -0.00  -0.00     0.00  -0.00  -0.00
  20   1    -0.00  -0.00   0.00    -0.00   0.00  -0.00     0.00  -0.00  -0.00
  21   1     0.01  -0.00  -0.00     0.02  -0.01   0.00     0.01  -0.01   0.00
  22   1    -0.00  -0.00   0.00    -0.00  -0.00   0.00    -0.00  -0.00   0.00
  23   1    -0.00   0.00   0.00    -0.00   0.00  -0.00     0.00   0.00  -0.00
  24   1     0.00   0.00   0.00     0.00   0.00   0.00    -0.00  -0.00   0.00
  25   1     0.00   0.00   0.00    -0.00   0.00  -0.00    -0.00  -0.00   0.00
  26   1     0.00  -0.00   0.00     0.00  -0.00  -0.00    -0.00   0.00  -0.00
  27   1    -0.00   0.00  -0.00    -0.00  -0.00  -0.00     0.00   0.00  -0.00
