18
 energy: -25.726991892030 gnorm: 0.000465455435 xtb: 6.5.1 (fef0646)
N            1.24757082902182        0.33515101597132       -0.24932497388928
C            2.70323245972290        0.26715353508485       -0.35583454109601
C            3.12544799259618       -1.13027264184825       -0.80189261061891
C            4.64495469634555       -1.28234960615770       -0.79651403175628
C            5.04464001188518       -2.67950025427586       -1.23246026373673
Br           6.98852523614713       -2.87907288898578       -1.22747055223402
Cl           0.35309999089469       -1.73209085937125        1.64308280995812
H            0.94419055949960        1.24269037541054        0.08567187116980
H            0.76231159938526       -0.76311033843025        0.76948466298380
H            0.80895601561266        0.15560767982436       -1.14661979780848
H            3.11298917690843        0.47406535995565        0.63531866748986
H            3.10481786698760        1.01535900174578       -1.05446912259862
H            2.74053822864437       -1.32155238161720       -1.80681668402449
H            2.67710997026245       -1.85943119192828       -0.12622374328629
H            5.02639046765353       -1.09189947862275        0.20917485104301
H            5.09459643211375       -0.54685930579384       -1.46873286720997
H            4.71961741946578       -2.89478124030881       -2.24988693520053
H            4.65578104685352       -3.43819678065255       -0.55457673918495
