 Entering Gaussian System
 *********************************************
 Gaussian 98:
 frequency output generated by the xtb code
 *********************************************
                         Standard orientation:
 --------------------------------------------------------------------
  Center     Atomic     Atomic              Coordinates (Angstroms)
  Number     Number      Type              X           Y           Z
 --------------------------------------------------------------------
    1          7             0       -2.767964    0.228227    1.479449
    2          6             0       -3.001073   -0.855384    0.489782
    3          6             0       -2.215816   -0.626230   -0.799581
    4          6             0       -0.744524   -0.461277   -0.558567
    5          6             0        0.070550   -1.556121   -0.431838
    6          6             0        1.450362   -1.417088   -0.164203
    7          6             0        2.306057   -2.534002   -0.035524
    8          6             0        3.635319   -2.365609    0.224591
    9          6             0        4.172386   -1.080711    0.368607
   10          6             0        3.373211    0.019543    0.251308
   11          6             0        1.992699   -0.119090   -0.017597
   12          6             0        1.134195    0.995224   -0.140016
   13          6             0       -0.194217    0.823900   -0.399741
   14         17             0       -2.841794    3.246065   -0.277276
   15          1             0       -1.787043    0.221323    1.807156
   16          1             0       -3.378011    0.146782    2.310172
   17          1             0       -2.931281    1.154867    1.047908
   18          1             0       -4.073964   -0.934528    0.272766
   19          1             0       -2.716027   -1.817334    0.933043
   20          1             0       -2.594853    0.269171   -1.306072
   21          1             0       -2.378273   -1.451190   -1.504149
   22          1             0       -0.347035   -2.543259   -0.533814
   23          1             0        1.893031   -3.523180   -0.146150
   24          1             0        4.278765   -3.226102    0.320431
   25          1             0        5.224947   -0.962806    0.573993
   26          1             0        3.786487    1.008381    0.363005
   27          1             0        1.542800    1.985242   -0.020369
   28          1             0       -0.846643    1.679254   -0.472160
 --------------------------------------------------------------------
     1 basis functions        1 primitive gaussians
     1 alpha electrons        1 beta electrons

 Harmonic frequencies (cm**-1), IR intensities (km*mol⁻¹),
 Raman scattering activities (A**4/amu), Raman depolarization ratios,
 reduced masses (AMU), force constants (mDyne/A) and normal coordinates:
                      1                      2                      3
                        a                      a                      a 
 Frequencies --  -140.0829                44.5350                58.5725
 Red. masses --    19.2289                13.8392                22.2023
 Frc consts  --     0.0000                 0.0000                 0.0000
 IR Inten    --   131.9816                 1.1401                 8.5090
 Raman Activ --     0.0000                 0.0000                 0.0000
 Depolar     --     0.0000                 0.0000                 0.0000
 Atom AN      X      Y      Z        X      Y      Z        X      Y      Z
   1   7     0.07  -0.54   0.29    -0.01   0.19  -0.06    -0.15   0.10   0.00
   2   6     0.03  -0.27   0.01    -0.04   0.01   0.13     0.05   0.06  -0.01
   3   6    -0.02   0.03   0.03    -0.03  -0.25   0.09     0.11   0.17   0.05
   4   6    -0.02   0.02   0.03    -0.04  -0.18   0.07     0.11   0.10   0.11
   5   6    -0.02   0.02   0.02     0.05  -0.13  -0.10     0.06   0.05   0.06
   6   6    -0.02   0.01   0.01     0.05  -0.06  -0.08     0.07  -0.03   0.04
   7   6    -0.02   0.00   0.02     0.14  -0.00  -0.28     0.02  -0.08  -0.06
   8   6    -0.02  -0.00   0.01     0.13   0.07  -0.25     0.04  -0.16  -0.14
   9   6    -0.01  -0.00  -0.01     0.01   0.09  -0.01     0.12  -0.19  -0.12
  10   6    -0.01   0.00  -0.01    -0.08   0.04   0.19     0.16  -0.15  -0.01
  11   6    -0.01   0.01  -0.00    -0.07  -0.04   0.15     0.14  -0.06   0.07
  12   6    -0.01   0.01  -0.00    -0.15  -0.09   0.30     0.19  -0.02   0.16
  13   6    -0.01   0.02   0.01    -0.14  -0.15   0.25     0.17   0.06   0.18
  14  17     0.04   0.52  -0.30     0.10   0.29  -0.24    -0.65   0.08  -0.20
  15   1     0.04  -0.12   0.01    -0.00   0.06  -0.02    -0.04   0.08  -0.01
  16   1     0.07  -0.24   0.11     0.00   0.09  -0.01    -0.03  -0.01   0.01
  17   1    -0.07  -0.14   0.17     0.00   0.03  -0.06    -0.10   0.01   0.00
  18   1     0.01  -0.07   0.01    -0.01   0.00   0.04     0.02  -0.01  -0.02
  19   1     0.02  -0.10  -0.06    -0.02   0.02   0.09     0.04   0.03   0.00
  20   1    -0.02   0.03   0.06    -0.01  -0.10  -0.03     0.04   0.06   0.04
  21   1    -0.00   0.05  -0.03    -0.01  -0.11   0.07     0.03   0.07  -0.01
  22   1    -0.01   0.01   0.01     0.04  -0.04  -0.07     0.00   0.02   0.01
  23   1    -0.01   0.00   0.01     0.07  -0.01  -0.13    -0.01  -0.02  -0.02
  24   1    -0.01  -0.00   0.01     0.06   0.03  -0.12     0.00  -0.06  -0.06
  25   1    -0.00  -0.00  -0.00     0.00   0.04   0.01     0.04  -0.07  -0.06
  26   1    -0.00   0.00  -0.01    -0.05   0.02   0.11     0.06  -0.05   0.00
  27   1     0.00   0.00  -0.01    -0.07  -0.02   0.13     0.07  -0.01   0.06
  28   1    -0.00   0.01   0.00    -0.05  -0.05   0.09     0.06   0.03   0.06
                      4                      5                      6
                        a                      a                      a 
 Frequencies --    76.3301                83.6234               133.4998
 Red. masses --    14.8540                20.3039                10.6243
 Frc consts  --     0.0000                 0.0000                 0.0000
 IR Inten    --    17.6116                19.5513                30.3301
 Raman Activ --     0.0000                 0.0000                 0.0000
 Depolar     --     0.0000                 0.0000                 0.0000
 Atom AN      X      Y      Z        X      Y      Z        X      Y      Z
   1   7    -0.28  -0.13  -0.04     0.15  -0.04   0.21     0.61  -0.01  -0.13
   2   6    -0.23   0.00  -0.18     0.12  -0.00   0.16     0.09   0.11  -0.13
   3   6     0.00   0.07  -0.02    -0.05   0.22   0.10     0.00   0.00  -0.20
   4   6    -0.03   0.04   0.20    -0.03   0.18  -0.01    -0.03  -0.01  -0.08
   5   6    -0.04   0.04   0.27    -0.06   0.15  -0.15    -0.07  -0.02   0.12
   6   6    -0.03   0.04   0.19    -0.06   0.09  -0.13    -0.09  -0.01   0.21
   7   6    -0.01   0.04   0.10    -0.10   0.04  -0.22    -0.08  -0.01   0.16
   8   6     0.04   0.05  -0.20    -0.12  -0.03  -0.10    -0.03   0.00  -0.10
   9   6     0.08   0.05  -0.35    -0.09  -0.06   0.11    -0.02   0.01  -0.20
  10   6     0.05   0.04  -0.16    -0.05  -0.02   0.18    -0.07   0.00   0.03
  11   6    -0.00   0.04   0.10    -0.03   0.05   0.06    -0.10  -0.01   0.20
  12   6    -0.02   0.04   0.19     0.01   0.09   0.13    -0.09  -0.01   0.21
  13   6    -0.02   0.04   0.22     0.00   0.15   0.10    -0.06  -0.00   0.02
  14  17     0.35  -0.21  -0.13     0.17  -0.51  -0.33    -0.14  -0.04  -0.00
  15   1    -0.10  -0.11   0.06     0.04  -0.00   0.04     0.22   0.00  -0.20
  16   1    -0.14  -0.01  -0.06     0.05  -0.02   0.06     0.29  -0.05   0.05
  17   1     0.03  -0.02  -0.01     0.02  -0.02   0.05     0.07   0.01   0.03
  18   1    -0.06   0.04  -0.10     0.03  -0.03   0.08     0.01   0.12   0.01
  19   1    -0.12  -0.02  -0.07     0.08  -0.00   0.02    -0.02   0.00  -0.07
  20   1     0.03   0.03  -0.00    -0.03   0.09   0.09     0.01  -0.00  -0.07
  21   1     0.03   0.04  -0.03    -0.03   0.09  -0.00     0.00  -0.01  -0.04
  22   1    -0.01   0.01   0.08    -0.02   0.05  -0.07    -0.02  -0.00   0.03
  23   1    -0.01   0.01   0.06    -0.04   0.02  -0.11    -0.03  -0.00   0.07
  24   1     0.02   0.01  -0.09    -0.04  -0.02  -0.04    -0.00   0.00  -0.07
  25   1     0.04   0.01  -0.17    -0.03  -0.03   0.06     0.01   0.01  -0.13
  26   1     0.02   0.01  -0.07    -0.01  -0.01   0.09    -0.02   0.00  -0.00
  27   1    -0.00   0.01   0.05     0.01   0.02   0.06    -0.03  -0.00   0.08
  28   1    -0.01   0.01   0.06     0.01   0.05   0.04    -0.01  -0.00  -0.02
                      7                      8                      9
                        a                      a                      a 
 Frequencies --   161.4430               177.8704               248.3716
 Red. masses --     9.6902                 8.5615                 8.9587
 Frc consts  --     0.0000                 0.0000                 0.0000
 IR Inten    --     0.2672                 5.7702                 6.7853
 Raman Activ --     0.0000                 0.0000                 0.0000
 Depolar     --     0.0000                 0.0000                 0.0000
 Atom AN      X      Y      Z        X      Y      Z        X      Y      Z
   1   7     0.06   0.01  -0.03     0.17  -0.09   0.24     0.10  -0.03  -0.25
   2   6     0.00   0.02  -0.02    -0.39   0.36  -0.13    -0.15  -0.12  -0.04
   3   6     0.00  -0.00  -0.03    -0.03   0.12   0.03     0.03  -0.27   0.06
   4   6    -0.01  -0.01   0.00    -0.01  -0.09   0.11    -0.04   0.08   0.30
   5   6     0.06   0.00  -0.34     0.03  -0.08  -0.01     0.00   0.13   0.27
   6   6     0.03   0.00  -0.20     0.06  -0.06  -0.11     0.03   0.15  -0.03
   7   6    -0.03  -0.00   0.14     0.14  -0.01  -0.14    -0.08   0.06  -0.23
   8   6    -0.08  -0.01   0.38     0.10   0.04   0.04    -0.11  -0.09  -0.03
   9   6     0.00   0.01  -0.06     0.04   0.05   0.18    -0.08  -0.13   0.21
  10   6     0.06   0.02  -0.37     0.01   0.01   0.03     0.10  -0.02  -0.07
  11   6     0.03   0.01  -0.19     0.05  -0.05  -0.10     0.09   0.14  -0.17
  12   6    -0.05  -0.01   0.21     0.04  -0.06  -0.11     0.05   0.12  -0.14
  13   6    -0.10  -0.02   0.46     0.02  -0.09   0.03    -0.03   0.10   0.17
  14  17     0.01  -0.02  -0.02    -0.13  -0.07  -0.06     0.03  -0.01   0.02
  15   1     0.03   0.02  -0.05     0.04  -0.19   0.07     0.09   0.08  -0.26
  16   1     0.05  -0.02   0.02     0.03  -0.01   0.05     0.19  -0.06   0.05
  17   1    -0.02   0.00   0.01     0.16   0.03   0.14    -0.13  -0.02  -0.04
  18   1    -0.00   0.02  -0.00    -0.11   0.34  -0.10    -0.04   0.01  -0.02
  19   1    -0.01   0.00  -0.01    -0.33   0.01  -0.09    -0.09  -0.03   0.02
  20   1     0.00  -0.00  -0.01     0.07   0.05  -0.02    -0.02  -0.14  -0.07
  21   1     0.00  -0.00  -0.00    -0.03   0.03   0.01     0.11  -0.13   0.06
  22   1     0.03   0.00  -0.18     0.01  -0.03   0.00     0.00   0.03   0.11
  23   1    -0.02  -0.00   0.10     0.06  -0.01  -0.07    -0.05   0.04  -0.12
  24   1    -0.05  -0.01   0.23     0.04   0.02   0.02    -0.05  -0.04  -0.01
  25   1     0.00   0.00  -0.02    -0.00   0.02   0.10    -0.03  -0.07   0.14
  26   1     0.03   0.01  -0.18    -0.01   0.01   0.02     0.07  -0.02  -0.01
  27   1    -0.03  -0.01   0.12     0.01  -0.01  -0.05     0.02   0.04  -0.08
  28   1    -0.05  -0.01   0.24     0.00  -0.03   0.01    -0.01   0.03   0.06
                     10                     11                     12
                        a                      a                      a 
 Frequencies --   256.8225               301.9934               353.6070
 Red. masses --     4.7948                 8.4266                 9.1376
 Frc consts  --     0.0000                 0.0000                 0.0000
 IR Inten    --     1.4416                 4.6407                 5.2741
 Raman Activ --     0.0000                 0.0000                 0.0000
 Depolar     --     0.0000                 0.0000                 0.0000
 Atom AN      X      Y      Z        X      Y      Z        X      Y      Z
   1   7    -0.19   0.08  -0.02    -0.15  -0.00   0.18     0.09  -0.02  -0.18
   2   6    -0.03   0.07  -0.03    -0.21   0.12   0.05    -0.05  -0.12   0.01
   3   6    -0.06   0.26  -0.00    -0.02  -0.25   0.05    -0.03   0.08   0.09
   4   6    -0.02  -0.07   0.03     0.01  -0.00  -0.14    -0.04   0.04   0.23
   5   6    -0.05  -0.11   0.05     0.16   0.10  -0.32     0.00   0.01  -0.25
   6   6    -0.01  -0.12  -0.00     0.08   0.16  -0.00    -0.04  -0.07   0.04
   7   6     0.13  -0.03  -0.02    -0.10   0.06   0.21    -0.03  -0.04   0.30
   8   6     0.12   0.10  -0.01    -0.04  -0.09  -0.04     0.06   0.05  -0.19
   9   6     0.04   0.12   0.04     0.08  -0.12  -0.21     0.02   0.05  -0.07
  10   6    -0.06   0.04  -0.01     0.11  -0.03   0.21    -0.10  -0.01   0.28
  11   6    -0.03  -0.11  -0.04     0.08   0.14   0.17    -0.01  -0.07  -0.09
  12   6    -0.00  -0.10  -0.04     0.01   0.08  -0.02     0.11  -0.01  -0.41
  13   6     0.00  -0.08   0.00     0.02   0.01  -0.16    -0.03   0.03   0.31
  14  17     0.13  -0.09   0.03     0.04  -0.06   0.01    -0.01   0.02   0.00
  15   1     0.07   0.32  -0.35     0.01   0.10  -0.11     0.03  -0.04  -0.05
  16   1     0.25  -0.25   0.19     0.10  -0.14   0.13     0.02   0.08  -0.04
  17   1    -0.48  -0.00   0.13    -0.21   0.01   0.14     0.08  -0.02  -0.10
  18   1    -0.01  -0.04   0.01    -0.06   0.11  -0.03    -0.02  -0.04   0.01
  19   1     0.06   0.03  -0.02    -0.16   0.01   0.04    -0.00  -0.03   0.00
  20   1     0.04   0.14   0.08    -0.03  -0.15  -0.10    -0.00   0.06   0.08
  21   1    -0.07   0.14  -0.07     0.02  -0.16   0.12     0.01   0.07  -0.04
  22   1    -0.03  -0.03   0.02     0.09   0.02  -0.14     0.01   0.01  -0.20
  23   1     0.07  -0.02  -0.01    -0.08   0.03   0.12    -0.01  -0.02   0.18
  24   1     0.05   0.04  -0.00    -0.03  -0.04  -0.02     0.04   0.02  -0.12
  25   1     0.01   0.06   0.03     0.04  -0.06  -0.14     0.01   0.03  -0.03
  26   1    -0.05   0.03  -0.00     0.07  -0.03   0.10    -0.07   0.00   0.19
  27   1     0.01  -0.03  -0.02    -0.02   0.04  -0.02     0.08  -0.01  -0.25
  28   1     0.00  -0.02   0.00     0.00  -0.00  -0.06    -0.00   0.02   0.14
                     13                     14                     15
                        a                      a                      a 
 Frequencies --   390.5429               406.4521               443.4386
 Red. masses --     9.0453                 9.6719                 8.8092
 Frc consts  --     0.0000                 0.0000                 0.0000
 IR Inten    --     7.8909                 3.0528                 5.1670
 Raman Activ --     0.0000                 0.0000                 0.0000
 Depolar     --     0.0000                 0.0000                 0.0000
 Atom AN      X      Y      Z        X      Y      Z        X      Y      Z
   1   7    -0.09   0.02   0.24    -0.03   0.04   0.12     0.00  -0.00  -0.04
   2   6     0.24   0.21  -0.11     0.20   0.12  -0.08     0.03  -0.01  -0.02
   3   6     0.35  -0.17  -0.12     0.04   0.12  -0.16     0.14   0.06   0.09
   4   6     0.21   0.12   0.03     0.03  -0.32  -0.07     0.09  -0.10   0.23
   5   6     0.01  -0.01   0.03     0.12  -0.19   0.09     0.12  -0.11  -0.20
   6   6    -0.04  -0.16   0.05     0.06   0.24   0.11    -0.02   0.02   0.29
   7   6    -0.02  -0.15   0.03    -0.14   0.13   0.07    -0.01  -0.01  -0.26
   8   6    -0.02   0.01  -0.10    -0.10  -0.09  -0.18    -0.12  -0.03   0.18
   9   6    -0.21   0.08   0.02    -0.08  -0.13   0.09    -0.13  -0.00  -0.04
  10   6    -0.26   0.02  -0.03     0.11   0.03   0.04    -0.04   0.05  -0.17
  11   6    -0.18  -0.09  -0.13     0.10   0.26  -0.15    -0.14   0.06   0.47
  12   6     0.02   0.06  -0.09    -0.13   0.10  -0.13     0.01   0.09  -0.18
  13   6    -0.01   0.18   0.14    -0.13  -0.31   0.19     0.01  -0.05  -0.01
  14  17     0.01  -0.04  -0.01     0.00  -0.00  -0.01     0.00   0.00   0.01
  15   1    -0.04   0.06   0.11    -0.03   0.03   0.10     0.00   0.00  -0.01
  16   1    -0.05  -0.14   0.03    -0.06  -0.05  -0.01     0.00   0.00  -0.01
  17   1    -0.09   0.03   0.15    -0.02   0.02   0.07    -0.00  -0.00  -0.01
  18   1     0.08   0.07  -0.08     0.06  -0.01   0.00     0.01   0.01  -0.03
  19   1     0.03   0.05  -0.02     0.11   0.04  -0.05    -0.01  -0.01  -0.00
  20   1     0.07  -0.16  -0.20     0.09   0.09   0.01     0.08   0.05   0.06
  21   1     0.17  -0.18   0.11    -0.08   0.08  -0.08     0.03   0.06  -0.02
  22   1    -0.05   0.02  -0.02     0.12  -0.09   0.04     0.08  -0.03  -0.24
  23   1     0.01  -0.05   0.02    -0.11   0.06   0.03     0.01   0.01  -0.25
  24   1     0.04   0.03  -0.05    -0.04  -0.04  -0.11    -0.02  -0.00   0.03
  25   1    -0.07   0.05   0.04    -0.03  -0.07   0.08    -0.02   0.00  -0.12
  26   1    -0.10   0.01   0.01     0.08  -0.02   0.06     0.04   0.01  -0.23
  27   1     0.07  -0.01  -0.03    -0.12   0.07  -0.06     0.03   0.04  -0.24
  28   1    -0.03   0.03   0.07    -0.10  -0.13   0.10    -0.01  -0.03  -0.10
                     16                     17                     18
                        a                      a                      a 
 Frequencies --   455.3985               500.6945               523.6087
 Red. masses --     9.7571                11.1780                 9.5981
 Frc consts  --     0.0000                 0.0000                 0.0000
 IR Inten    --     0.5925                 2.6474                 1.4591
 Raman Activ --     0.0000                 0.0000                 0.0000
 Depolar     --     0.0000                 0.0000                 0.0000
 Atom AN      X      Y      Z        X      Y      Z        X      Y      Z
   1   7     0.02  -0.02  -0.11     0.01   0.01  -0.02     0.00   0.02   0.09
   2   6    -0.02  -0.05  -0.01    -0.01  -0.00  -0.00     0.17   0.10  -0.10
   3   6     0.24   0.08   0.22    -0.03   0.08   0.01    -0.09  -0.02  -0.24
   4   6     0.20  -0.12   0.22    -0.01   0.07   0.01    -0.18   0.01   0.21
   5   6     0.12  -0.16   0.09     0.16   0.14   0.03    -0.14   0.03   0.17
   6   6     0.13   0.02  -0.40     0.21  -0.02   0.03    -0.03   0.04  -0.25
   7   6    -0.09  -0.07   0.01     0.31  -0.08   0.05     0.06   0.11  -0.22
   8   6    -0.14  -0.04   0.10     0.36  -0.33   0.06    -0.01   0.02   0.31
   9   6    -0.20   0.02  -0.27     0.01  -0.19  -0.01     0.23  -0.02  -0.29
  10   6    -0.19   0.07   0.18    -0.13  -0.23  -0.03     0.04  -0.08   0.28
  11   6    -0.08   0.09  -0.10    -0.19   0.14  -0.03     0.02  -0.03   0.12
  12   6    -0.04   0.14   0.13    -0.33   0.16  -0.06    -0.02  -0.08  -0.19
  13   6     0.08  -0.03  -0.18    -0.35   0.22  -0.06    -0.10  -0.04   0.12
  14  17    -0.00   0.01   0.01     0.00  -0.00   0.00     0.00  -0.01  -0.00
  15   1     0.01  -0.01  -0.06     0.00  -0.00  -0.00    -0.02   0.02   0.09
  16   1     0.03   0.03  -0.01     0.00   0.01  -0.00    -0.05  -0.07  -0.02
  17   1     0.01  -0.01  -0.05     0.01   0.00  -0.01    -0.01   0.03   0.07
  18   1     0.00   0.03  -0.07    -0.00  -0.01   0.01     0.04  -0.06   0.05
  19   1    -0.07  -0.03   0.01     0.01   0.00  -0.01     0.16   0.05  -0.06
  20   1     0.12   0.09   0.13     0.00   0.05   0.05    -0.02  -0.05  -0.15
  21   1     0.04   0.10  -0.03    -0.03   0.06  -0.03     0.02  -0.07   0.00
  22   1     0.02  -0.05   0.13     0.02   0.05   0.01    -0.03   0.00   0.03
  23   1    -0.08  -0.01   0.12     0.05  -0.01   0.01     0.02   0.02  -0.02
  24   1    -0.04   0.00   0.15     0.11  -0.09   0.02    -0.06  -0.02   0.22
  25   1    -0.05   0.01  -0.10    -0.01   0.04  -0.00     0.08  -0.00  -0.17
  26   1    -0.05   0.01   0.17     0.02  -0.09   0.00    -0.01  -0.02   0.12
  27   1    -0.02   0.04   0.10    -0.09   0.04  -0.02    -0.00  -0.01  -0.16
  28   1    -0.02  -0.04  -0.09    -0.13   0.04  -0.02    -0.00   0.00  -0.01
                     19                     20                     21
                        a                      a                      a 
 Frequencies --   589.1019               624.5726               696.9812
 Red. masses --    11.1373                 9.9596                 9.9039
 Frc consts  --     0.0000                 0.0000                 0.0000
 IR Inten    --     0.8069                 1.0062                 7.7101
 Raman Activ --     0.0000                 0.0000                 0.0000
 Depolar     --     0.0000                 0.0000                 0.0000
 Atom AN      X      Y      Z        X      Y      Z        X      Y      Z
   1   7    -0.00   0.01   0.02    -0.02  -0.01  -0.02     0.00  -0.01  -0.05
   2   6    -0.03   0.01   0.01    -0.10  -0.07   0.10     0.11  -0.01  -0.01
   3   6    -0.12   0.03  -0.06     0.01  -0.03   0.09     0.35   0.01   0.23
   4   6    -0.06   0.06  -0.10     0.17   0.00  -0.58     0.11   0.06  -0.06
   5   6     0.26   0.27   0.11    -0.03  -0.08   0.14    -0.01   0.06  -0.03
   6   6     0.30  -0.10   0.07    -0.05  -0.00   0.18    -0.10  -0.00   0.05
   7   6    -0.06  -0.44  -0.08     0.06   0.04  -0.18    -0.13   0.10  -0.03
   8   6    -0.16  -0.03   0.03    -0.01  -0.03   0.22    -0.16   0.18   0.02
   9   6    -0.26   0.10  -0.10    -0.01   0.00  -0.19     0.30  -0.01   0.04
  10   6     0.13   0.37   0.09    -0.13  -0.05   0.18     0.17  -0.07   0.07
  11   6     0.19  -0.03   0.04    -0.05   0.03  -0.06     0.06  -0.12  -0.04
  12   6    -0.07  -0.27  -0.09     0.15   0.16  -0.21    -0.30  -0.33  -0.10
  13   6    -0.14   0.02   0.05     0.07   0.00   0.27    -0.35   0.12  -0.07
  14  17     0.00  -0.00  -0.00     0.00   0.00  -0.00     0.00   0.00   0.00
  15   1    -0.00  -0.00   0.00     0.01  -0.00  -0.04    -0.01   0.04   0.01
  16   1    -0.00   0.01   0.00     0.02   0.05   0.02    -0.01  -0.01  -0.02
  17   1     0.01   0.00   0.00    -0.00  -0.02  -0.05    -0.03  -0.02  -0.04
  18   1    -0.01  -0.02   0.03    -0.02   0.06  -0.04     0.05   0.13  -0.16
  19   1     0.02   0.01  -0.01    -0.13  -0.04   0.05    -0.15  -0.04   0.03
  20   1    -0.03   0.03   0.01    -0.03   0.01   0.09     0.11   0.05   0.14
  21   1    -0.06   0.02  -0.03    -0.06   0.03  -0.00     0.06   0.07  -0.01
  22   1     0.08   0.07   0.05    -0.04  -0.02   0.16    -0.05   0.03   0.05
  23   1    -0.03  -0.12  -0.04     0.03   0.02  -0.16     0.01   0.02  -0.06
  24   1     0.05   0.07   0.04     0.00  -0.01   0.03    -0.10   0.00  -0.06
  25   1    -0.06  -0.05  -0.05     0.01   0.03  -0.14     0.10  -0.07  -0.03
  26   1     0.06   0.09   0.03    -0.03  -0.01   0.00     0.02  -0.00  -0.02
  27   1    -0.02  -0.08  -0.02     0.03   0.03   0.05    -0.09  -0.10   0.04
  28   1     0.00   0.04   0.05    -0.02  -0.02   0.24    -0.10   0.04   0.04
                     22                     23                     24
                        a                      a                      a 
 Frequencies --   723.1254               748.0784               802.0638
 Red. masses --    11.1951                 3.6003                10.2337
 Frc consts  --     0.0000                 0.0000                 0.0000
 IR Inten    --     0.3711                 7.7524                 0.9471
 Raman Activ --     0.0000                 0.0000                 0.0000
 Depolar     --     0.0000                 0.0000                 0.0000
 Atom AN      X      Y      Z        X      Y      Z        X      Y      Z
   1   7     0.01   0.00   0.01    -0.00   0.00   0.00     0.01   0.01   0.01
   2   6    -0.01   0.01  -0.01     0.00  -0.03   0.04     0.05  -0.01  -0.00
   3   6    -0.03   0.01  -0.02     0.04  -0.02   0.02     0.02  -0.04  -0.00
   4   6    -0.05  -0.01   0.21     0.05   0.01  -0.19    -0.07   0.01   0.00
   5   6     0.03   0.00  -0.16    -0.02  -0.00   0.14     0.22   0.32   0.06
   6   6    -0.10  -0.02   0.55    -0.03  -0.01   0.12     0.08   0.22   0.02
   7   6     0.04   0.00  -0.19     0.03   0.01  -0.22     0.04   0.41   0.03
   8   6    -0.03  -0.02   0.19     0.01   0.02  -0.13     0.06  -0.07   0.01
   9   6     0.02   0.01  -0.21     0.05   0.00  -0.12    -0.23  -0.01  -0.04
  10   6    -0.03   0.00   0.16     0.05  -0.00  -0.21    -0.32  -0.16  -0.06
  11   6     0.11   0.03  -0.55    -0.03  -0.01   0.13    -0.04  -0.15  -0.02
  12   6    -0.03  -0.00   0.20    -0.02  -0.01   0.05     0.07  -0.43   0.01
  13   6     0.05  -0.00  -0.19    -0.03   0.02   0.07     0.12  -0.18   0.02
  14  17    -0.00  -0.00  -0.00    -0.00   0.00   0.00     0.00   0.00  -0.00
  15   1     0.00  -0.01   0.00    -0.00   0.02   0.00    -0.01   0.05   0.04
  16   1     0.00  -0.00   0.00    -0.00   0.02   0.00    -0.02  -0.02  -0.02
  17   1     0.00   0.00   0.01    -0.01  -0.01  -0.02    -0.03  -0.01  -0.01
  18   1    -0.00  -0.03   0.02     0.01   0.06  -0.04     0.01   0.07  -0.03
  19   1     0.04   0.01  -0.01    -0.08  -0.03   0.03    -0.06  -0.02   0.01
  20   1     0.00  -0.01  -0.03    -0.00   0.02   0.06     0.02   0.03   0.06
  21   1     0.02  -0.01   0.01    -0.03   0.03  -0.02    -0.01   0.03  -0.04
  22   1     0.03   0.00  -0.15     0.04   0.01  -0.23     0.15   0.06   0.02
  23   1     0.02   0.00  -0.08    -0.07  -0.01   0.37    -0.08   0.16  -0.02
  24   1     0.00  -0.00   0.03    -0.09  -0.01   0.41    -0.03  -0.05  -0.02
  25   1    -0.01   0.00   0.04    -0.07  -0.02   0.41    -0.08   0.11  -0.02
  26   1    -0.03  -0.00   0.16    -0.07  -0.01   0.36    -0.13  -0.03  -0.03
  27   1    -0.02  -0.00   0.09     0.04   0.00  -0.22     0.06  -0.14  -0.00
  28   1     0.01  -0.00  -0.03     0.01   0.01  -0.11     0.13   0.02   0.01
                     25                     26                     27
                        a                      a                      a 
 Frequencies --   831.0604               843.8959               861.0512
 Red. masses --     4.1774                 4.8970                 4.6445
 Frc consts  --     0.0000                 0.0000                 0.0000
 IR Inten    --    32.7718                42.4981                 0.3230
 Raman Activ --     0.0000                 0.0000                 0.0000
 Depolar     --     0.0000                 0.0000                 0.0000
 Atom AN      X      Y      Z        X      Y      Z        X      Y      Z
   1   7    -0.05  -0.04  -0.07     0.10   0.01   0.02    -0.01  -0.06  -0.06
   2   6    -0.12   0.11  -0.05     0.20  -0.07  -0.01     0.05   0.04   0.00
   3   6     0.02   0.15   0.12    -0.06  -0.11  -0.06     0.04   0.09   0.12
   4   6     0.06  -0.01   0.05    -0.16   0.01   0.18    -0.03   0.03  -0.01
   5   6     0.12  -0.00  -0.23    -0.12   0.01  -0.26    -0.17  -0.06   0.18
   6   6    -0.00   0.03   0.14    -0.08  -0.01   0.07    -0.07   0.02   0.01
   7   6     0.00   0.07  -0.09     0.07  -0.03  -0.02     0.10   0.08  -0.17
   8   6    -0.01   0.02  -0.09     0.11  -0.11  -0.04     0.12  -0.14  -0.10
   9   6     0.02  -0.00  -0.05    -0.09  -0.01  -0.06    -0.16  -0.03   0.11
  10   6    -0.02  -0.04  -0.07     0.07   0.13  -0.03     0.04   0.14   0.19
  11   6    -0.04  -0.03   0.17     0.02   0.05   0.13     0.06   0.03  -0.02
  12   6    -0.00  -0.09  -0.20     0.07   0.06  -0.14     0.01  -0.08  -0.14
  13   6    -0.02  -0.01  -0.06     0.06  -0.05  -0.06     0.01  -0.03  -0.09
  14  17    -0.01  -0.00  -0.01     0.01   0.00   0.00    -0.00   0.00  -0.00
  15   1     0.03  -0.23  -0.13    -0.04   0.29   0.19    -0.00  -0.00  -0.01
  16   1     0.08   0.00   0.05    -0.12  -0.06  -0.11    -0.00  -0.01  -0.02
  17   1     0.12   0.07   0.11    -0.15  -0.09  -0.12    -0.01  -0.02  -0.03
  18   1    -0.03  -0.26   0.07     0.04   0.29  -0.06     0.02   0.02  -0.03
  19   1     0.25   0.11  -0.02    -0.24  -0.11  -0.02     0.00  -0.00  -0.02
  20   1     0.03  -0.06  -0.14    -0.03   0.03   0.10    -0.02  -0.04  -0.05
  21   1     0.08  -0.08   0.16    -0.01   0.05  -0.11     0.04  -0.05   0.11
  22   1    -0.04  -0.02   0.40    -0.14   0.00   0.35     0.02   0.01  -0.43
  23   1    -0.04   0.02   0.12     0.01  -0.01   0.05    -0.07   0.02   0.37
  24   1    -0.06  -0.01   0.20     0.04  -0.01   0.14     0.02  -0.03   0.14
  25   1    -0.03   0.00   0.16    -0.05  -0.00   0.11    -0.00   0.00  -0.19
  26   1    -0.03  -0.01   0.05     0.05   0.02   0.05     0.13   0.03  -0.35
  27   1    -0.06  -0.04   0.28    -0.06   0.02   0.22    -0.09  -0.03   0.31
  28   1    -0.05  -0.02   0.23    -0.00  -0.01   0.17    -0.01  -0.00   0.13
                     28                     29                     30
                        a                      a                      a 
 Frequencies --   862.9627               875.3343               897.8504
 Red. masses --     8.2359                 3.9042                 6.1390
 Frc consts  --     0.0000                 0.0000                 0.0000
 IR Inten    --     2.4775                 0.6901                 6.0730
 Raman Activ --     0.0000                 0.0000                 0.0000
 Depolar     --     0.0000                 0.0000                 0.0000
 Atom AN      X      Y      Z        X      Y      Z        X      Y      Z
   1   7     0.03   0.13   0.12     0.01  -0.02   0.03     0.03  -0.26  -0.10
   2   6    -0.08  -0.11  -0.01    -0.02   0.00   0.02     0.11   0.13   0.07
   3   6    -0.09  -0.19  -0.24    -0.03   0.04  -0.03    -0.12   0.30   0.15
   4   6     0.03  -0.07   0.11    -0.00  -0.02   0.06    -0.03  -0.03  -0.04
   5   6     0.25   0.10   0.04     0.02   0.01   0.22     0.16   0.10   0.01
   6   6     0.11  -0.04   0.07     0.05  -0.00  -0.07     0.09  -0.01   0.03
   7   6    -0.10  -0.13  -0.15    -0.06  -0.04   0.18    -0.05  -0.14  -0.06
   8   6    -0.17   0.26  -0.11    -0.05   0.05   0.06    -0.10   0.15  -0.02
   9   6     0.23   0.04   0.12     0.07   0.01  -0.11     0.14   0.03   0.06
  10   6    -0.15  -0.27   0.08     0.00  -0.05  -0.19    -0.10  -0.18  -0.00
  11   6    -0.10  -0.04  -0.02    -0.04  -0.01   0.12    -0.06   0.02  -0.04
  12   6     0.06   0.17  -0.07     0.05   0.04  -0.25    -0.02   0.09   0.05
  13   6     0.03   0.08  -0.05     0.02   0.00  -0.11     0.03  -0.15   0.02
  14  17    -0.00  -0.00  -0.00    -0.00   0.00  -0.00     0.00   0.01   0.01
  15   1    -0.00   0.04   0.05     0.00   0.05   0.01    -0.02   0.22   0.05
  16   1    -0.01   0.01   0.02    -0.01   0.05   0.01    -0.07   0.08  -0.07
  17   1    -0.01   0.04   0.05    -0.03  -0.06  -0.08    -0.12  -0.22  -0.31
  18   1    -0.04  -0.00   0.06    -0.01   0.02   0.03     0.01   0.15   0.05
  19   1    -0.03  -0.01   0.04     0.00  -0.02  -0.05    -0.02  -0.08  -0.20
  20   1     0.04   0.08   0.12     0.01  -0.01  -0.05    -0.07  -0.10  -0.24
  21   1    -0.09   0.11  -0.24     0.00  -0.02   0.02     0.02  -0.16   0.31
  22   1     0.12   0.01  -0.02     0.11   0.01  -0.40     0.09  -0.00   0.08
  23   1    -0.04  -0.06   0.25     0.07   0.00  -0.35    -0.01  -0.05   0.08
  24   1    -0.10   0.05   0.11    -0.00   0.01  -0.07    -0.03   0.04  -0.01
  25   1     0.08   0.01  -0.07    -0.02  -0.00   0.17     0.05   0.02  -0.04
  26   1    -0.06  -0.03  -0.25    -0.09  -0.02   0.32    -0.06  -0.03  -0.06
  27   1     0.02   0.02   0.20    -0.09  -0.01   0.48    -0.03   0.05  -0.10
  28   1    -0.03   0.00   0.09    -0.04  -0.01   0.17    -0.01  -0.06  -0.05
                     31                     32                     33
                        a                      a                      a 
 Frequencies --   909.7085               910.5123               924.1931
 Red. masses --     4.7140                 5.7991                 3.2683
 Frc consts  --     0.0000                 0.0000                 0.0000
 IR Inten    --     4.3447                25.1049                 0.0428
 Raman Activ --     0.0000                 0.0000                 0.0000
 Depolar     --     0.0000                 0.0000                 0.0000
 Atom AN      X      Y      Z        X      Y      Z        X      Y      Z
   1   7     0.01  -0.04  -0.18    -0.02   0.04   0.29    -0.00   0.00   0.00
   2   6     0.11   0.11  -0.02    -0.18  -0.18   0.06    -0.00  -0.00   0.00
   3   6    -0.06  -0.05   0.17     0.10   0.12  -0.27     0.00   0.00  -0.00
   4   6    -0.07  -0.00  -0.04     0.13   0.01   0.02     0.00   0.00   0.00
   5   6    -0.00   0.08   0.04     0.01  -0.14  -0.02    -0.00   0.00   0.00
   6   6     0.01  -0.01  -0.02    -0.01   0.01  -0.01     0.02   0.00  -0.08
   7   6    -0.05  -0.08   0.22    -0.01   0.11   0.12     0.02   0.00  -0.09
   8   6     0.03   0.04  -0.22     0.04  -0.04  -0.14    -0.05  -0.01   0.26
   9   6     0.07   0.02  -0.17    -0.04  -0.02  -0.10     0.06   0.01  -0.30
  10   6    -0.07  -0.05   0.23     0.01   0.06   0.16    -0.02  -0.00   0.13
  11   6    -0.01   0.02  -0.06     0.03  -0.02  -0.03    -0.02  -0.00   0.08
  12   6     0.02   0.06   0.04    -0.04  -0.11   0.01     0.00   0.00  -0.03
  13   6     0.03  -0.07   0.03    -0.06   0.11   0.01    -0.00  -0.00   0.02
  14  17     0.00  -0.00  -0.00    -0.00   0.00   0.01     0.00  -0.00   0.00
  15   1    -0.02  -0.07   0.03     0.04   0.14  -0.06     0.00   0.00  -0.00
  16   1    -0.04  -0.21  -0.10     0.07   0.37   0.17     0.00   0.01   0.00
  17   1     0.01   0.08   0.15    -0.03  -0.16  -0.27    -0.00  -0.00  -0.00
  18   1     0.04   0.03  -0.05    -0.06  -0.03   0.08    -0.00  -0.00   0.00
  19   1     0.00   0.05   0.06    -0.01  -0.10  -0.12     0.00  -0.00  -0.00
  20   1    -0.03   0.00   0.09     0.04  -0.02  -0.17     0.00  -0.00  -0.00
  21   1    -0.07  -0.00   0.05     0.13  -0.02  -0.05     0.00  -0.00  -0.00
  22   1     0.02   0.02  -0.07    -0.01  -0.04   0.04     0.00   0.00  -0.00
  23   1     0.08  -0.01  -0.37     0.01   0.05  -0.18    -0.05  -0.01   0.24
  24   1    -0.07   0.00   0.39    -0.06  -0.03   0.25     0.10   0.02  -0.52
  25   1    -0.05   0.00   0.31    -0.04  -0.02   0.16    -0.11  -0.02   0.58
  26   1     0.05   0.00  -0.37     0.07   0.02  -0.23     0.06   0.01  -0.31
  27   1    -0.01   0.03  -0.04     0.04  -0.05  -0.05    -0.01  -0.00   0.04
  28   1     0.02  -0.02  -0.05    -0.01   0.03  -0.05     0.01   0.00  -0.05
                     34                     35                     36
                        a                      a                      a 
 Frequencies --   947.8508               966.0247              1039.2545
 Red. masses --     3.4129                 8.2723                 7.1641
 Frc consts  --     0.0000                 0.0000                 0.0000
 IR Inten    --     7.0610                 8.5220                19.0589
 Raman Activ --     0.0000                 0.0000                 0.0000
 Depolar     --     0.0000                 0.0000                 0.0000
 Atom AN      X      Y      Z        X      Y      Z        X      Y      Z
   1   7     0.03  -0.01  -0.03     0.06  -0.13  -0.17    -0.24  -0.31  -0.06
   2   6    -0.01   0.02  -0.00    -0.02   0.16   0.07     0.22   0.37   0.27
   3   6    -0.06  -0.01   0.00    -0.25  -0.06  -0.00     0.07  -0.21  -0.17
   4   6     0.04  -0.02   0.02     0.19  -0.08   0.03    -0.10  -0.06   0.07
   5   6     0.01  -0.08   0.08     0.11  -0.35  -0.01    -0.04   0.07  -0.02
   6   6     0.03   0.00  -0.05     0.08   0.00   0.03    -0.02  -0.01  -0.01
   7   6    -0.00   0.04   0.02     0.00   0.20   0.00    -0.00  -0.00  -0.00
   8   6    -0.01   0.00   0.01    -0.05   0.01  -0.01     0.02  -0.01   0.00
   9   6    -0.01  -0.01  -0.03    -0.08  -0.04  -0.01    -0.00  -0.00  -0.00
  10   6     0.00   0.01   0.01     0.03   0.06   0.01     0.00   0.01   0.00
  11   6    -0.00  -0.02   0.05     0.04  -0.11  -0.01     0.01  -0.01   0.01
  12   6    -0.03  -0.03   0.21     0.04  -0.09  -0.04     0.03   0.04   0.00
  13   6     0.05   0.11  -0.36    -0.12   0.47   0.08     0.01   0.05  -0.02
  14  17    -0.00   0.00  -0.01     0.00  -0.00   0.00    -0.00   0.01   0.00
  15   1    -0.01   0.03   0.04    -0.04   0.09   0.12     0.03  -0.20  -0.28
  16   1    -0.03  -0.03  -0.04    -0.11  -0.18  -0.15     0.10   0.23   0.14
  17   1    -0.03  -0.01  -0.01    -0.07  -0.03  -0.01     0.07  -0.14  -0.20
  18   1    -0.01   0.01   0.05    -0.04   0.05   0.19     0.10   0.06  -0.09
  19   1     0.01   0.00  -0.02     0.04   0.03  -0.04     0.00   0.07   0.06
  20   1     0.01   0.00  -0.01    -0.02   0.01   0.00     0.20   0.09   0.07
  21   1    -0.04  -0.00   0.00    -0.20  -0.01   0.03    -0.32   0.04  -0.07
  22   1     0.03  -0.03  -0.06     0.10  -0.13   0.03    -0.05   0.04   0.02
  23   1    -0.01   0.02  -0.02    -0.04   0.07  -0.00    -0.00  -0.00   0.01
  24   1    -0.01  -0.00  -0.03    -0.06  -0.03  -0.01     0.01   0.00   0.01
  25   1    -0.01  -0.01   0.05    -0.01  -0.05  -0.02    -0.00   0.01   0.00
  26   1     0.01   0.00  -0.03     0.02   0.01   0.01    -0.00   0.01  -0.00
  27   1     0.12  -0.01  -0.39     0.22  -0.12   0.11     0.03   0.00   0.01
  28   1    -0.13  -0.00   0.76     0.01   0.15  -0.16     0.05   0.05   0.04
                     37                     38                     39
                        a                      a                      a 
 Frequencies --  1061.4590              1078.4819              1082.2735
 Red. masses --     5.8147                 6.9913                 6.4884
 Frc consts  --     0.0000                 0.0000                 0.0000
 IR Inten    --     9.5776                 6.7228                 0.1966
 Raman Activ --     0.0000                 0.0000                 0.0000
 Depolar     --     0.0000                 0.0000                 0.0000
 Atom AN      X      Y      Z        X      Y      Z        X      Y      Z
   1   7    -0.13   0.15   0.13     0.10   0.07   0.20     0.01  -0.01  -0.00
   2   6     0.34  -0.20  -0.23    -0.06   0.03  -0.49    -0.03   0.02   0.01
   3   6    -0.24   0.11   0.08    -0.03  -0.26   0.36     0.03  -0.02   0.01
   4   6    -0.09  -0.05   0.05    -0.06  -0.07  -0.07    -0.01   0.01  -0.01
   5   6     0.05  -0.15  -0.00    -0.05   0.10  -0.00    -0.02   0.04  -0.00
   6   6     0.08   0.02   0.01    -0.03  -0.01   0.00     0.01  -0.09   0.00
   7   6     0.01   0.02   0.00    -0.01  -0.00  -0.00     0.17   0.14   0.04
   8   6    -0.04   0.06  -0.00     0.03  -0.02   0.00    -0.09   0.42  -0.00
   9   6    -0.04  -0.02  -0.01     0.00  -0.00   0.00    -0.36  -0.22  -0.08
  10   6    -0.01  -0.04  -0.00     0.01   0.03   0.00     0.02  -0.23  -0.00
  11   6     0.01  -0.02   0.00     0.01  -0.03  -0.00     0.08   0.04   0.02
  12   6     0.04   0.01   0.00     0.03   0.06   0.01    -0.02  -0.00  -0.00
  13   6    -0.04   0.15  -0.01     0.00   0.05   0.02    -0.01  -0.03  -0.00
  14  17    -0.00   0.00  -0.00    -0.00   0.00   0.00    -0.00   0.00   0.00
  15   1     0.03  -0.14  -0.16     0.02   0.16   0.05    -0.00   0.01   0.01
  16   1     0.12   0.15   0.16    -0.01   0.15   0.04    -0.01  -0.00  -0.01
  17   1     0.11   0.07   0.04    -0.04  -0.08  -0.12    -0.01  -0.01  -0.01
  18   1     0.16   0.09  -0.42    -0.02  -0.16  -0.04    -0.01  -0.01   0.03
  19   1    -0.16  -0.09   0.01     0.24   0.00  -0.30     0.02   0.01  -0.01
  20   1    -0.29  -0.08   0.01     0.28   0.06   0.10     0.04   0.01   0.00
  21   1    -0.09  -0.08   0.15    -0.32  -0.00   0.09     0.01   0.01  -0.01
  22   1     0.17  -0.12   0.04    -0.05   0.04  -0.02    -0.04   0.03  -0.01
  23   1     0.02  -0.00   0.00    -0.01   0.00   0.00     0.41  -0.11   0.07
  24   1     0.00   0.03   0.00     0.01  -0.01   0.00     0.10   0.22   0.03
  25   1    -0.01  -0.02   0.00     0.00   0.00  -0.00    -0.09  -0.22  -0.02
  26   1     0.02  -0.02   0.01    -0.01   0.01  -0.00     0.37  -0.23   0.06
  27   1     0.14  -0.05   0.03     0.04   0.00   0.00    -0.04   0.02  -0.01
  28   1    -0.01   0.05   0.02     0.05   0.05  -0.02     0.01   0.00  -0.00
                     40                     41                     42
                        a                      a                      a 
 Frequencies --  1146.1760              1172.3284              1178.1502
 Red. masses --     5.5123                 3.6324                 1.8924
 Frc consts  --     0.0000                 0.0000                 0.0000
 IR Inten    --     0.3520                 1.6002                 1.4296
 Raman Activ --     0.0000                 0.0000                 0.0000
 Depolar     --     0.0000                 0.0000                 0.0000
 Atom AN      X      Y      Z        X      Y      Z        X      Y      Z
   1   7    -0.01   0.01  -0.00    -0.02   0.03   0.00     0.01   0.01  -0.01
   2   6     0.02  -0.02   0.00     0.05  -0.06  -0.03    -0.01  -0.03   0.04
   3   6    -0.05   0.02  -0.01    -0.14   0.01  -0.04     0.05   0.03  -0.01
   4   6     0.05  -0.01   0.02     0.22   0.04   0.07    -0.05  -0.07  -0.01
   5   6     0.14   0.19   0.03     0.03  -0.11   0.00    -0.06   0.09  -0.01
   6   6    -0.02  -0.24  -0.01     0.22  -0.10   0.04     0.02   0.08   0.01
   7   6     0.16   0.25   0.04     0.00   0.09   0.00    -0.01   0.01  -0.00
   8   6    -0.06  -0.05  -0.01    -0.01   0.10   0.00     0.08   0.06   0.02
   9   6    -0.02  -0.09  -0.01    -0.02  -0.09  -0.01    -0.02  -0.05  -0.00
  10   6     0.06   0.26   0.02    -0.09  -0.04  -0.02     0.04  -0.05   0.01
  11   6    -0.13  -0.22  -0.03     0.13   0.02   0.02    -0.02  -0.14  -0.01
  12   6     0.03   0.18   0.01    -0.10  -0.07  -0.02     0.03   0.08   0.01
  13   6    -0.00  -0.10  -0.01     0.11   0.03   0.02    -0.05  -0.02  -0.01
  14  17     0.00   0.00  -0.00    -0.00  -0.00  -0.00     0.00   0.00   0.00
  15   1    -0.00  -0.02  -0.01    -0.00  -0.02  -0.01    -0.00  -0.00   0.01
  16   1     0.01   0.01   0.01     0.01  -0.01   0.01    -0.00  -0.01  -0.01
  17   1     0.00   0.01   0.01     0.02   0.02   0.02    -0.00   0.01   0.02
  18   1     0.01   0.02  -0.01     0.01   0.03  -0.01    -0.00  -0.00  -0.00
  19   1    -0.02  -0.01  -0.01    -0.04  -0.03  -0.00    -0.01  -0.01   0.00
  20   1    -0.04  -0.01  -0.01    -0.07  -0.02  -0.02     0.05   0.00  -0.04
  21   1    -0.04  -0.01   0.01    -0.16  -0.03   0.06    -0.01  -0.00   0.02
  22   1    -0.05   0.09  -0.01    -0.42   0.16  -0.07    -0.05   0.04  -0.01
  23   1     0.22  -0.01   0.04    -0.19   0.12  -0.03    -0.38   0.17  -0.07
  24   1    -0.33  -0.25  -0.07     0.04   0.06   0.01     0.48   0.37   0.10
  25   1     0.04  -0.43  -0.01     0.01  -0.19  -0.00     0.04  -0.39  -0.01
  26   1    -0.18   0.16  -0.03    -0.23   0.08  -0.04    -0.14   0.05  -0.02
  27   1     0.06   0.02   0.01    -0.50   0.18  -0.09     0.26  -0.09   0.05
  28   1    -0.23  -0.21  -0.04     0.21   0.14   0.04    -0.26  -0.19  -0.05
                     43                     44                     45
                        a                      a                      a 
 Frequencies --  1180.8928              1196.6382              1225.0666
 Red. masses --     2.2644                 4.5157                 5.3677
 Frc consts  --     0.0000                 0.0000                 0.0000
 IR Inten    --     0.5061                 4.8772                 1.8044
 Raman Activ --     0.0000                 0.0000                 0.0000
 Depolar     --     0.0000                 0.0000                 0.0000
 Atom AN      X      Y      Z        X      Y      Z        X      Y      Z
   1   7    -0.01   0.03  -0.01     0.00  -0.17   0.10    -0.04   0.00  -0.02
   2   6     0.03  -0.07  -0.00     0.02   0.34  -0.21     0.03   0.00   0.00
   3   6    -0.09   0.03  -0.04    -0.15  -0.17   0.12     0.00  -0.02   0.01
   4   6     0.18  -0.01   0.06     0.12   0.12   0.00     0.04  -0.01   0.01
   5   6     0.06   0.07   0.01     0.05  -0.08   0.02    -0.11   0.06  -0.02
   6   6     0.10  -0.12   0.01     0.03  -0.02   0.01    -0.01  -0.01  -0.00
   7   6    -0.06   0.05  -0.01     0.02   0.02   0.00    -0.10   0.06  -0.02
   8   6    -0.01   0.04  -0.00    -0.02   0.02  -0.00     0.03   0.00   0.01
   9   6    -0.01   0.07   0.00     0.00   0.02   0.00    -0.15  -0.09  -0.03
  10   6     0.02  -0.03   0.00     0.01  -0.02   0.00    -0.00  -0.10  -0.00
  11   6    -0.00   0.01   0.00    -0.04   0.02  -0.01     0.47  -0.23   0.08
  12   6     0.03  -0.00   0.00     0.01  -0.05   0.00     0.07   0.08   0.02
  13   6    -0.03  -0.10  -0.01     0.00  -0.07  -0.01    -0.03   0.16  -0.00
  14  17     0.00   0.00  -0.00     0.00   0.00   0.00     0.00   0.00   0.00
  15   1    -0.00  -0.02  -0.00     0.02   0.07  -0.05    -0.00  -0.02  -0.02
  16   1     0.01  -0.00   0.01    -0.01   0.14   0.03     0.01   0.02   0.01
  17   1     0.01   0.03   0.03    -0.02  -0.14  -0.16     0.02   0.02   0.02
  18   1     0.00   0.03  -0.00     0.01  -0.08  -0.00    -0.01   0.06   0.08
  19   1    -0.04  -0.04  -0.01     0.12   0.18   0.07     0.01  -0.04  -0.09
  20   1    -0.03  -0.02  -0.05    -0.46  -0.07   0.28    -0.02  -0.00   0.02
  21   1    -0.17  -0.03   0.06     0.38   0.12  -0.25     0.00   0.02  -0.02
  22   1    -0.45   0.22  -0.08    -0.05   0.01  -0.02     0.15  -0.06   0.03
  23   1    -0.19   0.09  -0.03    -0.10   0.05  -0.01     0.12  -0.05   0.02
  24   1    -0.12  -0.08  -0.03     0.02   0.03   0.01     0.05   0.04   0.01
  25   1    -0.04   0.38   0.00     0.00  -0.03  -0.00    -0.09   0.36  -0.01
  26   1     0.38  -0.17   0.07     0.03  -0.02   0.00    -0.27   0.08  -0.05
  27   1     0.21  -0.09   0.04    -0.03  -0.00  -0.01    -0.25   0.15  -0.04
  28   1    -0.27  -0.24  -0.05    -0.11  -0.10  -0.02    -0.40  -0.25  -0.08
                     46                     47                     48
                        a                      a                      a 
 Frequencies --  1233.6029              1251.1764              1254.3503
 Red. masses --     3.4140                 6.1458                 6.0490
 Frc consts  --     0.0000                 0.0000                 0.0000
 IR Inten    --    33.4489                 1.1204                 1.0030
 Raman Activ --     0.0000                 0.0000                 0.0000
 Depolar     --     0.0000                 0.0000                 0.0000
 Atom AN      X      Y      Z        X      Y      Z        X      Y      Z
   1   7    -0.24   0.10  -0.07     0.02  -0.01   0.00     0.04  -0.01   0.01
   2   6     0.20  -0.04  -0.01    -0.01  -0.01  -0.04    -0.04  -0.02  -0.02
   3   6    -0.08  -0.12   0.10    -0.05  -0.01  -0.06    -0.05  -0.00  -0.09
   4   6     0.10   0.08  -0.01     0.27   0.13   0.09     0.25   0.21   0.09
   5   6     0.05  -0.00   0.01     0.06  -0.06   0.01     0.18   0.07   0.03
   6   6    -0.11   0.03  -0.02    -0.17   0.36  -0.02    -0.37  -0.08  -0.07
   7   6     0.01  -0.02   0.00    -0.01  -0.12  -0.01     0.00   0.03   0.00
   8   6    -0.00  -0.04  -0.00    -0.07  -0.14  -0.02     0.01  -0.10  -0.00
   9   6     0.03   0.04   0.01     0.03   0.00   0.01     0.02   0.11   0.01
  10   6     0.03   0.01   0.01     0.03  -0.08   0.00     0.13   0.04   0.03
  11   6    -0.13   0.04  -0.02    -0.03   0.29   0.01    -0.24  -0.15  -0.05
  12   6     0.00  -0.06   0.00     0.03  -0.22  -0.00     0.06  -0.06   0.01
  13   6     0.02  -0.05   0.00    -0.02  -0.08  -0.01     0.06  -0.02   0.01
  14  17    -0.00   0.00  -0.00     0.00   0.00   0.00     0.00  -0.00   0.00
  15   1    -0.02  -0.16  -0.13    -0.00   0.02   0.01     0.00   0.03   0.03
  16   1     0.09  -0.00   0.09    -0.00   0.02  -0.00    -0.01   0.01  -0.01
  17   1     0.13   0.12   0.08    -0.01  -0.01   0.00    -0.02  -0.01  -0.00
  18   1    -0.07   0.35   0.47    -0.01  -0.02  -0.00     0.00  -0.06  -0.07
  19   1     0.03  -0.24  -0.49    -0.02   0.02   0.05    -0.02   0.03   0.09
  20   1    -0.00   0.00   0.08    -0.10  -0.02   0.01    -0.06  -0.00   0.01
  21   1     0.12   0.03  -0.08    -0.24  -0.02   0.06    -0.31  -0.04   0.09
  22   1     0.03  -0.01   0.00    -0.20   0.09  -0.03     0.32  -0.09   0.06
  23   1    -0.00  -0.00  -0.00     0.41  -0.21   0.07    -0.10   0.05  -0.02
  24   1     0.06   0.03   0.01     0.14   0.08   0.03     0.16   0.10   0.04
  25   1     0.02  -0.06   0.00     0.01  -0.03   0.00     0.01  -0.01   0.00
  26   1     0.07  -0.02   0.02    -0.29   0.11  -0.05     0.26  -0.09   0.05
  27   1    -0.02  -0.01  -0.00     0.15  -0.12   0.03    -0.36   0.14  -0.06
  28   1     0.03  -0.00   0.01    -0.11  -0.11  -0.02    -0.07  -0.08  -0.01
                     49                     50                     51
                        a                      a                      a 
 Frequencies --  1324.4790              1331.0119              1345.9186
 Red. masses --     3.9363                 6.5178                 5.0042
 Frc consts  --     0.0000                 0.0000                 0.0000
 IR Inten    --    18.4994                 5.1484                 4.1601
 Raman Activ --     0.0000                 0.0000                 0.0000
 Depolar     --     0.0000                 0.0000                 0.0000
 Atom AN      X      Y      Z        X      Y      Z        X      Y      Z
   1   7     0.09   0.16   0.00     0.03   0.02  -0.03     0.02   0.02  -0.03
   2   6    -0.10   0.10   0.38    -0.09   0.02   0.07    -0.14   0.05   0.08
   3   6    -0.17  -0.09   0.01     0.25  -0.04  -0.09     0.38   0.05  -0.14
   4   6     0.04   0.06  -0.00    -0.03   0.16   0.04    -0.08  -0.13   0.04
   5   6     0.08  -0.05   0.01    -0.30  -0.05  -0.06     0.10   0.06   0.02
   6   6    -0.04   0.01  -0.01     0.21   0.12   0.04    -0.04  -0.14  -0.02
   7   6     0.02   0.01   0.00     0.09  -0.18   0.01    -0.08   0.12  -0.01
   8   6    -0.04  -0.03  -0.01     0.11   0.14   0.02    -0.03  -0.03  -0.01
   9   6    -0.01   0.02   0.00     0.02   0.08   0.01    -0.01  -0.11  -0.00
  10   6     0.04  -0.02   0.01    -0.24  -0.02  -0.05     0.11   0.04   0.02
  11   6    -0.03   0.02  -0.01     0.06   0.15   0.02     0.01  -0.09  -0.00
  12   6     0.05  -0.04   0.01    -0.02  -0.18  -0.01    -0.07   0.17  -0.01
  13   6    -0.02   0.00  -0.00     0.16   0.05   0.03    -0.08  -0.08  -0.02
  14  17     0.00   0.00  -0.00     0.00   0.00  -0.00     0.00  -0.00  -0.00
  15   1     0.01  -0.13   0.03    -0.01  -0.02   0.04    -0.01   0.03   0.03
  16   1    -0.03  -0.20  -0.06    -0.00   0.02  -0.01    -0.00  -0.03  -0.01
  17   1    -0.08  -0.02  -0.10    -0.05   0.01   0.03    -0.00   0.02   0.02
  18   1     0.12  -0.17  -0.53    -0.01  -0.03  -0.02    -0.03  -0.04   0.00
  19   1     0.12  -0.18  -0.47     0.06  -0.06  -0.19     0.09  -0.07  -0.25
  20   1     0.08   0.00  -0.04    -0.21  -0.03   0.15    -0.51  -0.07   0.28
  21   1     0.16   0.06  -0.14    -0.26  -0.03   0.08    -0.21  -0.07   0.13
  22   1    -0.05   0.02  -0.01     0.16  -0.12   0.03    -0.05   0.05   0.00
  23   1     0.02  -0.00   0.01    -0.14   0.02  -0.03     0.05   0.00   0.01
  24   1     0.02   0.02   0.01    -0.24  -0.17  -0.05     0.11   0.09   0.02
  25   1    -0.00   0.02  -0.00     0.04  -0.26  -0.00    -0.02   0.16   0.00
  26   1    -0.02   0.01  -0.01     0.10  -0.08   0.02    -0.06   0.05  -0.01
  27   1    -0.04   0.02  -0.01    -0.05  -0.03  -0.01     0.12  -0.01   0.03
  28   1    -0.04  -0.02  -0.01    -0.20  -0.18  -0.04     0.20   0.15   0.05
                     52                     53                     54
                        a                      a                      a 
 Frequencies --  1374.3515              1379.0474              1405.0761
 Red. masses --    10.0431                 2.7705                 1.8814
 Frc consts  --     0.0000                 0.0000                 0.0000
 IR Inten    --    14.5568               118.5257                99.6327
 Raman Activ --     0.0000                 0.0000                 0.0000
 Depolar     --     0.0000                 0.0000                 0.0000
 Atom AN      X      Y      Z        X      Y      Z        X      Y      Z
   1   7     0.01  -0.06  -0.03     0.07  -0.24  -0.15     0.16   0.15   0.02
   2   6    -0.02  -0.01   0.00    -0.01   0.01   0.10     0.07  -0.01  -0.07
   3   6     0.12   0.00  -0.00    -0.09  -0.02  -0.01    -0.00   0.00   0.01
   4   6    -0.24   0.18  -0.04     0.05  -0.03   0.00     0.00   0.04   0.00
   5   6     0.15  -0.18   0.02    -0.00   0.02   0.00     0.01  -0.00   0.00
   6   6    -0.07   0.04  -0.01     0.01  -0.02   0.00    -0.02  -0.07  -0.01
   7   6     0.40  -0.09   0.07    -0.09   0.04  -0.02    -0.00   0.02  -0.00
   8   6    -0.22   0.04  -0.04     0.03  -0.02   0.01     0.01   0.02   0.00
   9   6    -0.20   0.21  -0.03     0.05  -0.05   0.01    -0.01  -0.04  -0.00
  10   6     0.26  -0.26   0.04    -0.05   0.06  -0.01     0.02  -0.00   0.00
  11   6    -0.02   0.04  -0.00    -0.02   0.00  -0.00     0.02   0.04   0.00
  12   6     0.32   0.02   0.06    -0.06  -0.01  -0.01    -0.01   0.02  -0.00
  13   6    -0.29  -0.05  -0.06     0.06   0.02   0.01    -0.03  -0.04   0.00
  14  17     0.00  -0.00  -0.00     0.00  -0.01  -0.00     0.01  -0.00   0.00
  15   1     0.00   0.07  -0.00    -0.00   0.21   0.03    -0.01  -0.61   0.04
  16   1    -0.03   0.13  -0.02    -0.12   0.58  -0.05    -0.11   0.18  -0.08
  17   1    -0.02   0.05   0.14    -0.17   0.20   0.57    -0.67  -0.14  -0.03
  18   1    -0.01   0.02   0.02     0.04   0.02  -0.14    -0.02   0.03   0.12
  19   1     0.02  -0.01  -0.02     0.07  -0.04  -0.12    -0.05   0.01   0.05
  20   1     0.04   0.02   0.03     0.04   0.02   0.01    -0.00   0.01   0.02
  21   1    -0.04  -0.01   0.03     0.08  -0.01  -0.03    -0.01  -0.02   0.03
  22   1    -0.09   0.00  -0.02    -0.01   0.01  -0.01     0.03  -0.01   0.01
  23   1    -0.19   0.11  -0.03     0.05  -0.03   0.00    -0.02   0.01  -0.00
  24   1    -0.15  -0.05  -0.03     0.05   0.02   0.00     0.01   0.01   0.00
  25   1    -0.06   0.04  -0.01     0.01   0.00   0.00    -0.01   0.03  -0.00
  26   1    -0.17   0.03  -0.03     0.04  -0.00   0.01    -0.04   0.02  -0.01
  27   1    -0.05   0.07  -0.00    -0.01  -0.01   0.00     0.03  -0.01   0.00
  28   1    -0.03   0.03  -0.00     0.02   0.00   0.00     0.03   0.01  -0.01
                     55                     56                     57
                        a                      a                      a 
 Frequencies --  1411.6822              1429.1528              1440.4009
 Red. masses --    10.2028                 9.6957                 2.1262
 Frc consts  --     0.0000                 0.0000                 0.0000
 IR Inten    --     4.5215                 3.7520                80.3849
 Raman Activ --     0.0000                 0.0000                 0.0000
 Depolar     --     0.0000                 0.0000                 0.0000
 Atom AN      X      Y      Z        X      Y      Z        X      Y      Z
   1   7     0.02   0.02   0.01    -0.01  -0.01  -0.04    -0.06  -0.03  -0.25
   2   6     0.00   0.01  -0.01     0.00   0.00   0.00    -0.02   0.02  -0.01
   3   6     0.05   0.03   0.00    -0.07  -0.06  -0.00    -0.02  -0.00   0.00
   4   6    -0.05  -0.30  -0.02     0.13   0.23   0.03    -0.02  -0.03  -0.00
   5   6    -0.08   0.03  -0.01    -0.28   0.01  -0.05     0.05  -0.01   0.01
   6   6     0.17   0.48   0.05     0.29   0.01   0.06    -0.05   0.01  -0.01
   7   6     0.10  -0.07   0.02     0.21   0.02   0.04    -0.03  -0.00  -0.01
   8   6    -0.16  -0.18  -0.04    -0.23   0.07  -0.04     0.03  -0.02   0.00
   9   6    -0.01   0.28   0.01    -0.05  -0.20  -0.02     0.00   0.05   0.00
  10   6     0.09  -0.05   0.02     0.34  -0.02   0.06    -0.05  -0.01  -0.01
  11   6    -0.17  -0.47  -0.05    -0.27  -0.08  -0.05     0.05  -0.00   0.01
  12   6    -0.05   0.06  -0.01    -0.33   0.04  -0.06     0.05   0.00   0.01
  13   6     0.13   0.18   0.03     0.23  -0.13   0.04    -0.05   0.02  -0.00
  14  17     0.00  -0.00   0.00    -0.00   0.00  -0.00     0.00  -0.00  -0.00
  15   1     0.00  -0.08  -0.00    -0.04   0.01   0.10    -0.22  -0.05   0.62
  16   1    -0.02   0.02  -0.02     0.09   0.01   0.07     0.54   0.05   0.39
  17   1    -0.09  -0.02  -0.01     0.01   0.00  -0.00    -0.08  -0.01  -0.03
  18   1    -0.00   0.00   0.02     0.01  -0.00  -0.03     0.01   0.04  -0.06
  19   1     0.00  -0.00  -0.01     0.00   0.00   0.01     0.07   0.05   0.02
  20   1    -0.09  -0.02   0.02     0.07   0.01  -0.02    -0.00   0.00   0.01
  21   1     0.05  -0.00   0.00    -0.06   0.01  -0.02     0.04  -0.00  -0.01
  22   1    -0.18   0.08  -0.03     0.16  -0.10   0.03    -0.03   0.02  -0.01
  23   1     0.15  -0.07   0.03    -0.04   0.06  -0.01     0.01  -0.01   0.00
  24   1     0.02  -0.00   0.00    -0.00   0.07   0.00    -0.00  -0.01  -0.00
  25   1     0.01  -0.06   0.00    -0.05   0.27  -0.00     0.01  -0.04  -0.00
  26   1     0.16  -0.08   0.03    -0.15   0.11  -0.03     0.02  -0.02   0.00
  27   1    -0.16   0.08  -0.03     0.09  -0.07   0.01    -0.02   0.02  -0.00
  28   1    -0.02   0.01  -0.00     0.05  -0.05   0.01     0.00   0.02  -0.00
                     58                     59                     60
                        a                      a                      a 
 Frequencies --  1456.2964              1481.8915              1489.5649
 Red. masses --     9.8852                 1.9454                 2.0017
 Frc consts  --     0.0000                 0.0000                 0.0000
 IR Inten    --     2.0172                13.5008                 6.9204
 Raman Activ --     0.0000                 0.0000                 0.0000
 Depolar     --     0.0000                 0.0000                 0.0000
 Atom AN      X      Y      Z        X      Y      Z        X      Y      Z
   1   7     0.00  -0.01  -0.00     0.00   0.01  -0.00    -0.00   0.01   0.04
   2   6     0.01   0.02   0.02     0.08   0.12  -0.03    -0.15  -0.19   0.02
   3   6    -0.13   0.00  -0.01    -0.14  -0.00  -0.21    -0.09  -0.00  -0.13
   4   6     0.37  -0.13   0.07     0.03   0.01  -0.01     0.04  -0.00   0.00
   5   6    -0.06   0.18  -0.01    -0.01  -0.01   0.00    -0.00   0.01  -0.00
   6   6    -0.33   0.19  -0.06     0.00   0.01   0.00    -0.03   0.02  -0.00
   7   6     0.12  -0.23   0.02     0.00  -0.00   0.00     0.01  -0.02   0.00
   8   6     0.23   0.19   0.05    -0.00  -0.00  -0.00     0.02   0.02   0.00
   9   6    -0.20   0.08  -0.03    -0.00   0.01   0.00    -0.01  -0.01  -0.00
  10   6     0.07  -0.14   0.01    -0.00  -0.00  -0.00     0.01  -0.01   0.00
  11   6     0.26  -0.17   0.04     0.00   0.00   0.00     0.00  -0.00   0.00
  12   6    -0.24   0.18  -0.04    -0.00  -0.01  -0.00    -0.03  -0.00  -0.01
  13   6    -0.07  -0.13  -0.02     0.01   0.01   0.00     0.02   0.00   0.00
  14  17    -0.00  -0.00  -0.00    -0.00   0.00   0.00    -0.00   0.00   0.00
  15   1     0.00   0.01  -0.01    -0.00   0.03   0.02     0.02  -0.03  -0.07
  16   1    -0.01   0.02  -0.01     0.03  -0.01   0.02    -0.05  -0.05  -0.03
  17   1     0.00   0.01   0.03     0.03   0.01  -0.01     0.01  -0.04  -0.06
  18   1     0.01  -0.04  -0.03     0.00  -0.34   0.09    -0.01   0.54  -0.18
  19   1    -0.03  -0.02  -0.02    -0.32  -0.12  -0.06     0.53   0.21   0.11
  20   1    -0.05  -0.02  -0.03     0.17   0.34   0.45     0.09   0.20   0.27
  21   1     0.01   0.01  -0.03     0.25  -0.36   0.36     0.13  -0.22   0.21
  22   1     0.06   0.02   0.01    -0.01   0.00  -0.00    -0.01   0.01   0.00
  23   1    -0.17   0.02  -0.03     0.00  -0.00  -0.00    -0.01   0.00  -0.00
  24   1    -0.20  -0.15  -0.04    -0.00  -0.00  -0.00    -0.01  -0.01  -0.00
  25   1    -0.05  -0.08  -0.01     0.00  -0.00  -0.00    -0.00   0.00  -0.00
  26   1    -0.06  -0.01  -0.01     0.00  -0.00  -0.00    -0.01   0.00  -0.00
  27   1     0.15  -0.04   0.03    -0.00  -0.00  -0.00     0.00  -0.01  -0.00
  28   1     0.18   0.12   0.04    -0.03  -0.02  -0.00    -0.01  -0.01  -0.00
                     61                     62                     63
                        a                      a                      a 
 Frequencies --  1510.5574              1575.7238              1612.6676
 Red. masses --    10.7644                11.6891                11.4873
 Frc consts  --     0.0000                 0.0000                 0.0000
 IR Inten    --     2.1288                 0.8130                 0.1714
 Raman Activ --     0.0000                 0.0000                 0.0000
 Depolar     --     0.0000                 0.0000                 0.0000
 Atom AN      X      Y      Z        X      Y      Z        X      Y      Z
   1   7    -0.00  -0.00   0.00    -0.00  -0.00   0.00     0.00  -0.00  -0.00
   2   6    -0.01  -0.01   0.00     0.00   0.00   0.00    -0.00  -0.00   0.01
   3   6    -0.04  -0.04  -0.01    -0.01   0.02  -0.00    -0.02   0.01  -0.01
   4   6     0.10   0.39   0.03     0.06  -0.32   0.00     0.14  -0.10   0.02
   5   6    -0.11  -0.12  -0.02    -0.11   0.22  -0.01    -0.22   0.12  -0.04
   6   6     0.22  -0.06   0.04    -0.11  -0.36  -0.03     0.28  -0.12   0.05
   7   6    -0.09   0.17  -0.01     0.20   0.11   0.04    -0.41   0.09  -0.08
   8   6    -0.16  -0.28  -0.04    -0.28  -0.25  -0.06     0.33   0.03   0.06
   9   6     0.06   0.36   0.02    -0.02   0.37   0.01    -0.20   0.25  -0.03
  10   6    -0.18  -0.09  -0.04     0.06  -0.22   0.00     0.34  -0.23   0.06
  11   6     0.30  -0.18   0.05     0.15   0.35   0.04    -0.27   0.10  -0.05
  12   6    -0.09   0.22  -0.01    -0.18  -0.09  -0.04     0.24  -0.06   0.04
  13   6    -0.21  -0.31  -0.05     0.23   0.19   0.05    -0.18  -0.03  -0.04
  14  17    -0.00  -0.00  -0.00     0.00   0.00   0.00    -0.00  -0.00   0.00
  15   1     0.00   0.01  -0.01     0.00  -0.00  -0.00    -0.00   0.00  -0.00
  16   1    -0.01  -0.00  -0.01    -0.00  -0.00  -0.00    -0.00  -0.00  -0.00
  17   1     0.01   0.00   0.00    -0.00  -0.00  -0.00     0.00   0.00   0.00
  18   1     0.00   0.02  -0.01     0.00   0.00  -0.00     0.00   0.00  -0.01
  19   1     0.02   0.01   0.00     0.00   0.00   0.00     0.00   0.00  -0.00
  20   1     0.06   0.02  -0.01    -0.05  -0.01   0.00    -0.02  -0.00   0.00
  21   1    -0.06  -0.00   0.00     0.03  -0.00  -0.00     0.01  -0.00   0.00
  22   1     0.07  -0.07   0.01     0.07   0.01   0.01     0.07  -0.02   0.01
  23   1     0.12  -0.02   0.02    -0.01   0.06  -0.00     0.08  -0.06   0.01
  24   1     0.10   0.03   0.02     0.05   0.04   0.01    -0.03  -0.09  -0.01
  25   1     0.04  -0.13   0.00     0.01  -0.06  -0.00    -0.04  -0.08  -0.01
  26   1     0.10  -0.09   0.02    -0.05  -0.03  -0.01    -0.09   0.01  -0.02
  27   1     0.12  -0.00   0.02     0.03  -0.05   0.00    -0.05   0.03  -0.01
  28   1     0.12   0.05   0.02    -0.03  -0.03  -0.01     0.02   0.05   0.00
                     64                     65                     66
                        a                      a                      a 
 Frequencies --  1614.1715              2911.8673              2938.6217
 Red. masses --    11.4565                 1.9684                 1.9460
 Frc consts  --     0.0000                 0.0000                 0.0000
 IR Inten    --     1.5197              1284.8198                13.6118
 Raman Activ --     0.0000                 0.0000                 0.0000
 Depolar     --     0.0000                 0.0000                 0.0000
 Atom AN      X      Y      Z        X      Y      Z        X      Y      Z
   1   7     0.00   0.00  -0.00     0.06  -0.23   0.12     0.01  -0.03   0.02
   2   6    -0.01  -0.00   0.01    -0.03   0.05  -0.03     0.15  -0.11   0.08
   3   6    -0.05   0.02  -0.02    -0.00   0.01   0.00    -0.01   0.20   0.05
   4   6     0.32  -0.23   0.05     0.00   0.00   0.00    -0.00   0.01   0.00
   5   6    -0.35   0.24  -0.06    -0.00  -0.00  -0.00    -0.00  -0.00  -0.00
   6   6     0.09   0.03   0.02     0.00  -0.00  -0.00     0.00  -0.00   0.00
   7   6     0.25  -0.03   0.05     0.00  -0.00  -0.00    -0.00   0.00  -0.00
   8   6    -0.24  -0.02  -0.05    -0.00   0.00  -0.00     0.00   0.00  -0.00
   9   6     0.15  -0.21   0.02    -0.00   0.00  -0.00     0.00  -0.00   0.00
  10   6    -0.20   0.18  -0.03    -0.00  -0.00   0.00    -0.00   0.00   0.00
  11   6    -0.04   0.04  -0.01    -0.00  -0.00  -0.00     0.00  -0.00  -0.00
  12   6     0.40  -0.05   0.07     0.00  -0.00   0.00    -0.00   0.00  -0.00
  13   6    -0.38  -0.08  -0.07    -0.01   0.01  -0.00     0.00  -0.00   0.00
  14  17    -0.00  -0.00   0.00     0.00   0.01  -0.01    -0.00   0.00  -0.00
  15   1    -0.00  -0.00   0.00    -0.05  -0.02  -0.01     0.00  -0.00   0.00
  16   1    -0.00   0.00  -0.00     0.02  -0.01  -0.01     0.00  -0.00  -0.00
  17   1    -0.00  -0.00   0.00    -0.18   0.83  -0.39    -0.02   0.10  -0.05
  18   1     0.00   0.00  -0.01     0.05   0.01   0.01    -0.41  -0.04  -0.08
  19   1     0.01   0.00  -0.00     0.06  -0.19   0.10    -0.13   0.47  -0.21
  20   1    -0.04  -0.01   0.00     0.01  -0.01   0.01     0.14  -0.31   0.19
  21   1     0.02  -0.00   0.00    -0.01  -0.03  -0.03    -0.08  -0.40  -0.35
  22   1     0.10  -0.01   0.02     0.00   0.00   0.00     0.00   0.00   0.00
  23   1    -0.03   0.04  -0.00    -0.00  -0.00  -0.00     0.00   0.00  -0.00
  24   1     0.03   0.07   0.01     0.00  -0.00  -0.00     0.00  -0.00  -0.00
  25   1     0.03   0.07   0.01     0.00   0.00   0.00    -0.00   0.00  -0.00
  26   1     0.05   0.01   0.01     0.00   0.00   0.00    -0.00  -0.00   0.00
  27   1    -0.05   0.06  -0.01     0.00   0.00   0.00     0.00  -0.00   0.00
  28   1     0.06   0.11   0.01     0.02  -0.02   0.00    -0.00   0.00  -0.00
                     67                     68                     69
                        a                      a                      a 
 Frequencies --  2943.7871              2968.2689              2973.9549
 Red. masses --     1.9129                 1.5142                 1.6115
 Frc consts  --     0.0000                 0.0000                 0.0000
 IR Inten    --    20.7210                18.2215                 5.0628
 Raman Activ --     0.0000                 0.0000                 0.0000
 Depolar     --     0.0000                 0.0000                 0.0000
 Atom AN      X      Y      Z        X      Y      Z        X      Y      Z
   1   7     0.01  -0.04   0.02    -0.01   0.03  -0.01     0.01  -0.02   0.01
   2   6     0.17  -0.08   0.07     0.13   0.14  -0.02    -0.01  -0.09   0.04
   3   6    -0.00  -0.18  -0.09     0.04  -0.00   0.08     0.09  -0.12   0.16
   4   6    -0.00  -0.01  -0.00     0.00   0.00   0.00     0.01  -0.00   0.00
   5   6     0.00   0.00   0.00    -0.00  -0.00  -0.00    -0.00   0.00  -0.00
   6   6    -0.00   0.00  -0.00     0.00  -0.00  -0.00    -0.00  -0.00  -0.00
   7   6     0.00   0.00   0.00    -0.00  -0.00  -0.00     0.00   0.00   0.00
   8   6    -0.00  -0.00  -0.00     0.00  -0.00  -0.00    -0.00   0.00  -0.00
   9   6     0.00   0.00   0.00     0.00   0.00   0.00    -0.00   0.00   0.00
  10   6     0.00   0.00  -0.00     0.00  -0.00   0.00     0.00   0.00   0.00
  11   6    -0.00   0.00  -0.00    -0.00   0.00  -0.00    -0.00   0.00  -0.00
  12   6     0.00  -0.00   0.00    -0.00  -0.00  -0.00     0.00  -0.00  -0.00
  13   6    -0.00   0.00  -0.00     0.00  -0.00  -0.00    -0.00   0.00  -0.00
  14  17     0.00   0.00  -0.00    -0.00  -0.00   0.00     0.00   0.00  -0.00
  15   1     0.00  -0.00   0.00     0.03   0.00   0.01    -0.01  -0.00  -0.00
  16   1     0.01  -0.00  -0.01    -0.00   0.00   0.00    -0.00  -0.00   0.00
  17   1    -0.03   0.13  -0.06     0.02  -0.09   0.05    -0.01   0.07  -0.03
  18   1    -0.53  -0.04  -0.11    -0.64  -0.01  -0.15     0.14  -0.00   0.04
  19   1    -0.08   0.30  -0.13     0.19  -0.51   0.24    -0.11   0.32  -0.15
  20   1    -0.07   0.14  -0.10    -0.09   0.24  -0.12    -0.28   0.68  -0.36
  21   1     0.10   0.51   0.42    -0.04  -0.23  -0.18    -0.04  -0.27  -0.19
  22   1    -0.01  -0.01  -0.00     0.00   0.00   0.00    -0.00  -0.00  -0.00
  23   1    -0.00  -0.00   0.00     0.00   0.00  -0.00    -0.00  -0.00  -0.00
  24   1     0.00  -0.00   0.00    -0.00   0.00  -0.00     0.00  -0.00   0.00
  25   1     0.00   0.00  -0.00    -0.00  -0.00  -0.00     0.00   0.00   0.00
  26   1    -0.00  -0.00  -0.00    -0.00  -0.00   0.00    -0.00   0.00  -0.00
  27   1     0.00   0.00  -0.00     0.00   0.00   0.00     0.00   0.00   0.00
  28   1     0.01  -0.01   0.00    -0.00   0.00  -0.00     0.01  -0.01   0.00
                     70                     71                     72
                        a                      a                      a 
 Frequencies --  3089.7073              3096.9861              3097.5762
 Red. masses --     1.7552                 1.8135                 1.8316
 Frc consts  --     0.0000                 0.0000                 0.0000
 IR Inten    --     7.3195                19.5052               177.0267
 Raman Activ --     0.0000                 0.0000                 0.0000
 Depolar     --     0.0000                 0.0000                 0.0000
 Atom AN      X      Y      Z        X      Y      Z        X      Y      Z
   1   7     0.00  -0.00   0.00     0.00  -0.00   0.00     0.00  -0.01   0.00
   2   6     0.00   0.00  -0.00    -0.00  -0.00   0.00    -0.00  -0.00   0.00
   3   6     0.00   0.00   0.00     0.00  -0.00   0.00     0.00  -0.00   0.00
   4   6    -0.00   0.00  -0.00     0.00  -0.00   0.00     0.01  -0.00   0.00
   5   6    -0.00  -0.01  -0.00    -0.00  -0.01  -0.00     0.01   0.02   0.00
   6   6     0.00   0.00   0.00     0.00   0.00   0.00    -0.00  -0.00  -0.00
   7   6     0.03   0.06   0.01     0.04   0.10   0.01    -0.03  -0.07  -0.01
   8   6     0.10  -0.14   0.02     0.07  -0.09   0.01    -0.05   0.07  -0.01
   9   6    -0.17  -0.02  -0.03     0.13   0.01   0.02    -0.10  -0.01  -0.02
  10   6     0.02   0.04   0.00    -0.03  -0.07  -0.01     0.01   0.03   0.00
  11   6     0.00   0.00   0.00    -0.00  -0.00  -0.00     0.00   0.00   0.00
  12   6    -0.00  -0.00  -0.00     0.02   0.05   0.01     0.02   0.05   0.01
  13   6    -0.00   0.00   0.00     0.09  -0.12   0.01     0.13  -0.17   0.02
  14  17    -0.00   0.00  -0.00    -0.00  -0.00   0.00    -0.00  -0.00   0.00
  15   1    -0.00   0.00  -0.00    -0.01  -0.00  -0.00    -0.01  -0.00  -0.00
  16   1     0.00   0.00  -0.00    -0.00   0.00   0.00    -0.00  -0.00   0.00
  17   1    -0.00  -0.00   0.00    -0.00   0.02  -0.01    -0.01   0.02  -0.01
  18   1    -0.00  -0.00  -0.00     0.00   0.00   0.00     0.00   0.00   0.00
  19   1     0.00  -0.00   0.00    -0.00   0.00  -0.00    -0.00   0.00  -0.00
  20   1     0.00  -0.00   0.00    -0.00   0.01  -0.00    -0.01   0.01  -0.01
  21   1    -0.00  -0.00  -0.00     0.00   0.00   0.00     0.00   0.00   0.00
  22   1     0.01   0.02   0.00     0.01   0.04   0.00    -0.03  -0.07  -0.01
  23   1    -0.09  -0.22  -0.03    -0.16  -0.38  -0.04     0.10   0.24   0.03
  24   1    -0.38   0.51  -0.06    -0.24   0.31  -0.04     0.18  -0.24   0.03
  25   1     0.64   0.07   0.12    -0.44  -0.05  -0.09     0.35   0.04   0.07
  26   1    -0.07  -0.17  -0.02     0.12   0.28   0.03    -0.05  -0.12  -0.01
  27   1     0.00   0.01   0.00    -0.08  -0.19  -0.02    -0.09  -0.21  -0.02
  28   1     0.00  -0.00   0.00    -0.31   0.41  -0.04    -0.45   0.60  -0.05
                     73                     74                     75
                        a                      a                      a 
 Frequencies --  3107.7348              3110.8107              3112.7803
 Red. masses --     1.8614                 1.8725                 1.8362
 Frc consts  --     0.0000                 0.0000                 0.0000
 IR Inten    --    38.1171                15.2853                81.6526
 Raman Activ --     0.0000                 0.0000                 0.0000
 Depolar     --     0.0000                 0.0000                 0.0000
 Atom AN      X      Y      Z        X      Y      Z        X      Y      Z
   1   7     0.00  -0.00  -0.00     0.00  -0.00   0.00     0.00   0.00   0.00
   2   6    -0.00  -0.00   0.00    -0.00   0.00  -0.00    -0.00   0.00  -0.00
   3   6     0.00  -0.00  -0.00    -0.00   0.00   0.00    -0.00   0.00   0.00
   4   6    -0.00  -0.00  -0.00     0.01   0.00   0.00     0.01   0.00   0.00
   5   6    -0.04  -0.11  -0.01     0.04   0.11   0.01     0.07   0.17   0.02
   6   6     0.01  -0.00   0.00     0.00   0.00   0.00     0.00   0.01   0.00
   7   6     0.08   0.17   0.02    -0.00  -0.00  -0.00     0.04   0.08   0.01
   8   6    -0.08   0.10  -0.01     0.02  -0.03   0.00    -0.02   0.03  -0.00
   9   6    -0.01  -0.00  -0.00     0.08   0.01   0.02     0.01  -0.00   0.00
  10   6     0.04   0.09   0.01     0.05   0.13   0.01     0.02   0.06   0.01
  11   6    -0.00   0.00  -0.00    -0.01   0.00  -0.00     0.00   0.00   0.00
  12   6    -0.01  -0.03  -0.00    -0.07  -0.16  -0.02     0.06   0.14   0.02
  13   6     0.01  -0.01   0.00     0.04  -0.06   0.01    -0.04   0.05  -0.01
  14  17    -0.00  -0.00  -0.00    -0.00   0.00   0.00    -0.00   0.00  -0.00
  15   1    -0.00  -0.00  -0.00    -0.00  -0.00  -0.00    -0.01   0.00  -0.00
  16   1    -0.00  -0.00   0.00    -0.00  -0.00   0.00    -0.00  -0.00   0.00
  17   1     0.00   0.00  -0.00    -0.00   0.01  -0.00     0.00  -0.00   0.00
  18   1     0.00   0.00   0.00     0.00   0.00   0.00    -0.00  -0.00  -0.00
  19   1    -0.00   0.00  -0.00     0.00  -0.00   0.00     0.00  -0.01   0.00
  20   1    -0.00   0.00  -0.00    -0.00  -0.00  -0.00     0.00  -0.00   0.00
  21   1     0.00   0.00   0.00    -0.00  -0.00  -0.00    -0.00  -0.01  -0.01
  22   1     0.16   0.38   0.04    -0.16  -0.38  -0.04    -0.26  -0.62  -0.07
  23   1    -0.25  -0.60  -0.07     0.00   0.00   0.00    -0.12  -0.29  -0.03
  24   1     0.25  -0.33   0.04    -0.08   0.11  -0.01     0.08  -0.10   0.01
  25   1     0.04   0.01   0.01    -0.26  -0.03  -0.05    -0.02  -0.00  -0.00
  26   1    -0.14  -0.33  -0.04    -0.18  -0.44  -0.05    -0.09  -0.20  -0.02
  27   1     0.04   0.09   0.01     0.23   0.57   0.07    -0.20  -0.48  -0.06
  28   1    -0.03   0.04  -0.00    -0.14   0.19  -0.02     0.12  -0.15   0.01
                     76                     77                     78
                        a                      a                      a 
 Frequencies --  3114.6709              3173.7264              3185.1470
 Red. masses --     1.8691                 1.9914                 1.5258
 Frc consts  --     0.0000                 0.0000                 0.0000
 IR Inten    --    23.8925                60.3108                19.4221
 Raman Activ --     0.0000                 0.0000                 0.0000
 Depolar     --     0.0000                 0.0000                 0.0000
 Atom AN      X      Y      Z        X      Y      Z        X      Y      Z
   1   7     0.00   0.00  -0.00     0.27   0.02  -0.03    -0.02  -0.01   0.20
   2   6    -0.00   0.00  -0.00     0.01   0.00   0.00     0.00   0.00   0.01
   3   6    -0.00   0.00   0.00    -0.00   0.00  -0.00     0.00   0.00   0.00
   4   6     0.00   0.00   0.00    -0.00   0.00   0.00    -0.00  -0.00   0.00
   5   6     0.04   0.09   0.01    -0.00  -0.00  -0.00     0.00  -0.00  -0.00
   6   6     0.00   0.01   0.00    -0.00  -0.00  -0.00    -0.00  -0.00  -0.00
   7   6     0.04   0.08   0.01    -0.00  -0.00  -0.00     0.00  -0.00  -0.00
   8   6    -0.05   0.06  -0.01     0.00  -0.00   0.00    -0.00   0.00  -0.00
   9   6    -0.09  -0.01  -0.02     0.00   0.00   0.00    -0.00   0.00  -0.00
  10   6    -0.07  -0.16  -0.02     0.00   0.00   0.00    -0.00  -0.00  -0.00
  11   6    -0.00  -0.01  -0.00     0.00   0.00   0.00     0.00   0.00   0.00
  12   6    -0.04  -0.11  -0.01     0.00  -0.00   0.00    -0.00  -0.00   0.00
  13   6     0.01  -0.02   0.00    -0.00   0.00   0.00    -0.00   0.00   0.00
  14  17    -0.00   0.00   0.00     0.00  -0.00   0.00    -0.00   0.00  -0.00
  15   1    -0.00   0.00  -0.00    -0.80   0.02  -0.27    -0.45   0.01  -0.12
  16   1    -0.00  -0.00   0.00    -0.25  -0.04   0.37     0.53   0.08  -0.67
  17   1     0.00  -0.00   0.00     0.03  -0.04   0.02     0.01  -0.06   0.04
  18   1    -0.00   0.00   0.00    -0.02  -0.00  -0.00    -0.01  -0.00  -0.00
  19   1     0.00  -0.00   0.00     0.00  -0.01   0.00     0.00  -0.01   0.00
  20   1     0.00  -0.00   0.00     0.00  -0.00   0.00    -0.00   0.00  -0.00
  21   1    -0.00  -0.00  -0.00     0.00  -0.00  -0.00    -0.00  -0.00  -0.00
  22   1    -0.14  -0.32  -0.03     0.00   0.01   0.00     0.00   0.00   0.00
  23   1    -0.12  -0.28  -0.03     0.00   0.00   0.00    -0.00   0.00   0.00
  24   1     0.15  -0.20   0.02    -0.00   0.00  -0.00     0.00  -0.00   0.00
  25   1     0.30   0.03   0.06    -0.00  -0.00  -0.00     0.00   0.00   0.00
  26   1     0.24   0.56   0.06    -0.00  -0.00  -0.00     0.00   0.00   0.00
  27   1     0.15   0.38   0.04     0.00   0.00  -0.00     0.00   0.00   0.00
  28   1    -0.03   0.04  -0.00     0.01  -0.01   0.00     0.00  -0.00   0.00
