 Entering Gaussian System
 *********************************************
 Gaussian 98:
 frequency output generated by the xtb code
 *********************************************
                         Standard orientation:
 --------------------------------------------------------------------
  Center     Atomic     Atomic              Coordinates (Angstroms)
  Number     Number      Type              X           Y           Z
 --------------------------------------------------------------------
    1          7             0       -1.949144    0.050498   -1.134323
    2          6             0       -1.946029   -0.032709    0.352567
    3          6             0       -0.560237   -0.011345    1.029122
    4          6             0        0.252599    1.291230    0.767677
    5          6             0        1.128445    1.255983   -0.498826
    6          6             0        2.016258    0.004589   -0.539177
    7          6             0        1.161852   -1.269217   -0.474322
    8          6             0        0.282796   -1.300030    0.789621
    9          1             0       -2.910275    0.006283   -1.506210
   10          1             0       -1.429479   -0.727145   -1.564104
   11          1             0       -1.544720    0.936506   -1.468486
   12          1             0       -2.478353   -0.943736    0.651650
   13          1             0       -2.549983    0.796035    0.742328
   14          1             0       -0.774563   -0.006622    2.114933
   15          1             0        0.892884    1.503238    1.632474
   16          1             0       -0.442696    2.138104    0.713568
   17          1             0        1.748360    2.161600   -0.557820
   18          1             0        0.501712    1.285405   -1.395764
   19          1             0        2.710091    0.022056    0.309991
   20          1             0        2.651205    0.004304   -1.435929
   21          1             0        1.807137   -2.158231   -0.509523
   22          1             0        0.539748   -1.339575   -1.372200
   23          1             0        0.924958   -1.483882    1.659660
   24          1             0       -0.393119   -2.163197    0.747725
 --------------------------------------------------------------------
     1 basis functions        1 primitive gaussians
     1 alpha electrons        1 beta electrons

 Harmonic frequencies (cm**-1), IR intensities (km*mol⁻¹),
 Raman scattering activities (A**4/amu), Raman depolarization ratios,
 reduced masses (AMU), force constants (mDyne/A) and normal coordinates:
                      1                      2                      3
                        a                      a                      a 
 Frequencies --  -116.6230               118.2559               139.6721
 Red. masses --     1.3483                 8.6680                 9.2286
 Frc consts  --     0.0000                 0.0000                 0.0000
 IR Inten    --     0.2128                18.9527                23.6382
 Raman Activ --     0.0000                 0.0000                 0.0000
 Depolar     --     0.0000                 0.0000                 0.0000
 Atom AN      X      Y      Z        X      Y      Z        X      Y      Z
   1   7    -0.05  -0.12  -0.00     0.20  -0.53  -0.05     0.48   0.18  -0.10
   2   6    -0.01   0.05   0.00     0.03   0.25  -0.00     0.11  -0.11  -0.11
   3   6     0.00  -0.03  -0.01    -0.00   0.09   0.05    -0.01  -0.04   0.13
   4   6    -0.02  -0.01   0.01     0.15   0.03   0.23    -0.04  -0.03   0.12
   5   6    -0.00   0.03   0.02     0.04   0.11   0.16    -0.24   0.03  -0.03
   6   6     0.02   0.05   0.02    -0.11   0.02  -0.10    -0.30  -0.01  -0.29
   7   6     0.04   0.03  -0.01    -0.20   0.07  -0.16    -0.19  -0.07   0.06
   8   6     0.02  -0.01  -0.03    -0.15   0.03  -0.12     0.09   0.02   0.26
   9   1    -0.05   0.51   0.04     0.07  -0.26  -0.04     0.15   0.14  -0.09
  10   1    -0.50  -0.34  -0.02     0.13  -0.17   0.13     0.10   0.03  -0.03
  11   1     0.50  -0.27  -0.03     0.01  -0.16  -0.13     0.22   0.04   0.05
  12   1    -0.05   0.05   0.04    -0.07   0.15   0.11     0.04  -0.06  -0.11
  13   1     0.05   0.06  -0.03     0.07   0.17  -0.12    -0.01  -0.07  -0.03
  14   1     0.00  -0.01  -0.00    -0.01   0.00   0.01    -0.04  -0.00   0.03
  15   1    -0.01  -0.00   0.00     0.07  -0.06   0.06     0.03  -0.03   0.01
  16   1    -0.01  -0.01   0.01     0.07   0.03   0.12    -0.01  -0.01   0.08
  17   1    -0.01   0.01   0.01     0.04   0.01   0.07    -0.05  -0.01  -0.01
  18   1     0.00   0.01  -0.00    -0.02   0.10   0.07    -0.10   0.06   0.01
  19   1     0.00   0.02   0.01    -0.00  -0.04  -0.05    -0.01   0.01  -0.15
  20   1     0.01   0.02   0.01    -0.06   0.02  -0.05    -0.17  -0.01  -0.14
  21   1     0.02   0.01  -0.00    -0.07   0.01  -0.07    -0.03  -0.00   0.01
  22   1     0.02   0.01  -0.00    -0.06   0.05  -0.05    -0.11  -0.09   0.06
  23   1    -0.00  -0.01  -0.01    -0.04  -0.03  -0.05     0.08   0.08   0.05
  24   1     0.01  -0.00  -0.02    -0.07   0.03  -0.05     0.05  -0.02   0.16
                      4                      5                      6
                        a                      a                      a 
 Frequencies --   217.4622               236.3308               338.1544
 Red. masses --     8.8354                 7.0630                 6.9424
 Frc consts  --     0.0000                 0.0000                 0.0000
 IR Inten    --    25.7959                 0.3445                 0.5227
 Raman Activ --     0.0000                 0.0000                 0.0000
 Depolar     --     0.0000                 0.0000                 0.0000
 Atom AN      X      Y      Z        X      Y      Z        X      Y      Z
   1   7    -0.47  -0.02  -0.30    -0.04  -0.09   0.01     0.02  -0.00   0.13
   2   6     0.05   0.01  -0.23     0.00  -0.30  -0.00    -0.28  -0.01   0.09
   3   6     0.01   0.01  -0.06     0.00   0.08  -0.01    -0.21  -0.00  -0.05
   4   6     0.23  -0.08   0.26    -0.09   0.14  -0.11    -0.12  -0.04  -0.05
   5   6     0.05   0.03   0.14     0.37   0.09   0.18     0.26   0.10   0.15
   6   6    -0.00  -0.01  -0.16     0.02  -0.16   0.03     0.12  -0.01  -0.39
   7   6     0.04  -0.02   0.13    -0.35   0.09  -0.19     0.24  -0.09   0.15
   8   6     0.19   0.09   0.22     0.09   0.14   0.09    -0.11   0.05  -0.04
   9   1    -0.17  -0.03   0.04    -0.01   0.03   0.01     0.04   0.00  -0.05
  10   1    -0.17   0.00  -0.15    -0.04  -0.02  -0.04     0.05   0.00   0.08
  11   1    -0.20   0.00  -0.14     0.02  -0.02   0.04     0.04  -0.00   0.08
  12   1     0.03   0.00  -0.04     0.09  -0.15  -0.03    -0.08  -0.00   0.02
  13   1     0.02  -0.00  -0.05    -0.08  -0.16   0.03    -0.08  -0.00   0.02
  14   1    -0.08  -0.00  -0.03     0.00   0.05  -0.00    -0.03   0.00  -0.01
  15   1     0.10  -0.14   0.08    -0.12   0.12   0.02    -0.10  -0.00   0.03
  16   1     0.12   0.02   0.16    -0.05   0.01  -0.15    -0.02  -0.01  -0.08
  17   1     0.02  -0.00   0.04     0.18  -0.02   0.17     0.14  -0.00   0.20
  18   1    -0.04   0.04   0.08     0.18   0.15  -0.00     0.13   0.20   0.01
  19   1     0.08  -0.00  -0.11    -0.00  -0.15   0.02     0.20  -0.00  -0.25
  20   1    -0.08  -0.00  -0.10     0.01  -0.04   0.01    -0.14  -0.01  -0.23
  21   1     0.02   0.00   0.04    -0.19  -0.03  -0.18     0.13   0.01   0.19
  22   1    -0.03  -0.04   0.07    -0.18   0.16  -0.01     0.12  -0.19   0.02
  23   1     0.08   0.13   0.06     0.12   0.12  -0.03    -0.09   0.01   0.03
  24   1     0.10  -0.01   0.14     0.05   0.01   0.14    -0.02   0.01  -0.07
                      7                      8                      9
                        a                      a                      a 
 Frequencies --   382.9041               396.8631               434.5410
 Red. masses --     6.8416                 8.1870                 9.1489
 Frc consts  --     0.0000                 0.0000                 0.0000
 IR Inten    --     0.0416                 3.3586                 0.0103
 Raman Activ --     0.0000                 0.0000                 0.0000
 Depolar     --     0.0000                 0.0000                 0.0000
 Atom AN      X      Y      Z        X      Y      Z        X      Y      Z
   1   7    -0.01   0.06  -0.02     0.09   0.00   0.07     0.02  -0.01   0.01
   2   6     0.01   0.36   0.01    -0.33   0.01   0.03    -0.00  -0.10  -0.00
   3   6     0.02  -0.18  -0.00    -0.30  -0.02   0.04    -0.01   0.28   0.01
   4   6    -0.36  -0.01  -0.04     0.08  -0.28   0.03    -0.05   0.31   0.27
   5   6    -0.07  -0.11   0.17    -0.02  -0.27  -0.09    -0.16  -0.26   0.21
   6   6    -0.01  -0.09   0.00     0.32   0.01  -0.03     0.01  -0.19  -0.00
   7   6     0.07  -0.13  -0.15    -0.02   0.27  -0.09     0.16  -0.25  -0.21
   8   6     0.36  -0.02   0.05     0.10   0.27   0.04     0.03   0.31  -0.28
   9   1    -0.00  -0.06   0.00     0.07   0.01  -0.10     0.00   0.03  -0.00
  10   1     0.03   0.00   0.06     0.07  -0.01   0.09    -0.02  -0.01  -0.01
  11   1    -0.05   0.01  -0.08     0.08  -0.00   0.07     0.03  -0.01   0.02
  12   1    -0.17   0.22   0.06    -0.11   0.01  -0.00     0.12  -0.10  -0.03
  13   1     0.17   0.24  -0.04    -0.09   0.01  -0.01    -0.11  -0.12   0.02
  14   1     0.00  -0.10  -0.00    -0.08  -0.00   0.01    -0.00  -0.01   0.00
  15   1    -0.20   0.16   0.02     0.08  -0.20  -0.01    -0.03   0.10   0.09
  16   1    -0.18  -0.08  -0.16     0.12   0.01   0.08     0.01   0.10   0.01
  17   1    -0.01  -0.03   0.09    -0.11  -0.01  -0.09    -0.06  -0.08  -0.08
  18   1     0.02  -0.01   0.02    -0.03  -0.20  -0.01    -0.12  -0.17   0.11
  19   1    -0.00  -0.06   0.00     0.08   0.00   0.00     0.00  -0.08  -0.00
  20   1    -0.00   0.04  -0.00     0.10   0.00  -0.00    -0.00   0.05  -0.00
  21   1     0.02  -0.04  -0.08    -0.11   0.00  -0.09     0.05  -0.07   0.08
  22   1    -0.02  -0.02  -0.01    -0.04   0.20  -0.01     0.13  -0.15  -0.11
  23   1     0.19   0.15  -0.02     0.09   0.21  -0.01     0.03   0.10  -0.09
  24   1     0.17  -0.07   0.16     0.14  -0.01   0.09    -0.02   0.10  -0.02
                     10                     11                     12
                        a                      a                      a 
 Frequencies --   503.3407               683.1524               742.3699
 Red. masses --     6.1526                 7.5748                 9.5301
 Frc consts  --     0.0000                 0.0000                 0.0000
 IR Inten    --     7.7858                 4.7303                 2.9818
 Raman Activ --     0.0000                 0.0000                 0.0000
 Depolar     --     0.0000                 0.0000                 0.0000
 Atom AN      X      Y      Z        X      Y      Z        X      Y      Z
   1   7    -0.01   0.00  -0.12     0.03   0.00  -0.07     0.08  -0.01   0.24
   2   6     0.22   0.01  -0.05     0.28   0.01   0.01     0.34  -0.00  -0.01
   3   6     0.06  -0.00   0.28    -0.08  -0.00   0.43     0.08  -0.01  -0.56
   4   6    -0.14   0.04   0.05    -0.11  -0.36  -0.09    -0.12  -0.20  -0.10
   5   6    -0.03  -0.25   0.10    -0.00  -0.05  -0.10    -0.10  -0.09   0.17
   6   6     0.29   0.01  -0.17    -0.03  -0.00  -0.06    -0.04  -0.00   0.10
   7   6    -0.04   0.25   0.10    -0.01   0.05  -0.10    -0.11   0.10   0.18
   8   6    -0.14  -0.05   0.06    -0.12   0.34  -0.10    -0.14   0.22  -0.11
   9   1    -0.04  -0.00   0.07    -0.07  -0.02   0.18    -0.01  -0.00   0.16
  10   1    -0.05  -0.00  -0.09    -0.08   0.00  -0.13    -0.02   0.01  -0.00
  11   1    -0.05   0.00  -0.09    -0.09   0.00  -0.12    -0.02   0.01   0.04
  12   1     0.06   0.00  -0.03     0.07  -0.00  -0.03     0.11   0.01   0.06
  13   1     0.05  -0.00  -0.03     0.05  -0.00  -0.03     0.15   0.02   0.04
  14   1    -0.02   0.00   0.07    -0.03   0.00   0.12     0.01  -0.01  -0.16
  15   1    -0.13   0.21   0.03     0.02  -0.07  -0.07    -0.04  -0.17   0.00
  16   1    -0.11  -0.06  -0.18    -0.02  -0.09  -0.01    -0.01  -0.03   0.05
  17   1    -0.11  -0.00  -0.07     0.05  -0.03   0.22    -0.06  -0.01   0.07
  18   1    -0.05  -0.21   0.05     0.11   0.18  -0.10     0.00  -0.06   0.02
  19   1     0.25   0.00  -0.19    -0.15  -0.00   0.10     0.12  -0.00  -0.08
  20   1    -0.10  -0.00  -0.18     0.14   0.00   0.09    -0.15  -0.01  -0.07
  21   1    -0.11   0.00  -0.08     0.04   0.04   0.21    -0.06   0.01   0.08
  22   1    -0.06   0.21   0.05     0.12  -0.18  -0.09     0.01   0.05   0.02
  23   1    -0.12  -0.21   0.03     0.02   0.08  -0.07    -0.05   0.17  -0.00
  24   1    -0.11   0.05  -0.18    -0.01   0.08  -0.01    -0.01   0.04   0.05
                     13                     14                     15
                        a                      a                      a 
 Frequencies --   806.3562               810.4013               859.9316
 Red. masses --     4.4920                 2.6570                 7.6187
 Frc consts  --     0.0000                 0.0000                 0.0000
 IR Inten    --     0.7258                33.8707                 8.8592
 Raman Activ --     0.0000                 0.0000                 0.0000
 Depolar     --     0.0000                 0.0000                 0.0000
 Atom AN      X      Y      Z        X      Y      Z        X      Y      Z
   1   7    -0.00  -0.03  -0.00    -0.01   0.14   0.02     0.11  -0.00   0.09
   2   6     0.00   0.01  -0.00     0.01   0.28   0.01     0.14   0.01  -0.02
   3   6    -0.00   0.21  -0.00     0.01   0.08  -0.03    -0.22   0.00   0.06
   4   6    -0.23   0.04  -0.09    -0.01  -0.13  -0.05    -0.22   0.18   0.03
   5   6    -0.23  -0.12  -0.01    -0.05  -0.03   0.03    -0.00   0.30  -0.12
   6   6    -0.00  -0.13   0.00    -0.01   0.04   0.01     0.36   0.01   0.02
   7   6     0.23  -0.11   0.02     0.04  -0.03  -0.01     0.01  -0.31  -0.12
   8   6     0.23   0.06   0.08    -0.00  -0.12   0.03    -0.21  -0.20   0.04
   9   1    -0.00   0.01  -0.00     0.00  -0.13   0.01    -0.05  -0.02   0.24
  10   1     0.00   0.02  -0.04    -0.02  -0.20   0.42    -0.07  -0.00  -0.10
  11   1    -0.00   0.01   0.04     0.03  -0.14  -0.44    -0.08   0.01  -0.07
  12   1     0.00   0.01   0.03     0.32  -0.19  -0.24     0.02   0.00  -0.03
  13   1    -0.00   0.02  -0.03    -0.29  -0.24   0.21     0.01   0.00  -0.04
  14   1    -0.00   0.06  -0.00     0.01   0.02  -0.01    -0.06   0.00   0.02
  15   1     0.12  -0.23  -0.10    -0.01  -0.00  -0.02     0.07  -0.15  -0.03
  16   1     0.08   0.14   0.22    -0.02  -0.05  -0.03     0.00   0.11   0.24
  17   1     0.09  -0.12   0.27    -0.01  -0.01   0.07    -0.08   0.14  -0.07
  18   1     0.12   0.24  -0.12     0.01   0.04  -0.01     0.04  -0.05  -0.07
  19   1    -0.00   0.04   0.00     0.01   0.03  -0.01     0.16   0.00  -0.05
  20   1    -0.00   0.03   0.00    -0.02   0.03  -0.01     0.04   0.00  -0.04
  21   1    -0.08  -0.12  -0.27     0.01  -0.01  -0.07    -0.08  -0.14  -0.07
  22   1    -0.13   0.24   0.11    -0.01   0.05   0.00     0.04   0.05  -0.07
  23   1    -0.12  -0.23   0.10     0.01   0.02   0.01     0.06   0.15  -0.03
  24   1    -0.08   0.14  -0.23     0.03  -0.05   0.04     0.00  -0.11   0.24
                     16                     17                     18
                        a                      a                      a 
 Frequencies --   885.4778               907.1392               920.9951
 Red. masses --     5.7497                 7.6428                 7.0375
 Frc consts  --     0.0000                 0.0000                 0.0000
 IR Inten    --     2.5033                 7.0774                33.4371
 Raman Activ --     0.0000                 0.0000                 0.0000
 Depolar     --     0.0000                 0.0000                 0.0000
 Atom AN      X      Y      Z        X      Y      Z        X      Y      Z
   1   7     0.00  -0.00   0.21    -0.01   0.08  -0.02     0.21  -0.00   0.23
   2   6     0.10   0.01  -0.13    -0.00  -0.06   0.01     0.02   0.01  -0.12
   3   6    -0.07  -0.01  -0.23     0.02  -0.29   0.02    -0.35  -0.02  -0.02
   4   6    -0.03  -0.05   0.22    -0.12   0.20   0.24     0.08   0.21   0.00
   5   6     0.01   0.06  -0.06     0.03   0.13  -0.29     0.10  -0.23  -0.02
   6   6     0.20  -0.01  -0.37     0.02  -0.27   0.01    -0.25  -0.02  -0.01
   7   6     0.01  -0.05  -0.04    -0.05   0.11   0.28     0.10   0.24   0.01
   8   6    -0.02   0.06   0.21     0.10   0.22  -0.25     0.09  -0.19  -0.03
   9   1    -0.00  -0.01   0.06     0.00  -0.06  -0.02    -0.08  -0.03   0.41
  10   1     0.01  -0.01   0.07     0.01  -0.06   0.15    -0.12  -0.01  -0.14
  11   1     0.01  -0.01   0.03     0.01  -0.04  -0.16    -0.12   0.01  -0.13
  12   1     0.04   0.00  -0.01    -0.08  -0.00  -0.10    -0.03   0.00  -0.09
  13   1     0.04  -0.00   0.01     0.08  -0.01   0.10    -0.03   0.00  -0.09
  14   1    -0.14  -0.01  -0.09     0.01  -0.25   0.01    -0.12  -0.02  -0.01
  15   1    -0.16   0.08   0.15     0.01   0.03   0.04    -0.00  -0.00   0.03
  16   1    -0.06  -0.06  -0.08    -0.09   0.01   0.17     0.14   0.14  -0.09
  17   1    -0.03   0.04  -0.04     0.12  -0.04  -0.10     0.16  -0.15  -0.04
  18   1    -0.15   0.08   0.09     0.00   0.10  -0.07     0.00   0.01   0.02
  19   1    -0.29  -0.00   0.19     0.01   0.04  -0.01    -0.08   0.01   0.01
  20   1     0.42   0.00   0.16    -0.00  -0.28  -0.00    -0.05  -0.02   0.01
  21   1    -0.03  -0.04  -0.04    -0.13  -0.06   0.10     0.13   0.15  -0.04
  22   1    -0.15  -0.08   0.10     0.01   0.11   0.05     0.01   0.02   0.02
  23   1    -0.16  -0.08   0.15    -0.00   0.03  -0.05    -0.00   0.02   0.02
  24   1    -0.06   0.06  -0.09     0.07   0.02  -0.14     0.15  -0.14  -0.09
                     19                     20                     21
                        a                      a                      a 
 Frequencies --   944.7585               967.7283               991.8914
 Red. masses --     3.8391                 6.8271                 9.3742
 Frc consts  --     0.0000                 0.0000                 0.0000
 IR Inten    --     9.7721                37.8287                20.6831
 Raman Activ --     0.0000                 0.0000                 0.0000
 Depolar     --     0.0000                 0.0000                 0.0000
 Atom AN      X      Y      Z        X      Y      Z        X      Y      Z
   1   7    -0.01  -0.08  -0.00    -0.18  -0.00  -0.02     0.20   0.04  -0.42
   2   6    -0.00   0.06  -0.00     0.15   0.00  -0.04    -0.11  -0.04   0.62
   3   6     0.01   0.03  -0.00     0.07   0.00  -0.04     0.02  -0.01  -0.20
   4   6     0.22  -0.06   0.13    -0.15   0.27   0.06    -0.03   0.07  -0.02
   5   6    -0.17  -0.10  -0.11    -0.12  -0.30  -0.02    -0.05  -0.06   0.09
   6   6     0.00   0.04  -0.00     0.18  -0.00  -0.14     0.08   0.00  -0.16
   7   6     0.17  -0.11   0.11    -0.13   0.30  -0.03    -0.04   0.05   0.08
   8   6    -0.22  -0.06  -0.13    -0.14  -0.27   0.07    -0.04  -0.06  -0.01
   9   1     0.00   0.05  -0.02     0.05   0.01  -0.24    -0.03  -0.01   0.10
  10   1     0.01   0.05  -0.13     0.09   0.01   0.14    -0.08   0.00  -0.24
  11   1     0.00   0.04   0.15     0.09  -0.01   0.13    -0.07   0.01  -0.24
  12   1     0.09  -0.01   0.07     0.07   0.00   0.05    -0.05  -0.03   0.09
  13   1    -0.08  -0.01  -0.07     0.08  -0.00   0.05    -0.05   0.00   0.09
  14   1    -0.00  -0.04  -0.00    -0.03  -0.00  -0.02     0.18   0.01  -0.01
  15   1    -0.05   0.25   0.05     0.10  -0.05  -0.05    -0.02  -0.07   0.03
  16   1    -0.06  -0.12  -0.19     0.05   0.15   0.15     0.04   0.06   0.00
  17   1     0.12  -0.13   0.14     0.08  -0.14   0.19    -0.01  -0.02   0.04
  18   1    -0.08   0.31   0.01     0.12   0.12  -0.10    -0.07   0.04   0.07
  19   1    -0.00   0.33  -0.00    -0.04   0.00   0.04    -0.10   0.01   0.06
  20   1     0.00  -0.07   0.00     0.14   0.00   0.03     0.15   0.01   0.05
  21   1    -0.13  -0.14  -0.14     0.07   0.15   0.19    -0.02   0.01   0.03
  22   1     0.07   0.32  -0.01     0.12  -0.11  -0.10    -0.06  -0.03   0.06
  23   1     0.04   0.25  -0.05     0.10   0.05  -0.05    -0.03   0.07   0.03
  24   1     0.05  -0.11   0.19     0.05  -0.14   0.15     0.04  -0.05   0.01
                     22                     23                     24
                        a                      a                      a 
 Frequencies --  1001.2072              1042.6586              1087.4480
 Red. masses --     5.5541                 7.4654                 6.5905
 Frc consts  --     0.0000                 0.0000                 0.0000
 IR Inten    --     0.1378                17.6571                 5.3609
 Raman Activ --     0.0000                 0.0000                 0.0000
 Depolar     --     0.0000                 0.0000                 0.0000
 Atom AN      X      Y      Z        X      Y      Z        X      Y      Z
   1   7     0.00  -0.19  -0.03    -0.14   0.01  -0.19    -0.11  -0.01  -0.00
   2   6    -0.00   0.36   0.04     0.35  -0.02   0.27     0.21   0.02  -0.01
   3   6    -0.01   0.16  -0.02    -0.28  -0.01   0.03    -0.26  -0.04   0.15
   4   6    -0.18  -0.14   0.11    -0.12  -0.04   0.06     0.14   0.09  -0.26
   5   6     0.07   0.13  -0.10     0.25   0.01  -0.10    -0.10   0.09   0.22
   6   6    -0.00  -0.16  -0.00    -0.24   0.01   0.02     0.06   0.05  -0.07
   7   6    -0.06   0.12   0.10     0.25  -0.02  -0.11    -0.12  -0.14   0.24
   8   6     0.18  -0.14  -0.11    -0.13   0.04   0.06     0.13  -0.05  -0.28
   9   1    -0.00   0.09  -0.02     0.05   0.01  -0.27     0.02   0.01  -0.13
  10   1     0.00   0.09  -0.25     0.09   0.01   0.10     0.05   0.01   0.07
  11   1     0.00   0.06   0.27     0.09  -0.01   0.06     0.06  -0.01   0.08
  12   1     0.36  -0.07   0.13     0.13  -0.01   0.12     0.08  -0.00   0.02
  13   1    -0.33  -0.08  -0.12     0.15   0.01   0.13     0.07  -0.00   0.02
  14   1     0.00  -0.04  -0.00    -0.17  -0.01  -0.00    -0.05  -0.05   0.04
  15   1    -0.04  -0.03   0.03    -0.10  -0.11   0.09     0.04  -0.03  -0.06
  16   1    -0.11  -0.08   0.10     0.03   0.04  -0.01     0.23   0.17  -0.19
  17   1    -0.06   0.08  -0.06     0.12  -0.04  -0.22    -0.17   0.13   0.09
  18   1     0.03  -0.08  -0.04    -0.01  -0.11   0.02    -0.08   0.01   0.09
  19   1    -0.00  -0.11   0.00    -0.04   0.00  -0.02    -0.06  -0.01   0.04
  20   1     0.01  -0.19   0.00    -0.08   0.01  -0.01     0.08   0.05   0.03
  21   1     0.05   0.08   0.05     0.11   0.04  -0.22    -0.18  -0.15   0.08
  22   1    -0.04  -0.07   0.05    -0.02   0.11   0.02    -0.15  -0.04   0.14
  23   1     0.03  -0.02  -0.02    -0.10   0.11   0.08     0.01   0.06  -0.04
  24   1     0.12  -0.09  -0.10     0.03  -0.04   0.00     0.23  -0.16  -0.20
                     25                     26                     27
                        a                      a                      a 
 Frequencies --  1092.2374              1104.0227              1132.5949
 Red. masses --     4.5170                 6.5064                 7.1651
 Frc consts  --     0.0000                 0.0000                 0.0000
 IR Inten    --     0.9997                 0.1326                 3.2179
 Raman Activ --     0.0000                 0.0000                 0.0000
 Depolar     --     0.0000                 0.0000                 0.0000
 Atom AN      X      Y      Z        X      Y      Z        X      Y      Z
   1   7     0.01  -0.08  -0.00     0.00  -0.01  -0.00     0.02   0.01  -0.08
   2   6    -0.03   0.15   0.01    -0.01   0.03   0.00     0.09  -0.01   0.20
   3   6     0.04  -0.28  -0.02     0.00   0.13  -0.01    -0.30   0.00  -0.18
   4   6     0.06   0.14   0.07    -0.19  -0.06   0.11     0.21  -0.01   0.16
   5   6     0.07  -0.17  -0.08     0.26  -0.20  -0.12    -0.19   0.03  -0.21
   6   6    -0.01   0.28   0.01    -0.00   0.38   0.00     0.14  -0.00   0.25
   7   6    -0.05  -0.14   0.02    -0.26  -0.20   0.10    -0.18  -0.03  -0.21
   8   6    -0.09   0.15  -0.01     0.20  -0.05  -0.09     0.21   0.01   0.16
   9   1    -0.01   0.02   0.02    -0.00   0.00   0.00     0.00  -0.00  -0.00
  10   1    -0.00   0.02  -0.09    -0.00   0.00  -0.01     0.00   0.00  -0.02
  11   1    -0.01   0.01   0.08    -0.00   0.00   0.00     0.00  -0.00  -0.04
  12   1     0.09  -0.04  -0.04     0.01  -0.00  -0.00     0.05  -0.01   0.09
  13   1    -0.11  -0.05   0.02    -0.02  -0.00   0.00     0.05   0.01   0.07
  14   1     0.01  -0.29  -0.00    -0.00  -0.16  -0.00    -0.28  -0.01  -0.08
  15   1     0.16   0.14  -0.11    -0.16  -0.18   0.15    -0.00   0.20   0.03
  16   1    -0.08  -0.04   0.10     0.16   0.15  -0.09     0.00  -0.05  -0.16
  17   1     0.08  -0.08   0.04     0.08  -0.06  -0.06    -0.05   0.02   0.16
  18   1     0.27  -0.12  -0.19     0.00  -0.03   0.01     0.09   0.13  -0.14
  19   1     0.01  -0.10  -0.01     0.00   0.39  -0.01     0.19  -0.01  -0.07
  20   1    -0.02   0.41  -0.01    -0.00  -0.01  -0.00    -0.14  -0.01  -0.06
  21   1    -0.03  -0.04  -0.05    -0.07  -0.06   0.07    -0.03  -0.01   0.14
  22   1    -0.24  -0.13   0.17     0.01  -0.04  -0.02     0.09  -0.14  -0.13
  23   1    -0.16   0.12   0.11     0.16  -0.19  -0.14    -0.01  -0.18   0.05
  24   1     0.02   0.00  -0.05    -0.18   0.16   0.09     0.00   0.05  -0.16
                     28                     29                     30
                        a                      a                      a 
 Frequencies --  1150.6236              1171.6911              1230.1925
 Red. masses --     3.8238                 4.1490                 3.3897
 Frc consts  --     0.0000                 0.0000                 0.0000
 IR Inten    --     0.3636                 0.3034                11.1248
 Raman Activ --     0.0000                 0.0000                 0.0000
 Depolar     --     0.0000                 0.0000                 0.0000
 Atom AN      X      Y      Z        X      Y      Z        X      Y      Z
   1   7     0.00   0.08   0.00     0.00  -0.13  -0.01    -0.03  -0.02   0.02
   2   6    -0.00  -0.19  -0.01    -0.00   0.21   0.01     0.03   0.01  -0.04
   3   6     0.01   0.29   0.01     0.01  -0.31   0.00     0.02  -0.01   0.09
   4   6     0.01  -0.08   0.20     0.05   0.13  -0.15    -0.01  -0.02  -0.08
   5   6     0.00  -0.04  -0.11    -0.07   0.04   0.08    -0.14   0.00  -0.07
   6   6    -0.00   0.05  -0.00     0.00  -0.10   0.00     0.28   0.01   0.23
   7   6     0.01  -0.04   0.12     0.07   0.04  -0.08    -0.14  -0.02  -0.09
   8   6    -0.02  -0.09  -0.21    -0.06   0.13   0.15    -0.02   0.03  -0.09
   9   1     0.00  -0.03   0.01    -0.00   0.04  -0.01     0.01   0.01  -0.03
  10   1    -0.00  -0.03   0.08     0.01   0.03  -0.11     0.01   0.01  -0.01
  11   1     0.00  -0.02  -0.09    -0.01   0.02   0.12     0.01  -0.01   0.01
  12   1    -0.12   0.03   0.04     0.07  -0.04  -0.16    -0.03   0.00  -0.07
  13   1     0.11   0.05  -0.04    -0.07  -0.06   0.14    -0.00  -0.01  -0.00
  14   1     0.01  -0.12   0.00     0.00  -0.39   0.00     0.14   0.04   0.05
  15   1     0.02   0.12   0.00     0.02  -0.06  -0.02    -0.12  -0.11   0.09
  16   1     0.05   0.01  -0.11     0.24   0.21  -0.18     0.01   0.01  -0.01
  17   1    -0.28   0.20   0.26    -0.17   0.12   0.11     0.24  -0.19  -0.14
  18   1     0.21  -0.09  -0.18    -0.08   0.05   0.06    -0.28   0.29   0.17
  19   1    -0.00  -0.10   0.00    -0.00   0.00   0.00     0.20   0.03  -0.04
  20   1     0.01  -0.25   0.00     0.00  -0.25   0.00    -0.05  -0.03  -0.03
  21   1     0.28   0.20  -0.27     0.16   0.12  -0.11     0.24   0.20  -0.15
  22   1    -0.22  -0.09   0.19     0.08   0.05  -0.06    -0.29  -0.31   0.18
  23   1    -0.02   0.13  -0.01    -0.02  -0.06   0.02    -0.12   0.12   0.08
  24   1    -0.06   0.02   0.12    -0.25   0.20   0.18     0.03  -0.02  -0.03
                     31                     32                     33
                        a                      a                      a 
 Frequencies --  1241.5024              1251.8425              1256.8449
 Red. masses --     3.0884                 2.5602                 3.4675
 Frc consts  --     0.0000                 0.0000                 0.0000
 IR Inten    --     0.5527                20.7959                 3.4643
 Raman Activ --     0.0000                 0.0000                 0.0000
 Depolar     --     0.0000                 0.0000                 0.0000
 Atom AN      X      Y      Z        X      Y      Z        X      Y      Z
   1   7     0.00   0.04   0.00    -0.00   0.22   0.01    -0.00   0.07   0.02
   2   6    -0.00  -0.05  -0.00     0.01  -0.15   0.00    -0.07  -0.05  -0.08
   3   6     0.01   0.14   0.01    -0.05  -0.08   0.00     0.26  -0.03   0.04
   4   6     0.01  -0.11   0.03     0.02   0.04  -0.15    -0.09  -0.00   0.11
   5   6    -0.13   0.13  -0.17     0.01   0.00   0.13     0.03  -0.01  -0.16
   6   6     0.02  -0.13   0.01     0.04   0.00  -0.02    -0.07   0.00   0.08
   7   6     0.11   0.13   0.17    -0.04  -0.01  -0.01     0.02   0.01  -0.20
   8   6    -0.01  -0.11  -0.05     0.02   0.04   0.03    -0.09   0.03   0.16
   9   1     0.00  -0.00   0.00     0.00  -0.06   0.00    -0.00  -0.02   0.01
  10   1    -0.00  -0.01   0.03    -0.02  -0.04   0.15    -0.02  -0.02   0.06
  11   1    -0.00  -0.00  -0.03     0.02  -0.02  -0.17    -0.00  -0.00  -0.05
  12   1     0.01   0.01   0.07     0.20   0.02   0.53     0.05   0.01   0.15
  13   1    -0.01   0.01  -0.07    -0.18   0.05  -0.47    -0.09   0.02  -0.21
  14   1     0.00  -0.27   0.00    -0.10  -0.30  -0.01     0.24  -0.09   0.04
  15   1    -0.15  -0.08   0.13     0.14   0.05  -0.15    -0.20  -0.16   0.19
  16   1     0.15   0.08  -0.19    -0.07  -0.05   0.09     0.25   0.20  -0.19
  17   1     0.11  -0.07  -0.09     0.06  -0.04  -0.06    -0.13   0.10   0.10
  18   1    -0.05   0.12  -0.03    -0.09   0.02   0.10     0.05   0.01  -0.07
  19   1     0.02  -0.48   0.00    -0.00   0.09   0.01     0.03   0.02  -0.02
  20   1    -0.01   0.46  -0.01     0.02  -0.08   0.01    -0.07  -0.02  -0.02
  21   1    -0.07  -0.04   0.07     0.06   0.05  -0.04    -0.13  -0.10   0.11
  22   1     0.01   0.08   0.05     0.01  -0.01  -0.01     0.08  -0.00  -0.10
  23   1     0.14  -0.07  -0.13    -0.00  -0.04   0.01    -0.25   0.17   0.24
  24   1    -0.15   0.08   0.19    -0.09   0.08   0.05     0.24  -0.19  -0.19
                     34                     35                     36
                        a                      a                      a 
 Frequencies --  1306.2929              1320.5226              1328.5887
 Red. masses --     4.1196                 4.0754                 3.4361
 Frc consts  --     0.0000                 0.0000                 0.0000
 IR Inten    --     0.4469                 2.8656                16.6478
 Raman Activ --     0.0000                 0.0000                 0.0000
 Depolar     --     0.0000                 0.0000                 0.0000
 Atom AN      X      Y      Z        X      Y      Z        X      Y      Z
   1   7     0.02  -0.05  -0.01    -0.13   0.00   0.02    -0.11  -0.01   0.14
   2   6    -0.04  -0.05  -0.01     0.24  -0.01   0.04     0.21  -0.01   0.28
   3   6     0.04   0.43   0.02    -0.38   0.03  -0.12     0.14   0.01   0.01
   4   6    -0.09  -0.15  -0.06     0.04  -0.05   0.09     0.05   0.05  -0.07
   5   6     0.08   0.03   0.07    -0.04   0.03   0.03     0.02  -0.04  -0.01
   6   6     0.00  -0.02   0.01     0.01   0.00  -0.04    -0.03   0.02   0.02
   7   6    -0.08   0.03  -0.07    -0.06  -0.02   0.02     0.06   0.08  -0.06
   8   6     0.08  -0.15   0.05     0.08   0.01   0.08     0.07  -0.09  -0.09
   9   1     0.00   0.02   0.00    -0.01  -0.00  -0.02     0.05   0.01  -0.17
  10   1    -0.00   0.00  -0.04     0.08   0.04   0.05     0.02   0.08  -0.07
  11   1    -0.02   0.01   0.02     0.08  -0.04   0.04     0.03  -0.07  -0.09
  12   1    -0.11   0.01  -0.14    -0.11   0.02  -0.20    -0.29   0.03  -0.41
  13   1     0.15   0.01   0.20    -0.10   0.00  -0.24    -0.29  -0.01  -0.42
  14   1    -0.06  -0.53  -0.01     0.70  -0.06   0.12    -0.32  -0.00  -0.06
  15   1     0.20   0.12  -0.22     0.05   0.11  -0.04    -0.06  -0.08   0.06
  16   1    -0.05  -0.05   0.04    -0.03  -0.04   0.00    -0.06  -0.04   0.05
  17   1     0.06  -0.03  -0.09     0.05  -0.03  -0.03    -0.05   0.03   0.05
  18   1    -0.14   0.04   0.13     0.07  -0.05  -0.05    -0.01   0.00   0.01
  19   1     0.00   0.06  -0.00    -0.02  -0.01   0.00    -0.00  -0.01  -0.00
  20   1    -0.00   0.02  -0.00     0.02   0.00   0.00    -0.02  -0.05  -0.01
  21   1    -0.06  -0.03   0.08     0.03   0.03  -0.01    -0.11  -0.08   0.09
  22   1     0.12   0.03  -0.11     0.11   0.07  -0.09    -0.05  -0.04   0.03
  23   1    -0.22   0.15   0.23    -0.02  -0.06   0.04    -0.10   0.10   0.09
  24   1     0.07  -0.07  -0.05    -0.05   0.05   0.01    -0.09   0.06   0.08
                     37                     38                     39
                        a                      a                      a 
 Frequencies --  1330.7268              1346.3309              1351.1512
 Red. masses --     3.8845                 4.2264                 4.6763
 Frc consts  --     0.0000                 0.0000                 0.0000
 IR Inten    --     0.9606                 0.2673                 2.6435
 Raman Activ --     0.0000                 0.0000                 0.0000
 Depolar     --     0.0000                 0.0000                 0.0000
 Atom AN      X      Y      Z        X      Y      Z        X      Y      Z
   1   7    -0.01  -0.00   0.02    -0.01  -0.01  -0.00     0.00   0.00  -0.01
   2   6     0.03   0.00   0.03     0.01  -0.02  -0.01     0.01   0.00  -0.05
   3   6     0.01   0.02   0.00    -0.03   0.17  -0.01    -0.13  -0.02  -0.05
   4   6     0.06   0.12  -0.08     0.18   0.04  -0.14    -0.06   0.05   0.03
   5   6     0.20  -0.14  -0.16    -0.11   0.11   0.11     0.29  -0.20  -0.18
   6   6     0.00  -0.22   0.00    -0.01  -0.24   0.01    -0.10   0.00   0.14
   7   6    -0.20  -0.14   0.16     0.16   0.14  -0.14     0.24   0.18  -0.15
   8   6    -0.04   0.10   0.06    -0.17   0.02   0.14    -0.02  -0.06   0.00
   9   1     0.01   0.01  -0.02    -0.00  -0.01   0.01    -0.01   0.01   0.02
  10   1     0.00   0.01  -0.01     0.01   0.00   0.00     0.02   0.01   0.01
  11   1    -0.00  -0.00  -0.01     0.01  -0.01   0.00     0.01  -0.00   0.00
  12   1    -0.04   0.01  -0.06    -0.03   0.01  -0.03     0.05   0.00   0.07
  13   1    -0.03   0.00  -0.05     0.03   0.00   0.03     0.04  -0.00   0.05
  14   1    -0.03  -0.07  -0.00     0.06  -0.31   0.01     0.18   0.03   0.03
  15   1    -0.10  -0.08   0.09    -0.20  -0.12   0.18     0.11   0.08  -0.10
  16   1    -0.15  -0.09   0.16    -0.11  -0.11   0.08    -0.08  -0.03   0.10
  17   1    -0.27   0.20   0.17     0.02  -0.01   0.01    -0.26   0.20   0.16
  18   1    -0.16   0.14   0.11     0.19  -0.18  -0.13    -0.28   0.21   0.21
  19   1    -0.00   0.12  -0.00    -0.00   0.40  -0.00     0.03  -0.02  -0.01
  20   1    -0.01   0.41  -0.00    -0.01   0.04  -0.00    -0.09   0.02  -0.02
  21   1     0.26   0.20  -0.17    -0.07  -0.05   0.04    -0.23  -0.18   0.17
  22   1     0.17   0.15  -0.12    -0.22  -0.21   0.16    -0.23  -0.17   0.17
  23   1     0.07  -0.05  -0.06     0.21  -0.13  -0.18     0.06  -0.05  -0.05
  24   1     0.13  -0.08  -0.15     0.08  -0.09  -0.05    -0.11   0.06   0.12
                     40                     41                     42
                        a                      a                      a 
 Frequencies --  1357.8908              1359.8788              1384.6709
 Red. masses --     4.5800                 4.1791                 2.9521
 Frc consts  --     0.0000                 0.0000                 0.0000
 IR Inten    --     1.0669                 7.9270               186.8409
 Raman Activ --     0.0000                 0.0000                 0.0000
 Depolar     --     0.0000                 0.0000                 0.0000
 Atom AN      X      Y      Z        X      Y      Z        X      Y      Z
   1   7     0.01  -0.01  -0.04     0.02   0.01  -0.13     0.07  -0.00   0.34
   2   6     0.00  -0.00  -0.02    -0.02   0.00  -0.08    -0.04   0.00  -0.09
   3   6    -0.05   0.10   0.04    -0.11  -0.04   0.12    -0.10  -0.01   0.03
   4   6     0.19   0.15  -0.19     0.18   0.10  -0.12     0.06   0.04  -0.02
   5   6    -0.04  -0.16  -0.03    -0.04  -0.00   0.01    -0.02  -0.00  -0.00
   6   6    -0.01   0.41  -0.01    -0.00  -0.13  -0.03    -0.00  -0.00  -0.02
   7   6     0.03  -0.11   0.02    -0.06   0.10  -0.00    -0.02   0.00  -0.01
   8   6    -0.03   0.04   0.07     0.27  -0.17  -0.22     0.06  -0.03  -0.02
   9   1    -0.02   0.03   0.05    -0.05  -0.02   0.14     0.22   0.01  -0.54
  10   1     0.01  -0.02   0.05     0.01  -0.07   0.12    -0.24   0.06  -0.39
  11   1    -0.01   0.02   0.05     0.01   0.06   0.13    -0.20  -0.06  -0.38
  12   1    -0.01   0.01   0.01     0.06   0.02   0.14     0.13  -0.03   0.11
  13   1     0.04  -0.00   0.06     0.04  -0.03   0.12     0.12   0.03   0.11
  14   1     0.04  -0.19   0.02     0.04   0.08   0.04     0.13   0.00   0.04
  15   1    -0.23  -0.17   0.20    -0.22  -0.11   0.20    -0.05  -0.04   0.06
  16   1    -0.23  -0.18   0.20    -0.13  -0.10   0.13    -0.05  -0.04   0.04
  17   1     0.00  -0.04   0.07    -0.06   0.03   0.06     0.00  -0.00   0.03
  18   1    -0.05   0.06   0.03     0.09  -0.06  -0.07     0.03  -0.04  -0.02
  19   1    -0.01  -0.43   0.01    -0.04   0.14   0.02    -0.01  -0.00   0.00
  20   1    -0.00  -0.36  -0.00    -0.01   0.12  -0.01     0.00   0.00  -0.00
  21   1    -0.05  -0.07  -0.01    -0.04   0.00   0.08     0.00   0.00   0.03
  22   1     0.08   0.07  -0.05     0.05   0.02  -0.04     0.03   0.04  -0.02
  23   1     0.04  -0.06  -0.03    -0.33   0.20   0.29    -0.06   0.03   0.05
  24   1     0.09  -0.07  -0.06    -0.26   0.19   0.23    -0.05   0.04   0.04
                     43                     44                     45
                        a                      a                      a 
 Frequencies --  1416.6080              1427.8401              1477.1717
 Red. masses --     1.6714                 1.6379                 1.8351
 Frc consts  --     0.0000                 0.0000                 0.0000
 IR Inten    --    99.6872                66.8778                18.4934
 Raman Activ --     0.0000                 0.0000                 0.0000
 Depolar     --     0.0000                 0.0000                 0.0000
 Atom AN      X      Y      Z        X      Y      Z        X      Y      Z
   1   7     0.18   0.02  -0.07    -0.02   0.22  -0.00    -0.02   0.00  -0.00
   2   6     0.09   0.00   0.05    -0.00   0.03   0.00    -0.22  -0.02   0.14
   3   6    -0.02   0.00  -0.03     0.00   0.01  -0.00    -0.00   0.00   0.01
   4   6    -0.01  -0.01   0.01     0.00  -0.00  -0.01     0.01  -0.02  -0.03
   5   6     0.00   0.02  -0.02     0.00  -0.02   0.01     0.00  -0.00  -0.00
   6   6     0.01  -0.00   0.00     0.00   0.01   0.00     0.02  -0.00  -0.00
   7   6     0.01  -0.01  -0.02     0.00  -0.01  -0.01     0.00   0.00  -0.00
   8   6    -0.01   0.01   0.01    -0.01  -0.00   0.01     0.01   0.03  -0.04
   9   1     0.09  -0.01  -0.19     0.04  -0.75  -0.01    -0.02  -0.00   0.03
  10   1    -0.44  -0.43   0.24    -0.33  -0.07  -0.22     0.01  -0.01   0.05
  11   1    -0.47   0.33   0.30     0.40  -0.07   0.23     0.01   0.01   0.05
  12   1    -0.07   0.02  -0.09    -0.01   0.00  -0.03     0.43  -0.37  -0.33
  13   1    -0.06  -0.01  -0.09     0.00  -0.01   0.04     0.39   0.44  -0.30
  14   1     0.02  -0.00  -0.00    -0.01  -0.01  -0.00    -0.01   0.00   0.00
  15   1     0.02   0.03  -0.02    -0.01   0.00   0.00    -0.05   0.07   0.02
  16   1     0.01   0.01  -0.00     0.00   0.00   0.01     0.02   0.03   0.08
  17   1     0.03  -0.01   0.05    -0.02   0.01  -0.03     0.00  -0.00   0.02
  18   1    -0.03  -0.03   0.03     0.00   0.04  -0.00    -0.01  -0.01   0.01
  19   1    -0.00   0.01   0.00     0.00  -0.02   0.00    -0.03   0.00   0.02
  20   1    -0.00   0.00  -0.00    -0.00  -0.01  -0.00    -0.03   0.00  -0.02
  21   1     0.02   0.01   0.03     0.01   0.01   0.03     0.00   0.00   0.01
  22   1    -0.04   0.01   0.03    -0.01   0.03   0.01    -0.01   0.01   0.00
  23   1     0.02  -0.03  -0.02     0.01  -0.00  -0.01    -0.07  -0.10   0.03
  24   1     0.01  -0.01  -0.00     0.01  -0.00  -0.01     0.04  -0.04   0.11
                     46                     47                     48
                        a                      a                      a 
 Frequencies --  1502.0522              1502.2037              1510.8154
 Red. masses --     1.8648                 1.9188                 1.8590
 Frc consts  --     0.0000                 0.0000                 0.0000
 IR Inten    --     7.1452                 9.2446                 3.4256
 Raman Activ --     0.0000                 0.0000                 0.0000
 Depolar     --     0.0000                 0.0000                 0.0000
 Atom AN      X      Y      Z        X      Y      Z        X      Y      Z
   1   7    -0.00   0.00   0.00     0.00  -0.00   0.01     0.01   0.00  -0.00
   2   6    -0.01  -0.00   0.00     0.04   0.00  -0.01    -0.04  -0.00   0.01
   3   6    -0.00  -0.04   0.00     0.01  -0.00  -0.01    -0.00  -0.00   0.01
   4   6     0.01  -0.14  -0.12    -0.01  -0.10  -0.06    -0.00   0.12   0.10
   5   6     0.00   0.02  -0.04     0.01  -0.00   0.01     0.01  -0.03   0.05
   6   6    -0.01   0.02  -0.00     0.24   0.00  -0.01     0.14   0.00  -0.01
   7   6    -0.00   0.02   0.04     0.01   0.01   0.01     0.01   0.04   0.05
   8   6    -0.00  -0.15   0.13    -0.01   0.08  -0.05    -0.00  -0.11   0.09
   9   1     0.00  -0.01  -0.00     0.00   0.00  -0.01     0.00  -0.01  -0.00
  10   1    -0.00  -0.00   0.00     0.00   0.01  -0.02    -0.02  -0.02   0.02
  11   1     0.01  -0.00  -0.01     0.00  -0.01  -0.02    -0.02   0.02   0.03
  12   1     0.02  -0.02  -0.01    -0.07   0.06   0.05     0.07  -0.06  -0.05
  13   1     0.01   0.01  -0.01    -0.07  -0.07   0.04     0.06   0.07  -0.05
  14   1     0.00   0.01   0.00    -0.02  -0.00  -0.01     0.03   0.00   0.01
  15   1    -0.22   0.38   0.07    -0.12   0.23   0.03     0.19  -0.33  -0.05
  16   1     0.21   0.19   0.36     0.13   0.12   0.21    -0.18  -0.17  -0.31
  17   1     0.05  -0.03   0.10    -0.00   0.00  -0.04    -0.06   0.04  -0.13
  18   1    -0.05  -0.08   0.03     0.01   0.02  -0.01     0.07   0.12  -0.04
  19   1     0.01  -0.02  -0.01    -0.43  -0.00   0.36    -0.26   0.00   0.22
  20   1     0.01  -0.01   0.01    -0.46  -0.01  -0.33    -0.27  -0.00  -0.19
  21   1    -0.05  -0.04  -0.10    -0.01  -0.01  -0.04    -0.07  -0.05  -0.15
  22   1     0.05  -0.08  -0.03     0.02  -0.03  -0.01     0.08  -0.14  -0.04
  23   1     0.23   0.41  -0.08    -0.10  -0.20   0.03     0.17   0.31  -0.05
  24   1    -0.23   0.20  -0.39     0.12  -0.10   0.18    -0.17   0.15  -0.29
                     49                     50                     51
                        a                      a                      a 
 Frequencies --  1514.5360              1521.9406              2841.3725
 Red. masses --     1.9755                 1.9871                 1.7677
 Frc consts  --     0.0000                 0.0000                 0.0000
 IR Inten    --     3.2069                 7.3629                 7.5337
 Raman Activ --     0.0000                 0.0000                 0.0000
 Depolar     --     0.0000                 0.0000                 0.0000
 Atom AN      X      Y      Z        X      Y      Z        X      Y      Z
   1   7    -0.00   0.02   0.00     0.02   0.00   0.00    -0.00  -0.00   0.00
   2   6     0.00   0.00  -0.00     0.01  -0.00   0.01    -0.01   0.00  -0.01
   3   6     0.00  -0.01  -0.00    -0.00   0.00  -0.01     0.05  -0.00  -0.26
   4   6    -0.01   0.04   0.02     0.01  -0.05  -0.03     0.01   0.00   0.00
   5   6     0.01   0.12  -0.15     0.01  -0.14   0.15    -0.00   0.00   0.00
   6   6    -0.01   0.00   0.00    -0.08  -0.00   0.01    -0.00  -0.00   0.00
   7   6    -0.01   0.14   0.16     0.00   0.13   0.13     0.00   0.00   0.00
   8   6     0.01   0.05  -0.03     0.00   0.04  -0.03     0.01  -0.00   0.00
   9   1     0.00  -0.05  -0.00     0.01   0.00  -0.03    -0.00  -0.00  -0.00
  10   1    -0.02   0.00  -0.03    -0.05  -0.03  -0.00     0.00  -0.00  -0.00
  11   1     0.04  -0.01   0.01    -0.06   0.03   0.00     0.00   0.00   0.00
  12   1    -0.00   0.01   0.01    -0.01   0.00  -0.00     0.01   0.02  -0.00
  13   1    -0.01  -0.01   0.00    -0.01  -0.00  -0.00     0.01  -0.02  -0.01
  14   1    -0.00   0.01  -0.00    -0.01  -0.00  -0.00    -0.18   0.00   0.95
  15   1     0.05  -0.07  -0.02    -0.07   0.10   0.03    -0.03  -0.01  -0.03
  16   1    -0.04  -0.03  -0.07     0.05   0.04   0.10     0.00   0.00   0.00
  17   1     0.19  -0.10   0.40    -0.21   0.12  -0.42     0.00   0.00  -0.00
  18   1    -0.21  -0.36   0.13     0.22   0.38  -0.14    -0.00  -0.00  -0.00
  19   1     0.02  -0.00  -0.01     0.12   0.00  -0.10     0.00   0.00   0.00
  20   1     0.02   0.02   0.01     0.12   0.00   0.10     0.00  -0.00  -0.01
  21   1    -0.20  -0.13  -0.43    -0.19  -0.12  -0.37     0.00  -0.00  -0.00
  22   1     0.23  -0.39  -0.13     0.20  -0.35  -0.11    -0.00  -0.00  -0.01
  23   1    -0.07  -0.10   0.03    -0.05  -0.09   0.02    -0.03   0.01  -0.03
  24   1     0.06  -0.04   0.11     0.05  -0.04   0.09     0.00  -0.00   0.00
                     52                     53                     54
                        a                      a                      a 
 Frequencies --  2905.3638              2909.5778              2917.9248
 Red. masses --     1.9429                 1.9163                 1.8893
 Frc consts  --     0.0000                 0.0000                 0.0000
 IR Inten    --    18.0642                64.8593                17.6085
 Raman Activ --     0.0000                 0.0000                 0.0000
 Depolar     --     0.0000                 0.0000                 0.0000
 Atom AN      X      Y      Z        X      Y      Z        X      Y      Z
   1   7    -0.00   0.01   0.00    -0.00  -0.00   0.00     0.00   0.00  -0.00
   2   6     0.00  -0.00  -0.00     0.00  -0.00   0.00     0.00  -0.00   0.00
   3   6    -0.00   0.00  -0.00    -0.00  -0.00  -0.00    -0.00  -0.00  -0.00
   4   6     0.01  -0.00   0.01    -0.04   0.02  -0.03    -0.02   0.01  -0.02
   5   6    -0.10  -0.07  -0.07     0.17   0.13   0.11     0.02   0.04   0.00
   6   6    -0.00  -0.00  -0.02    -0.00   0.00  -0.06    -0.07   0.00   0.26
   7   6     0.18  -0.11   0.13     0.09  -0.06   0.06     0.02  -0.04   0.00
   8   6    -0.03  -0.02  -0.03    -0.03  -0.02  -0.02    -0.02  -0.01  -0.02
   9   1     0.00  -0.00   0.00     0.00   0.00  -0.00    -0.00  -0.00  -0.00
  10   1     0.02  -0.03  -0.02     0.00  -0.01  -0.01    -0.00   0.00   0.00
  11   1    -0.01  -0.02   0.01     0.00   0.02  -0.01    -0.00  -0.00   0.00
  12   1     0.00   0.00  -0.00    -0.00  -0.01   0.00    -0.00  -0.00  -0.00
  13   1    -0.01   0.01   0.00    -0.00   0.01   0.00    -0.00   0.00   0.00
  14   1    -0.00  -0.00   0.00    -0.00   0.00   0.01    -0.00   0.00   0.00
  15   1    -0.03  -0.01  -0.05     0.08   0.03   0.12     0.04   0.01   0.05
  16   1    -0.01   0.02   0.00     0.08  -0.10   0.00     0.03  -0.04   0.00
  17   1     0.17   0.25  -0.02    -0.33  -0.48   0.04    -0.11  -0.15   0.00
  18   1     0.19  -0.01   0.27    -0.31   0.02  -0.46     0.02   0.01   0.02
  19   1     0.04   0.01   0.04     0.12   0.00   0.15    -0.24  -0.01  -0.26
  20   1    -0.02   0.00   0.03    -0.07  -0.00   0.09     0.48  -0.00  -0.69
  21   1    -0.31   0.44   0.03    -0.17   0.24   0.01    -0.11   0.15   0.00
  22   1    -0.35  -0.05  -0.51    -0.16  -0.02  -0.24     0.02  -0.00   0.02
  23   1     0.07  -0.02   0.11     0.05  -0.01   0.07     0.04  -0.01   0.05
  24   1     0.05   0.07  -0.00     0.05   0.07   0.00     0.03   0.04   0.00
                     55                     56                     57
                        a                      a                      a 
 Frequencies --  2924.0525              2926.4810              2941.6121
 Red. masses --     1.9102                 1.8711                 1.5532
 Frc consts  --     0.0000                 0.0000                 0.0000
 IR Inten    --    21.6019                26.2812                32.3010
 Raman Activ --     0.0000                 0.0000                 0.0000
 Depolar     --     0.0000                 0.0000                 0.0000
 Atom AN      X      Y      Z        X      Y      Z        X      Y      Z
   1   7     0.00  -0.00  -0.00    -0.00   0.00   0.00    -0.00   0.02   0.00
   2   6     0.00  -0.02  -0.00     0.00   0.00  -0.00     0.01  -0.04  -0.00
   3   6    -0.00   0.01  -0.00    -0.01  -0.00  -0.01     0.00  -0.00   0.00
   4   6    -0.16   0.11  -0.08    -0.13   0.10  -0.06    -0.02   0.01  -0.02
   5   6    -0.03  -0.04   0.01    -0.03  -0.04   0.01     0.01   0.07  -0.06
   6   6     0.00  -0.00   0.00     0.02   0.00   0.01    -0.01   0.01   0.02
   7   6     0.03  -0.03  -0.01    -0.04   0.05   0.01    -0.01   0.13   0.12
   8   6     0.14   0.10   0.07    -0.15  -0.11  -0.07     0.05   0.03   0.03
   9   1     0.00  -0.00   0.00    -0.00   0.00   0.00     0.00   0.00   0.00
  10   1    -0.00   0.00  -0.00     0.00  -0.01  -0.00     0.02  -0.04  -0.02
  11   1     0.00   0.00   0.00     0.00   0.01   0.00    -0.01  -0.02   0.01
  12   1     0.02   0.04  -0.01    -0.00  -0.01   0.00     0.04   0.07  -0.02
  13   1    -0.02   0.03   0.02    -0.00   0.01   0.00    -0.06   0.08   0.04
  14   1    -0.00   0.00   0.00    -0.00   0.00   0.02     0.00   0.00  -0.00
  15   1     0.18   0.07   0.25     0.13   0.06   0.19     0.05   0.01   0.06
  16   1     0.39  -0.47   0.03     0.34  -0.42   0.03     0.03  -0.03   0.00
  17   1     0.11   0.16  -0.00     0.13   0.18  -0.00    -0.18  -0.25  -0.00
  18   1    -0.03  -0.01  -0.03    -0.03  -0.01  -0.03     0.17   0.01   0.23
  19   1    -0.00  -0.00  -0.00    -0.04  -0.00  -0.06     0.01   0.00   0.01
  20   1    -0.00   0.00   0.00    -0.02   0.00   0.04     0.05   0.00  -0.07
  21   1    -0.11   0.14  -0.00     0.16  -0.21   0.00     0.37  -0.47   0.02
  22   1     0.02  -0.00   0.03    -0.03   0.01  -0.04    -0.34  -0.01  -0.47
  23   1    -0.17   0.06  -0.24     0.17  -0.06   0.24    -0.07   0.02  -0.09
  24   1    -0.33  -0.42  -0.02     0.36   0.47   0.02    -0.11  -0.13  -0.01
                     58                     59                     60
                        a                      a                      a 
 Frequencies --  2945.4928              2952.5989              2956.5557
 Red. masses --     1.5302                 1.9638                 1.5737
 Frc consts  --     0.0000                 0.0000                 0.0000
 IR Inten    --    82.6638                 5.4648                34.3453
 Raman Activ --     0.0000                 0.0000                 0.0000
 Depolar     --     0.0000                 0.0000                 0.0000
 Atom AN      X      Y      Z        X      Y      Z        X      Y      Z
   1   7     0.00   0.00  -0.00     0.00   0.00  -0.00    -0.00   0.00   0.00
   2   6    -0.01  -0.01   0.00     0.02  -0.29  -0.02     0.00   0.01   0.00
   3   6    -0.00  -0.00  -0.00     0.00  -0.01  -0.00     0.00   0.00  -0.01
   4   6    -0.04   0.04  -0.01     0.02   0.00   0.02    -0.01  -0.04  -0.04
   5   6    -0.01   0.11  -0.13     0.00  -0.01   0.02     0.02  -0.00   0.02
   6   6     0.06   0.00  -0.03     0.00  -0.00  -0.00     0.17   0.00   0.09
   7   6    -0.00  -0.05  -0.06    -0.00  -0.01  -0.02     0.02   0.01   0.02
   8   6    -0.02  -0.03   0.00    -0.02   0.00  -0.02    -0.01   0.06  -0.07
   9   1     0.00   0.00   0.00    -0.00   0.00  -0.00    -0.00   0.00  -0.00
  10   1    -0.01   0.02   0.01     0.01  -0.01  -0.01     0.00  -0.00  -0.00
  11   1    -0.01  -0.03   0.01    -0.01  -0.01   0.00     0.00   0.01  -0.00
  12   1     0.03   0.05  -0.02     0.31   0.51  -0.18    -0.01  -0.01   0.00
  13   1    -0.00   0.00   0.00    -0.39   0.52   0.25     0.01  -0.01  -0.00
  14   1    -0.00   0.00   0.01    -0.00   0.00   0.01    -0.00   0.00   0.03
  15   1     0.00   0.01   0.01    -0.06  -0.02  -0.07     0.13   0.03   0.17
  16   1     0.13  -0.16   0.01    -0.01   0.02   0.00    -0.11   0.12  -0.02
  17   1    -0.32  -0.42  -0.01     0.03   0.04   0.00     0.01   0.00   0.00
  18   1     0.37   0.01   0.50    -0.04  -0.00  -0.06    -0.06  -0.00  -0.09
  19   1    -0.07  -0.00  -0.11    -0.00  -0.00  -0.00    -0.45  -0.01  -0.60
  20   1    -0.14   0.00   0.22    -0.00   0.00   0.00    -0.16   0.00   0.29
  21   1    -0.15   0.19  -0.01    -0.03   0.04  -0.00     0.01  -0.01   0.00
  22   1     0.17   0.01   0.23     0.05   0.00   0.06    -0.05  -0.00  -0.08
  23   1    -0.03   0.00  -0.03     0.06  -0.02   0.08     0.20  -0.04   0.26
  24   1     0.09   0.11   0.01     0.01   0.01  -0.00    -0.16  -0.19  -0.02
                     61                     62                     63
                        a                      a                      a 
 Frequencies --  2958.4824              2960.3785              2978.3442
 Red. masses --     1.5640                 1.6265                 1.5200
 Frc consts  --     0.0000                 0.0000                 0.0000
 IR Inten    --    38.1858                60.2686                 8.3618
 Raman Activ --     0.0000                 0.0000                 0.0000
 Depolar     --     0.0000                 0.0000                 0.0000
 Atom AN      X      Y      Z        X      Y      Z        X      Y      Z
   1   7    -0.00  -0.00   0.00     0.00  -0.00  -0.00     0.00   0.00   0.00
   2   6     0.00  -0.03  -0.00     0.00  -0.01  -0.00    -0.18  -0.03   0.11
   3   6     0.00  -0.01   0.00    -0.00  -0.00  -0.01    -0.01  -0.00   0.01
   4   6    -0.02  -0.08  -0.08    -0.06  -0.09  -0.14     0.00  -0.00  -0.00
   5   6    -0.00  -0.02   0.01    -0.03  -0.00  -0.05     0.00  -0.00   0.01
   6   6     0.04   0.00   0.03    -0.08  -0.00  -0.06    -0.00   0.00   0.00
   7   6     0.02  -0.02   0.02    -0.02  -0.01  -0.03     0.00   0.00   0.01
   8   6     0.04  -0.11   0.14    -0.04   0.04  -0.07    -0.00  -0.00  -0.00
   9   1     0.00  -0.00   0.00    -0.00  -0.00  -0.00    -0.00  -0.00   0.00
  10   1     0.00  -0.00  -0.00    -0.00   0.01   0.00    -0.01   0.02   0.01
  11   1     0.00   0.00  -0.00    -0.00  -0.01   0.00    -0.01  -0.02   0.01
  12   1     0.03   0.05  -0.02     0.01   0.02  -0.01     0.32   0.62  -0.19
  13   1    -0.04   0.06   0.03    -0.01   0.01   0.01     0.33  -0.52  -0.22
  14   1     0.00  -0.00  -0.01    -0.01  -0.00   0.04     0.00  -0.00  -0.03
  15   1     0.26   0.06   0.33     0.43   0.11   0.55     0.00   0.00   0.00
  16   1    -0.19   0.21  -0.03    -0.21   0.22  -0.04    -0.00   0.00   0.00
  17   1     0.04   0.06  -0.00    -0.00   0.00  -0.01     0.01   0.01   0.00
  18   1    -0.03  -0.00  -0.05     0.11  -0.00   0.15    -0.02  -0.00  -0.02
  19   1    -0.12  -0.00  -0.16     0.23   0.01   0.30    -0.00  -0.00  -0.00
  20   1    -0.03  -0.00   0.06     0.05  -0.00  -0.09     0.00   0.00  -0.01
  21   1    -0.04   0.06   0.00    -0.01   0.01  -0.00     0.01  -0.01   0.00
  22   1    -0.04  -0.00  -0.05     0.08   0.01   0.12    -0.02  -0.00  -0.02
  23   1    -0.41   0.09  -0.53     0.21  -0.05   0.28     0.00  -0.00   0.00
  24   1     0.26   0.30   0.04    -0.08  -0.09  -0.02     0.00   0.01   0.00
                     64                     65                     66
                        a                      a                      a 
 Frequencies --  3194.5070              3198.1454              3222.1155
 Red. masses --     2.0265                 2.0530                 1.2827
 Frc consts  --     0.0000                 0.0000                 0.0000
 IR Inten    --   127.8483                99.0410                30.7067
 Raman Activ --     0.0000                 0.0000                 0.0000
 Depolar     --     0.0000                 0.0000                 0.0000
 Atom AN      X      Y      Z        X      Y      Z        X      Y      Z
   1   7    -0.26   0.10   0.02     0.09   0.27   0.02     0.01  -0.03   0.14
   2   6    -0.01   0.00   0.00     0.00   0.01  -0.00    -0.00  -0.00   0.01
   3   6     0.00   0.00   0.00    -0.00   0.00   0.00    -0.00  -0.00   0.00
   4   6     0.00  -0.00  -0.00    -0.00  -0.00   0.00     0.00   0.00   0.00
   5   6    -0.00  -0.00  -0.00     0.01  -0.00   0.01    -0.00   0.00  -0.01
   6   6     0.00  -0.00   0.00    -0.00  -0.00  -0.00     0.00   0.00   0.00
   7   6    -0.01  -0.00  -0.01    -0.01  -0.00  -0.01    -0.00  -0.00  -0.01
   8   6     0.00  -0.00  -0.00     0.00  -0.00   0.00     0.00  -0.00   0.00
   9   1     0.64   0.04   0.24    -0.33   0.01  -0.12    -0.56  -0.03  -0.19
  10   1     0.31  -0.51  -0.27     0.27  -0.36  -0.20     0.26  -0.39  -0.19
  11   1     0.02   0.11  -0.04    -0.29  -0.64   0.23     0.24   0.53  -0.17
  12   1     0.00   0.01  -0.00    -0.01  -0.02   0.01     0.01   0.02  -0.01
  13   1     0.01  -0.02  -0.01     0.01  -0.01  -0.00     0.01  -0.01  -0.01
  14   1    -0.00  -0.00  -0.00     0.00  -0.00  -0.00    -0.00   0.00  -0.00
  15   1     0.00  -0.00   0.00     0.00  -0.00   0.00    -0.00  -0.00  -0.00
  16   1    -0.00   0.00   0.00    -0.00   0.00   0.00     0.00  -0.00  -0.00
  17   1    -0.00  -0.00  -0.00     0.01   0.01   0.00    -0.01  -0.01  -0.00
  18   1     0.00   0.00   0.00    -0.03  -0.00  -0.03     0.02   0.00   0.02
  19   1     0.00   0.00   0.00     0.00   0.00   0.00    -0.00   0.00  -0.00
  20   1    -0.00  -0.00   0.00    -0.00  -0.00   0.00    -0.00   0.00   0.00
  21   1    -0.01   0.01  -0.00    -0.00   0.01  -0.00    -0.00   0.01  -0.00
  22   1     0.03   0.00   0.04     0.03   0.00   0.03     0.02  -0.00   0.02
  23   1    -0.00   0.00   0.00    -0.00  -0.00  -0.00    -0.00   0.00  -0.00
  24   1    -0.00  -0.00  -0.00     0.00   0.00  -0.00     0.00   0.00   0.00
