 Entering Gaussian System
 *********************************************
 Gaussian 98:
 frequency output generated by the xtb code
 *********************************************
                         Standard orientation:
 --------------------------------------------------------------------
  Center     Atomic     Atomic              Coordinates (Angstroms)
  Number     Number      Type              X           Y           Z
 --------------------------------------------------------------------
    1          7             0       -1.921997   -1.077240   -0.240901
    2          6             0       -2.060818    0.357581    0.142117
    3          6             0       -0.898415    1.237894   -0.338969
    4          6             0        0.411547    1.099289    0.462367
    5          6             0        1.221930   -0.123706    0.131756
    6          8             0        2.440529    0.079857   -0.395589
    7          8             0        0.774315   -1.224144    0.336349
    8          1             0       -0.956777   -1.364015   -0.003344
    9          1             0       -2.050381   -1.219392   -1.252901
   10          1             0       -2.583858   -1.690516    0.257442
   11          1             0       -2.146434    0.432763    1.234457
   12          1             0       -3.017277    0.727865   -0.253831
   13          1             0       -1.218309    2.289366   -0.312850
   14          1             0       -0.695090    1.025611   -1.395639
   15          1             0        0.201651    1.100722    1.537188
   16          1             0        1.059951    1.966695    0.282313
   17          1             0        2.882734   -0.773296   -0.538759
 --------------------------------------------------------------------
     1 basis functions        1 primitive gaussians
     1 alpha electrons        1 beta electrons

 Harmonic frequencies (cm**-1), IR intensities (km*mol⁻¹),
 Raman scattering activities (A**4/amu), Raman depolarization ratios,
 reduced masses (AMU), force constants (mDyne/A) and normal coordinates:
                      1                      2                      3
                        a                      a                      a 
 Frequencies --    73.4342               128.6689               194.8139
 Red. masses --    13.3274                 8.6885                11.5594
 Frc consts  --     0.0000                 0.0000                 0.0000
 IR Inten    --    16.8188                 1.5616                79.4341
 Raman Activ --     0.0000                 0.0000                 0.0000
 Depolar     --     0.0000                 0.0000                 0.0000
 Atom AN      X      Y      Z        X      Y      Z        X      Y      Z
   1   7     0.13   0.04  -0.33     0.10   0.05   0.29     0.58  -0.08   0.13
   2   6     0.05  -0.05  -0.02    -0.11   0.19  -0.35     0.09  -0.08  -0.07
   3   6    -0.03   0.12   0.13     0.13   0.02  -0.06    -0.04   0.19   0.09
   4   6     0.01   0.01   0.03    -0.12  -0.21   0.33     0.01   0.12  -0.01
   5   6    -0.05  -0.04   0.05    -0.01  -0.06   0.02    -0.17   0.03  -0.04
   6   8    -0.25  -0.08  -0.43    -0.17   0.16  -0.23    -0.14  -0.24   0.05
   7   8     0.13  -0.00   0.64     0.18  -0.16  -0.02    -0.43   0.08  -0.18
   8   1    -0.01  -0.03   0.03     0.02   0.05   0.15     0.18   0.07   0.12
   9   1     0.16   0.09  -0.12     0.08  -0.11   0.09     0.25  -0.07   0.03
  10   1    -0.05  -0.01  -0.22     0.01   0.05   0.11     0.17  -0.05   0.01
  11   1     0.02  -0.08   0.00    -0.18   0.17  -0.12    -0.04   0.00  -0.03
  12   1     0.00  -0.01   0.02     0.02   0.01  -0.27     0.02  -0.10  -0.08
  13   1    -0.02   0.03   0.12     0.07   0.02  -0.05    -0.05   0.04   0.10
  14   1    -0.02   0.11   0.02     0.11  -0.01  -0.00    -0.02   0.13   0.01
  15   1     0.02   0.00   0.01    -0.13  -0.18   0.08     0.03   0.05   0.00
  16   1     0.01  -0.01   0.00    -0.03  -0.04   0.24     0.02   0.02  -0.02
  17   1    -0.06  -0.02  -0.10    -0.03   0.06  -0.13    -0.08  -0.08   0.00
                      4                      5                      6
                        a                      a                      a 
 Frequencies --   232.9562               310.4954               324.3534
 Red. masses --    10.5374                 9.6966                 2.2870
 Frc consts  --     0.0000                 0.0000                 0.0000
 IR Inten    --     5.9263                14.6558                 0.2816
 Raman Activ --     0.0000                 0.0000                 0.0000
 Depolar     --     0.0000                 0.0000                 0.0000
 Atom AN      X      Y      Z        X      Y      Z        X      Y      Z
   1   7    -0.15  -0.19  -0.08    -0.28  -0.22   0.05    -0.04   0.04   0.09
   2   6     0.27  -0.13  -0.03    -0.24  -0.09  -0.26     0.03   0.00   0.13
   3   6     0.34  -0.21  -0.06    -0.04   0.04   0.31     0.05  -0.15  -0.07
   4   6     0.13   0.18   0.33     0.18   0.11   0.04     0.01   0.00  -0.01
   5   6    -0.03   0.16   0.16     0.19   0.13  -0.07    -0.01  -0.00  -0.01
   6   8    -0.18   0.00  -0.19     0.31  -0.20  -0.09     0.00   0.11   0.06
   7   8    -0.32   0.26  -0.04    -0.02   0.27   0.01    -0.05  -0.01  -0.15
   8   1    -0.04  -0.09  -0.09    -0.11  -0.06   0.13    -0.17  -0.14   0.47
   9   1    -0.14  -0.06  -0.01     0.04  -0.12   0.01     0.52   0.12  -0.06
  10   1    -0.03  -0.01   0.05    -0.16  -0.00  -0.03    -0.38   0.08  -0.39
  11   1     0.11  -0.05  -0.01    -0.25   0.01  -0.09     0.03  -0.00   0.04
  12   1     0.08   0.01   0.03     0.01  -0.01  -0.25     0.01   0.01   0.05
  13   1     0.06  -0.07  -0.17    -0.05  -0.00   0.22     0.03  -0.04  -0.11
  14   1     0.19  -0.18   0.02    -0.01   0.15   0.06     0.02  -0.14  -0.00
  15   1    -0.02   0.05   0.08     0.13   0.02   0.03     0.00   0.03  -0.01
  16   1     0.03   0.06   0.11    -0.00   0.06  -0.03     0.00  -0.00  -0.02
  17   1    -0.11  -0.02  -0.15     0.00  -0.09  -0.01     0.00   0.04  -0.04
                      7                      8                      9
                        a                      a                      a 
 Frequencies --   391.4388               453.4569               550.2863
 Red. masses --     9.4462                 6.7453                11.1660
 Frc consts  --     0.0000                 0.0000                 0.0000
 IR Inten    --     3.4554                17.4532                74.4065
 Raman Activ --     0.0000                 0.0000                 0.0000
 Depolar     --     0.0000                 0.0000                 0.0000
 Atom AN      X      Y      Z        X      Y      Z        X      Y      Z
   1   7     0.18   0.23  -0.09     0.11   0.16  -0.08     0.03   0.04   0.00
   2   6    -0.27   0.05   0.16    -0.31   0.05   0.00    -0.02   0.01   0.02
   3   6    -0.14  -0.26  -0.05     0.03  -0.30   0.20     0.13  -0.16   0.09
   4   6    -0.18  -0.06   0.15     0.25   0.09  -0.04     0.16  -0.28  -0.12
   5   6     0.16   0.17  -0.05     0.02  -0.09   0.23     0.01  -0.14  -0.35
   6   8     0.26  -0.31  -0.13    -0.16   0.15  -0.02     0.08   0.34  -0.01
   7   8    -0.01   0.27   0.03    -0.01  -0.15  -0.06    -0.48   0.15   0.27
   8   1     0.09   0.17  -0.04     0.08   0.15  -0.06     0.03   0.06  -0.01
   9   1     0.06   0.12  -0.03     0.01   0.06  -0.02    -0.01   0.01   0.00
  10   1     0.13  -0.07  -0.07     0.13  -0.07  -0.02     0.05  -0.03   0.01
  11   1    -0.07   0.00   0.05    -0.25   0.03  -0.01    -0.06   0.01   0.00
  12   1    -0.08   0.00   0.05    -0.02   0.03  -0.15     0.03   0.03  -0.05
  13   1     0.02  -0.05  -0.20     0.06  -0.07  -0.08     0.07  -0.04   0.05
  14   1    -0.02  -0.26   0.02     0.02  -0.22   0.08     0.00  -0.03   0.02
  15   1    -0.12  -0.17   0.03     0.23   0.32   0.02     0.07  -0.24  -0.03
  16   1    -0.13   0.07   0.19     0.07  -0.04  -0.33     0.02  -0.04   0.07
  17   1    -0.05  -0.14   0.01    -0.02   0.07  -0.13     0.28   0.20   0.15
                     10                     11                     12
                        a                      a                      a 
 Frequencies --   637.8994               726.0391               802.9717
 Red. masses --     6.2946                 7.9835                 8.2787
 Frc consts  --     0.0000                 0.0000                 0.0000
 IR Inten    --    48.1470               196.6332                21.8693
 Raman Activ --     0.0000                 0.0000                 0.0000
 Depolar     --     0.0000                 0.0000                 0.0000
 Atom AN      X      Y      Z        X      Y      Z        X      Y      Z
   1   7    -0.00   0.02   0.02     0.00  -0.01  -0.02     0.01   0.22   0.06
   2   6    -0.03  -0.01  -0.02     0.02   0.00   0.04     0.23  -0.04  -0.04
   3   6    -0.10   0.04  -0.15     0.08  -0.04   0.10     0.11  -0.44   0.06
   4   6    -0.02  -0.18  -0.11     0.05   0.05  -0.06    -0.11  -0.25  -0.20
   5   6     0.29  -0.11   0.34    -0.27   0.07  -0.50    -0.01   0.22   0.12
   6   8     0.22   0.12   0.03    -0.01  -0.02   0.38    -0.22  -0.05   0.05
   7   8    -0.27   0.04   0.04     0.18   0.02   0.15     0.11   0.21  -0.08
   8   1     0.01   0.05   0.03    -0.00  -0.02  -0.03    -0.00  -0.02  -0.05
   9   1     0.01  -0.02   0.01    -0.04   0.02  -0.00    -0.04   0.14   0.01
  10   1     0.02  -0.01   0.02     0.01  -0.01   0.00    -0.03   0.07  -0.01
  11   1     0.10  -0.01   0.01    -0.08   0.01   0.00    -0.04   0.09  -0.02
  12   1    -0.05  -0.01   0.09     0.05   0.01  -0.07     0.14   0.05  -0.14
  13   1    -0.01   0.01   0.14     0.01  -0.01  -0.07     0.01  -0.13   0.39
  14   1    -0.11   0.16  -0.09     0.03  -0.09   0.04    -0.09   0.21  -0.07
  15   1    -0.11   0.00  -0.05     0.08  -0.11  -0.00    -0.06  -0.04  -0.06
  16   1    -0.02  -0.04  -0.01     0.03   0.02   0.04    -0.11  -0.02  -0.09
  17   1    -0.12   0.06  -0.67    -0.33  -0.07  -0.52    -0.17  -0.09   0.10
                     13                     14                     15
                        a                      a                      a 
 Frequencies --   841.8320               857.9649               927.3204
 Red. masses --     3.4264                 7.7236                 6.7347
 Frc consts  --     0.0000                 0.0000                 0.0000
 IR Inten    --    50.1206                20.0839                11.5315
 Raman Activ --     0.0000                 0.0000                 0.0000
 Depolar     --     0.0000                 0.0000                 0.0000
 Atom AN      X      Y      Z        X      Y      Z        X      Y      Z
   1   7     0.09  -0.08   0.06     0.12   0.21  -0.02    -0.08   0.15   0.19
   2   6     0.18  -0.01   0.24     0.27  -0.01  -0.17    -0.07  -0.19  -0.08
   3   6    -0.06   0.13   0.01    -0.18  -0.10   0.18     0.05  -0.20  -0.23
   4   6    -0.07   0.11  -0.11    -0.38  -0.05   0.20     0.03   0.31   0.25
   5   6     0.04  -0.08   0.11    -0.05  -0.08  -0.13    -0.11  -0.11  -0.19
   6   8     0.10   0.01  -0.07     0.29   0.02  -0.08     0.15   0.00  -0.02
   7   8    -0.09  -0.07  -0.00    -0.10  -0.05   0.06    -0.03  -0.18   0.07
   8   1    -0.03  -0.34  -0.22    -0.04  -0.16   0.00     0.03   0.10  -0.08
   9   1    -0.15   0.35  -0.01    -0.08  -0.08   0.03     0.00   0.35   0.00
  10   1    -0.09  -0.01  -0.12    -0.11   0.31   0.13     0.07  -0.22  -0.14
  11   1    -0.39   0.19   0.01     0.10  -0.01  -0.04     0.10   0.16  -0.03
  12   1     0.18  -0.12  -0.37     0.05  -0.02  -0.02    -0.05  -0.08   0.03
  13   1    -0.04   0.03  -0.11    -0.10  -0.04  -0.07    -0.19  -0.12   0.22
  14   1    -0.10  -0.11   0.01     0.10  -0.09   0.09     0.12   0.28  -0.10
  15   1    -0.16  -0.04  -0.06     0.15   0.24   0.10    -0.04   0.14   0.06
  16   1     0.01   0.04   0.10    -0.17  -0.03  -0.29    -0.00   0.08   0.03
  17   1     0.07   0.04  -0.05     0.08   0.02  -0.07     0.12   0.05  -0.04
                     16                     17                     18
                        a                      a                      a 
 Frequencies --   947.8401               987.6522              1052.4387
 Red. masses --     6.7364                 6.2471                 7.3125
 Frc consts  --     0.0000                 0.0000                 0.0000
 IR Inten    --    12.1104                26.0172                99.8432
 Raman Activ --     0.0000                 0.0000                 0.0000
 Depolar     --     0.0000                 0.0000                 0.0000
 Atom AN      X      Y      Z        X      Y      Z        X      Y      Z
   1   7    -0.03  -0.33   0.05     0.16   0.16   0.12    -0.25   0.21   0.16
   2   6    -0.07   0.22   0.08    -0.20  -0.22  -0.15     0.21  -0.39  -0.14
   3   6     0.15   0.16  -0.07    -0.18   0.10  -0.13    -0.02   0.26   0.14
   4   6    -0.22  -0.37   0.13     0.32  -0.20   0.09    -0.13  -0.10  -0.17
   5   6    -0.06   0.10  -0.05     0.07   0.06   0.02     0.17  -0.01   0.08
   6   8     0.08   0.02  -0.02    -0.16   0.00   0.06    -0.12  -0.03   0.03
   7   8    -0.00   0.16   0.01     0.03   0.15  -0.02     0.02   0.04  -0.02
   8   1     0.03  -0.04  -0.09    -0.04  -0.31  -0.12     0.03   0.31   0.03
   9   1     0.01   0.21  -0.03    -0.16   0.22   0.03     0.08   0.18   0.00
  10   1     0.06  -0.32  -0.17    -0.16   0.23  -0.00     0.11  -0.23  -0.07
  11   1     0.04   0.19   0.02     0.12   0.06  -0.03     0.00  -0.07  -0.04
  12   1    -0.05  -0.02   0.02    -0.21  -0.31   0.10     0.12   0.02  -0.07
  13   1     0.17   0.08  -0.01    -0.02   0.03  -0.08    -0.14   0.03  -0.24
  14   1     0.16   0.06  -0.00     0.08  -0.01  -0.01     0.25  -0.11   0.12
  15   1     0.16   0.20   0.07     0.25  -0.13   0.06     0.18  -0.16  -0.00
  16   1    -0.02  -0.19  -0.30     0.11  -0.07  -0.01    -0.08   0.01  -0.04
  17   1    -0.10  -0.07   0.04    -0.08  -0.03   0.04     0.01   0.02  -0.03
                     19                     20                     21
                        a                      a                      a 
 Frequencies --  1061.9343              1101.9301              1129.9774
 Red. masses --     7.1326                 7.7064                 8.2881
 Frc consts  --     0.0000                 0.0000                 0.0000
 IR Inten    --    75.7638                 2.3843               228.7240
 Raman Activ --     0.0000                 0.0000                 0.0000
 Depolar     --     0.0000                 0.0000                 0.0000
 Atom AN      X      Y      Z        X      Y      Z        X      Y      Z
   1   7     0.05  -0.25  -0.01    -0.12  -0.01  -0.08     0.00  -0.03   0.07
   2   6     0.10   0.44  -0.13     0.32   0.08   0.08     0.05   0.10  -0.18
   3   6    -0.21  -0.17   0.14    -0.45  -0.03  -0.24    -0.12  -0.08   0.17
   4   6     0.02   0.15  -0.07     0.26  -0.16   0.31     0.10   0.04  -0.17
   5   6     0.20  -0.08   0.03     0.02   0.02  -0.06    -0.28   0.05   0.21
   6   8    -0.22  -0.10   0.09    -0.03   0.03   0.02     0.36   0.26  -0.18
   7   8     0.02  -0.01  -0.03     0.02   0.07   0.01    -0.10  -0.21   0.03
   8   1     0.02  -0.09  -0.06     0.01   0.17   0.06     0.01  -0.01  -0.04
   9   1     0.00   0.07  -0.02     0.08  -0.09  -0.02     0.01   0.08   0.00
  10   1    -0.00  -0.11  -0.08     0.07  -0.09   0.01     0.03  -0.09  -0.05
  11   1     0.23   0.24  -0.03    -0.09   0.10  -0.00     0.15   0.05  -0.04
  12   1    -0.04   0.05   0.07     0.18   0.08  -0.16    -0.02   0.05   0.06
  13   1    -0.15  -0.07  -0.01    -0.24  -0.04  -0.04    -0.09  -0.04  -0.05
  14   1     0.08  -0.01   0.05    -0.28  -0.02  -0.09     0.05  -0.07   0.07
  15   1     0.25  -0.26   0.03     0.16   0.05   0.10     0.03  -0.19  -0.04
  16   1    -0.25   0.23   0.03     0.19  -0.15  -0.02     0.11  -0.02   0.11
  17   1     0.15   0.10  -0.09    -0.07  -0.04   0.05    -0.45  -0.26   0.19
                     22                     23                     24
                        a                      a                      a 
 Frequencies --  1180.0843              1221.0663              1233.7210
 Red. masses --     4.8046                 3.6685                 5.5045
 Frc consts  --     0.0000                 0.0000                 0.0000
 IR Inten    --    24.6096                16.2915                47.8740
 Raman Activ --     0.0000                 0.0000                 0.0000
 Depolar     --     0.0000                 0.0000                 0.0000
 Atom AN      X      Y      Z        X      Y      Z        X      Y      Z
   1   7    -0.01  -0.03   0.18     0.02  -0.00  -0.11     0.00  -0.02  -0.08
   2   6     0.08   0.08  -0.36    -0.06   0.05   0.13    -0.02   0.05   0.07
   3   6    -0.14  -0.04   0.28     0.01  -0.06   0.07     0.04   0.02   0.12
   4   6     0.07  -0.05  -0.00    -0.05  -0.06  -0.15     0.03  -0.04  -0.01
   5   6    -0.01   0.02  -0.08    -0.25   0.13   0.15     0.46  -0.19  -0.24
   6   8    -0.06  -0.10   0.04     0.06  -0.13  -0.02    -0.16   0.12   0.07
   7   8     0.06   0.12  -0.01     0.08   0.13  -0.04    -0.07   0.01   0.03
   8   1     0.02  -0.03  -0.09    -0.01  -0.00   0.04    -0.01   0.02   0.03
   9   1    -0.02   0.22   0.01     0.02  -0.12  -0.01    -0.00  -0.05  -0.01
  10   1     0.00  -0.13  -0.10     0.01   0.06   0.05    -0.01   0.05   0.03
  11   1     0.20  -0.12  -0.07     0.01   0.22   0.03     0.03   0.18   0.01
  12   1    -0.03   0.09   0.10    -0.02  -0.04  -0.00    -0.06  -0.12   0.01
  13   1     0.10   0.03  -0.05    -0.39  -0.13  -0.03    -0.32  -0.09  -0.06
  14   1    -0.26  -0.20   0.06     0.39   0.08   0.08     0.23   0.02   0.07
  15   1    -0.41   0.24  -0.09    -0.07  -0.06  -0.05    -0.38   0.26  -0.09
  16   1     0.26  -0.18   0.07     0.39  -0.29   0.07     0.02  -0.02   0.01
  17   1     0.18   0.10  -0.07     0.29   0.15  -0.14    -0.33  -0.16   0.16
                     25                     26                     27
                        a                      a                      a 
 Frequencies --  1257.9411              1318.4405              1338.0981
 Red. masses --     2.5001                 3.6123                 5.4823
 Frc consts  --     0.0000                 0.0000                 0.0000
 IR Inten    --    17.6831                37.8519                58.2938
 Raman Activ --     0.0000                 0.0000                 0.0000
 Depolar     --     0.0000                 0.0000                 0.0000
 Atom AN      X      Y      Z        X      Y      Z        X      Y      Z
   1   7     0.17  -0.07   0.16    -0.13   0.19   0.06    -0.00  -0.00  -0.01
   2   6    -0.14   0.11  -0.03     0.11   0.27  -0.04     0.03  -0.05   0.05
   3   6     0.02   0.01  -0.14     0.19   0.03  -0.00    -0.30   0.03  -0.02
   4   6    -0.02  -0.03   0.03     0.10  -0.12   0.02     0.42  -0.24   0.01
   5   6     0.09  -0.03  -0.02    -0.12   0.03   0.04    -0.24   0.09   0.03
   6   8    -0.03   0.02   0.01     0.03  -0.02  -0.01     0.06  -0.03  -0.01
   7   8    -0.01   0.02   0.00     0.01   0.02  -0.01     0.03  -0.01  -0.00
   8   1     0.03  -0.15  -0.09    -0.10  -0.24  -0.09    -0.00  -0.02   0.00
   9   1    -0.10   0.12   0.04     0.17  -0.14   0.01     0.02  -0.01  -0.00
  10   1    -0.08   0.03  -0.07     0.20  -0.24  -0.01     0.02  -0.00   0.02
  11   1    -0.15  -0.55   0.02    -0.15  -0.36   0.01    -0.04   0.02   0.01
  12   1     0.14   0.54   0.05    -0.19  -0.44   0.03     0.08   0.14  -0.01
  13   1    -0.32  -0.09  -0.03    -0.32  -0.10  -0.03     0.14   0.07  -0.04
  14   1     0.17   0.11  -0.03    -0.11  -0.03  -0.03     0.39   0.08   0.07
  15   1     0.06  -0.02   0.02    -0.05  -0.00  -0.01    -0.34   0.13  -0.09
  16   1     0.04  -0.05  -0.02    -0.17   0.09  -0.08    -0.38   0.27  -0.09
  17   1    -0.05  -0.02   0.02     0.04   0.02  -0.02     0.09   0.04  -0.04
                     28                     29                     30
                        a                      a                      a 
 Frequencies --  1350.6331              1370.7880              1411.8258
 Red. masses --     4.3687                 2.6507                 1.5982
 Frc consts  --     0.0000                 0.0000                 0.0000
 IR Inten    --    46.3895               152.7800               103.5904
 Raman Activ --     0.0000                 0.0000                 0.0000
 Depolar     --     0.0000                 0.0000                 0.0000
 Atom AN      X      Y      Z        X      Y      Z        X      Y      Z
   1   7     0.09  -0.09  -0.05    -0.02   0.24  -0.02    -0.07   0.01   0.18
   2   6    -0.15  -0.14  -0.03    -0.17  -0.19   0.02    -0.04  -0.05   0.04
   3   6     0.34   0.18   0.06     0.01   0.05   0.01     0.03   0.01   0.02
   4   6     0.12  -0.18   0.04    -0.04   0.02   0.01     0.00  -0.01   0.01
   5   6    -0.16   0.06   0.06     0.06  -0.04  -0.02    -0.00   0.00  -0.01
   6   8     0.05  -0.02  -0.02    -0.02   0.00   0.01     0.00   0.00  -0.00
   7   8     0.02  -0.01  -0.01    -0.01   0.03  -0.00    -0.01  -0.01   0.02
   8   1     0.04   0.12   0.10    -0.18  -0.55  -0.06     0.21   0.13  -0.70
   9   1    -0.14   0.08  -0.00     0.20  -0.23   0.00     0.40  -0.29   0.01
  10   1    -0.09   0.10  -0.01     0.32  -0.26   0.07    -0.29   0.15  -0.17
  11   1     0.13   0.27  -0.02     0.20   0.25  -0.01     0.06   0.08   0.01
  12   1     0.02   0.18   0.05     0.14   0.35  -0.04     0.02   0.03  -0.03
  13   1    -0.44  -0.11  -0.10     0.03   0.02  -0.00    -0.02  -0.00  -0.06
  14   1    -0.41  -0.14  -0.05    -0.07  -0.03  -0.00    -0.04   0.04  -0.02
  15   1    -0.04   0.03  -0.00     0.03   0.01   0.01    -0.01   0.00   0.00
  16   1    -0.25   0.14  -0.09     0.02  -0.01   0.02    -0.02   0.00  -0.02
  17   1     0.06   0.03  -0.02    -0.02  -0.01   0.01    -0.00  -0.00  -0.01
                     31                     32                     33
                        a                      a                      a 
 Frequencies --  1443.3351              1453.6735              1477.1498
 Red. masses --     1.8621                 2.0083                 1.8646
 Frc consts  --     0.0000                 0.0000                 0.0000
 IR Inten    --    84.4890                23.4158                11.4434
 Raman Activ --     0.0000                 0.0000                 0.0000
 Depolar     --     0.0000                 0.0000                 0.0000
 Atom AN      X      Y      Z        X      Y      Z        X      Y      Z
   1   7    -0.14  -0.19  -0.09    -0.01  -0.01   0.00    -0.02  -0.03   0.01
   2   6    -0.01  -0.00  -0.03    -0.04   0.03   0.03     0.04  -0.00  -0.05
   3   6     0.03  -0.02   0.03    -0.00  -0.01  -0.00    -0.02   0.17  -0.20
   4   6    -0.00   0.00   0.01    -0.05  -0.21  -0.19    -0.01   0.00  -0.02
   5   6    -0.00  -0.00   0.00    -0.05   0.01   0.00     0.01   0.01  -0.01
   6   8     0.00   0.00   0.00     0.01  -0.01  -0.01    -0.00   0.00   0.00
   7   8    -0.00   0.00   0.00     0.01   0.00   0.00    -0.00  -0.01   0.01
   8   1    -0.01  -0.03  -0.08     0.00   0.01  -0.01     0.02  -0.00  -0.07
   9   1     0.48   0.45  -0.14     0.02   0.02  -0.00     0.09   0.02  -0.02
  10   1     0.18   0.26   0.58     0.00   0.01   0.02    -0.00   0.03   0.05
  11   1    -0.08  -0.01  -0.01     0.11  -0.07   0.01    -0.13   0.05  -0.02
  12   1    -0.03   0.05   0.09     0.03  -0.04  -0.12    -0.04   0.06   0.14
  13   1    -0.02  -0.01  -0.09    -0.03  -0.01  -0.01    -0.08  -0.03   0.64
  14   1    -0.04   0.09  -0.03     0.01   0.01  -0.00     0.15  -0.63   0.15
  15   1     0.00  -0.02   0.00     0.34   0.54   0.05     0.02   0.03   0.00
  16   1     0.00  -0.01  -0.01    -0.06   0.16   0.66    -0.01   0.02   0.03
  17   1    -0.00  -0.00  -0.00     0.02   0.01  -0.01    -0.00  -0.00  -0.00
                     34                     35                     36
                        a                      a                      a 
 Frequencies --  1481.5027              1776.1018              2924.8244
 Red. masses --     1.8784                13.2246                 1.9077
 Frc consts  --     0.0000                 0.0000                 0.0000
 IR Inten    --    16.3647               498.6776                 1.4503
 Raman Activ --     0.0000                 0.0000                 0.0000
 Depolar     --     0.0000                 0.0000                 0.0000
 Atom AN      X      Y      Z        X      Y      Z        X      Y      Z
   1   7     0.03   0.03   0.01     0.02  -0.01   0.01    -0.00  -0.00  -0.00
   2   6     0.20  -0.09  -0.14     0.00  -0.01  -0.00     0.03  -0.01   0.01
   3   6     0.00  -0.05   0.04    -0.01  -0.00  -0.01    -0.09   0.24   0.11
   4   6    -0.03  -0.03  -0.04    -0.00   0.06   0.00    -0.01  -0.01  -0.00
   5   6     0.01  -0.01  -0.00    -0.26  -0.74   0.12     0.00  -0.00  -0.00
   6   8    -0.00  -0.00   0.00     0.04   0.05  -0.02     0.00   0.00  -0.00
   7   8    -0.00   0.01   0.00     0.20   0.55  -0.10     0.00   0.00   0.00
   8   1    -0.00  -0.06  -0.02    -0.03   0.05  -0.01     0.01  -0.00   0.00
   9   1    -0.04  -0.10   0.02     0.00  -0.00  -0.00    -0.00  -0.00   0.00
  10   1    -0.01  -0.05  -0.09    -0.00   0.00   0.00    -0.00  -0.00  -0.00
  11   1    -0.58   0.26  -0.07     0.00  -0.00  -0.00     0.00   0.00   0.05
  12   1    -0.18   0.15   0.60     0.01   0.01  -0.00    -0.12   0.05  -0.05
  13   1     0.03   0.01  -0.14     0.01   0.00   0.01     0.24  -0.82  -0.02
  14   1    -0.04   0.14  -0.03     0.00  -0.01   0.00     0.07  -0.05  -0.38
  15   1     0.08   0.10   0.01     0.00  -0.02   0.00    -0.01  -0.00   0.03
  16   1     0.01   0.02   0.13    -0.05   0.04   0.02     0.05   0.07  -0.02
  17   1    -0.00  -0.00  -0.00    -0.08  -0.04   0.03     0.00  -0.00  -0.00
                     37                     38                     39
                        a                      a                      a 
 Frequencies --  2934.2814              2946.6537              2957.4610
 Red. masses --     1.9475                 1.8928                 1.5810
 Frc consts  --     0.0000                 0.0000                 0.0000
 IR Inten    --     8.8540                 0.5941                 8.1933
 Raman Activ --     0.0000                 0.0000                 0.0000
 Depolar     --     0.0000                 0.0000                 0.0000
 Atom AN      X      Y      Z        X      Y      Z        X      Y      Z
   1   7     0.01  -0.00   0.00     0.00  -0.00   0.00    -0.01   0.00  -0.00
   2   6    -0.17   0.06  -0.22    -0.02   0.01  -0.01     0.10  -0.05  -0.05
   3   6    -0.01   0.01   0.04     0.00   0.01  -0.08    -0.00  -0.07   0.15
   4   6    -0.00  -0.00   0.00    -0.14  -0.14   0.18    -0.06  -0.08   0.04
   5   6     0.00   0.00  -0.00    -0.01  -0.01   0.01    -0.00  -0.01   0.00
   6   8    -0.00  -0.00   0.00     0.00   0.00  -0.00     0.00   0.00  -0.00
   7   8    -0.00  -0.00   0.00     0.00   0.00  -0.00     0.00   0.00  -0.00
   8   1    -0.06   0.02  -0.02    -0.01   0.00  -0.00     0.04  -0.01   0.01
   9   1     0.00  -0.00  -0.02     0.00   0.00   0.00    -0.00  -0.00  -0.01
  10   1     0.00   0.00   0.00    -0.00   0.00  -0.00    -0.00  -0.00   0.00
  11   1    -0.06   0.04   0.53     0.00   0.00  -0.02    -0.01   0.02   0.37
  12   1     0.66  -0.26   0.27     0.07  -0.03   0.03    -0.35   0.14  -0.17
  13   1     0.00   0.00   0.01     0.04  -0.13  -0.02    -0.12   0.38   0.04
  14   1     0.04  -0.04  -0.19    -0.07   0.07   0.33     0.12  -0.13  -0.56
  15   1     0.00   0.00  -0.00     0.11  -0.02  -0.56     0.01  -0.01  -0.09
  16   1     0.00   0.01  -0.00     0.39   0.54  -0.10     0.20   0.28  -0.06
  17   1     0.00   0.00   0.00     0.00  -0.00  -0.00     0.00  -0.00   0.00
                     40                     41                     42
                        a                      a                      a 
 Frequencies --  2964.1007              2969.8102              3018.2450
 Red. masses --     1.5944                 1.5612                 1.9553
 Frc consts  --     0.0000                 0.0000                 0.0000
 IR Inten    --    11.1926                 3.4060               892.0936
 Raman Activ --     0.0000                 0.0000                 0.0000
 Depolar     --     0.0000                 0.0000                 0.0000
 Atom AN      X      Y      Z        X      Y      Z        X      Y      Z
   1   7    -0.01  -0.00   0.00    -0.01   0.00  -0.00    -0.25   0.06  -0.07
   2   6     0.10  -0.05  -0.15     0.01  -0.00  -0.03    -0.02   0.02  -0.01
   3   6     0.02   0.02  -0.12     0.01  -0.01  -0.07     0.00   0.00   0.00
   4   6     0.03   0.06   0.01    -0.04  -0.11  -0.18    -0.00   0.01   0.01
   5   6     0.00   0.00  -0.00     0.00  -0.01  -0.00    -0.01  -0.03   0.01
   6   8     0.00  -0.00   0.00    -0.00   0.00   0.00     0.01   0.01  -0.00
   7   8     0.00   0.00   0.00     0.00   0.00  -0.00     0.01   0.02   0.00
   8   1     0.04  -0.01   0.01     0.04  -0.01   0.01     0.88  -0.29   0.22
   9   1    -0.00  -0.00  -0.02    -0.00   0.00  -0.00    -0.01   0.01   0.05
  10   1     0.01   0.00  -0.00     0.00   0.00  -0.00     0.02   0.03  -0.03
  11   1    -0.03   0.04   0.70    -0.01   0.01   0.11    -0.00   0.00  -0.01
  12   1    -0.32   0.13  -0.17    -0.01   0.00  -0.01     0.08  -0.04   0.03
  13   1     0.05  -0.14  -0.02     0.01  -0.03  -0.01    -0.00  -0.00   0.00
  14   1    -0.09   0.10   0.43    -0.05   0.05   0.24     0.00  -0.00  -0.01
  15   1     0.02   0.01  -0.09    -0.17  -0.02   0.75     0.01   0.00  -0.03
  16   1    -0.15  -0.21   0.05     0.30   0.41  -0.12    -0.01  -0.02   0.00
  17   1    -0.00   0.00   0.00     0.00  -0.00  -0.00     0.00  -0.01   0.00
                     43                     44                     45
                        a                      a                      a 
 Frequencies --  3220.7151              3235.1556              3430.9849
 Red. masses --     1.9649                 1.5527                 1.8535
 Frc consts  --     0.0000                 0.0000                 0.0000
 IR Inten    --    68.9459                32.0775                79.7886
 Raman Activ --     0.0000                 0.0000                 0.0000
 Depolar     --     0.0000                 0.0000                 0.0000
 Atom AN      X      Y      Z        X      Y      Z        X      Y      Z
   1   7     0.13   0.12  -0.20    -0.07  -0.08  -0.17    -0.00   0.00  -0.00
   2   6     0.00   0.00  -0.01     0.00  -0.01  -0.01    -0.00  -0.00  -0.00
   3   6    -0.00  -0.00  -0.00     0.00  -0.00   0.00     0.00  -0.00   0.00
   4   6     0.00   0.00  -0.00     0.00  -0.00  -0.00    -0.00   0.00   0.00
   5   6     0.00  -0.00  -0.00    -0.00   0.00  -0.00     0.01  -0.00  -0.00
   6   8    -0.00   0.00   0.00     0.00  -0.00   0.00     0.11  -0.21  -0.03
   7   8    -0.00   0.00   0.00     0.00  -0.00   0.00    -0.00  -0.00   0.00
   8   1     0.04   0.00  -0.01    -0.09   0.02  -0.04     0.01  -0.00   0.00
   9   1     0.06   0.05   0.33     0.11   0.10   0.89     0.00   0.00  -0.00
  10   1    -0.59  -0.52   0.44     0.23   0.20  -0.20     0.00   0.00  -0.00
  11   1    -0.00  -0.00   0.01    -0.00   0.00   0.02     0.00  -0.00   0.00
  12   1     0.00  -0.00   0.00    -0.00   0.00   0.00     0.00  -0.00   0.00
  13   1     0.00  -0.00   0.00    -0.00   0.00   0.00    -0.00   0.00   0.00
  14   1    -0.00   0.00   0.01     0.00  -0.00  -0.00     0.00  -0.00  -0.00
  15   1     0.00   0.00   0.00    -0.00  -0.00   0.00     0.00  -0.00   0.00
  16   1    -0.00  -0.00   0.00     0.00   0.00  -0.00     0.00   0.00  -0.00
  17   1    -0.00   0.00  -0.00    -0.00   0.00  -0.00    -0.46   0.84   0.15
