 Entering Gaussian System
 *********************************************
 Gaussian 98:
 frequency output generated by the xtb code
 *********************************************
                         Standard orientation:
 --------------------------------------------------------------------
  Center     Atomic     Atomic              Coordinates (Angstroms)
  Number     Number      Type              X           Y           Z
 --------------------------------------------------------------------
    1          7             0       -2.510012    1.754343   -0.339774
    2          6             0       -1.519337    1.996309    0.741052
    3          6             0       -0.243002    1.256792    0.495709
    4          6             0        0.773809    1.828776   -0.255226
    5          6             0        1.932434    1.127679   -0.522039
    6          6             0        2.109509   -0.171451   -0.049297
    7          6             0        3.347764   -0.896738   -0.350250
    8          6             0        3.787561   -1.953599    0.320240
    9          6             0        1.077359   -0.745635    0.690938
   10          6             0       -0.080047   -0.041788    0.956320
   11         17             0       -2.913201   -1.695626   -0.597027
   12          1             0       -2.696468    0.742293   -0.435262
   13          1             0       -2.147404    2.082239   -1.251226
   14          1             0       -3.412259    2.231478   -0.165262
   15          1             0       -1.937965    1.693553    1.707974
   16          1             0       -1.313591    3.069399    0.829909
   17          1             0        0.647133    2.829686   -0.634517
   18          1             0        2.717015    1.584664   -1.102822
   19          1             0        3.934584   -0.519933   -1.173313
   20          1             0        3.252442   -2.347615    1.162263
   21          1             0        4.705108   -2.447005    0.058788
   22          1             0        1.177995   -1.757775    1.045279
   23          1             0       -0.875377   -0.501893    1.519954
 --------------------------------------------------------------------
     1 basis functions        1 primitive gaussians
     1 alpha electrons        1 beta electrons

 Harmonic frequencies (cm**-1), IR intensities (km*mol⁻¹),
 Raman scattering activities (A**4/amu), Raman depolarization ratios,
 reduced masses (AMU), force constants (mDyne/A) and normal coordinates:
                      1                      2                      3
                        a                      a                      a 
 Frequencies --  -140.2622               -60.8213               -28.2183
 Red. masses --    20.8591                 8.3066                12.1555
 Frc consts  --     0.0000                 0.0000                 0.0000
 IR Inten    --   132.0746                 1.0867                 1.2501
 Raman Activ --     0.0000                 0.0000                 0.0000
 Depolar     --     0.0000                 0.0000                 0.0000
 Atom AN      X      Y      Z        X      Y      Z        X      Y      Z
   1   7    -0.10  -0.61  -0.01    -0.02  -0.03  -0.04    -0.06  -0.13   0.05
   2   6    -0.09  -0.14  -0.12    -0.01   0.06  -0.06     0.06   0.13  -0.12
   3   6    -0.01  -0.04  -0.02    -0.00   0.06  -0.01     0.05   0.10  -0.10
   4   6    -0.01  -0.02   0.01    -0.03   0.00  -0.10     0.22   0.19   0.21
   5   6     0.01   0.00   0.03     0.00   0.02   0.00     0.22   0.17   0.25
   6   6     0.02   0.00   0.02     0.07   0.08   0.15     0.03   0.05  -0.01
   7   6     0.03   0.02   0.02     0.14   0.18   0.22     0.04   0.03   0.07
   8   6     0.00  -0.03  -0.04    -0.20  -0.35  -0.39    -0.12  -0.08  -0.01
   9   6     0.03  -0.01   0.02     0.08   0.13   0.20    -0.15  -0.05  -0.34
  10   6     0.01  -0.03  -0.00     0.06   0.12   0.14    -0.14  -0.03  -0.38
  11  17     0.09   0.63   0.08    -0.04  -0.15  -0.03    -0.09  -0.21   0.22
  12   1     0.03  -0.20   0.04    -0.00  -0.01   0.01    -0.01  -0.04   0.08
  13   1    -0.06  -0.18  -0.02    -0.01  -0.03  -0.02    -0.05  -0.09  -0.02
  14   1    -0.05  -0.21  -0.01    -0.01  -0.00  -0.02    -0.01  -0.03   0.01
  15   1     0.00   0.01  -0.01     0.00   0.03  -0.01     0.05   0.09  -0.00
  16   1    -0.07  -0.03  -0.11    -0.01   0.02  -0.04     0.02   0.04  -0.10
  17   1    -0.01  -0.01   0.00    -0.02  -0.02  -0.07     0.11   0.09   0.12
  18   1     0.00   0.01   0.01    -0.01  -0.00  -0.02     0.10   0.07   0.14
  19   1     0.02   0.02   0.02     0.16   0.23   0.23     0.06   0.04   0.06
  20   1    -0.01  -0.03  -0.03    -0.18  -0.31  -0.29    -0.08  -0.05  -0.04
  21   1     0.00  -0.00  -0.01    -0.03  -0.04  -0.11    -0.03  -0.03   0.02
  22   1     0.01  -0.00   0.01     0.03   0.05   0.10    -0.08  -0.04  -0.16
  23   1     0.00  -0.01  -0.00     0.03   0.05   0.06    -0.08  -0.03  -0.19
                      4                      5                      6
                        a                      a                      a 
 Frequencies --    52.3224                92.5920               122.5831
 Red. masses --    24.8633                14.1729                12.5976
 Frc consts  --     0.0000                 0.0000                 0.0000
 IR Inten    --    13.0765                 8.5516                23.0882
 Raman Activ --     0.0000                 0.0000                 0.0000
 Depolar     --     0.0000                 0.0000                 0.0000
 Atom AN      X      Y      Z        X      Y      Z        X      Y      Z
   1   7    -0.00  -0.01  -0.00     0.13  -0.29  -0.10     0.22   0.16  -0.52
   2   6     0.04  -0.14  -0.01     0.02   0.08  -0.07    -0.14  -0.17  -0.09
   3   6     0.04  -0.12  -0.06     0.11   0.17   0.15    -0.09  -0.12   0.09
   4   6     0.02  -0.06  -0.05     0.14   0.15   0.17    -0.05  -0.00   0.23
   5   6     0.08   0.02  -0.00     0.09   0.09   0.11    -0.02   0.07   0.21
   6   6     0.17   0.05   0.03     0.01   0.05   0.04    -0.01   0.02   0.07
   7   6     0.26   0.16   0.11    -0.18  -0.16  -0.25    -0.03   0.06  -0.11
   8   6     0.27   0.14   0.08    -0.03   0.01  -0.10     0.07   0.01  -0.25
   9   6     0.18  -0.02  -0.01     0.07   0.15   0.20     0.00  -0.07   0.02
  10   6     0.12  -0.10  -0.06     0.12   0.21   0.24    -0.05  -0.14   0.02
  11  17    -0.76   0.05  -0.03    -0.30  -0.24  -0.18     0.04   0.10   0.31
  12   1    -0.07   0.01   0.01     0.06  -0.09   0.01    -0.03   0.06  -0.12
  13   1     0.01  -0.03  -0.00     0.04  -0.11  -0.04     0.19  -0.01  -0.10
  14   1     0.02   0.05  -0.00     0.02  -0.10  -0.07     0.08   0.13  -0.24
  15   1     0.01  -0.06  -0.01    -0.00   0.07  -0.01    -0.13  -0.12  -0.09
  16   1     0.02  -0.04   0.02    -0.03   0.04  -0.08    -0.04  -0.06   0.07
  17   1    -0.01  -0.02  -0.02     0.05   0.05   0.05    -0.02   0.01   0.09
  18   1     0.02   0.02   0.00     0.03   0.01   0.02    -0.00   0.04   0.08
  19   1     0.09   0.08   0.06    -0.15  -0.15  -0.19    -0.04   0.03  -0.05
  20   1     0.06   0.01  -0.00     0.09   0.12   0.09     0.06  -0.01  -0.06
  21   1     0.10   0.07   0.04    -0.07  -0.07  -0.10     0.01   0.01  -0.12
  22   1     0.07  -0.00   0.00     0.02   0.04   0.06     0.01  -0.02  -0.01
  23   1     0.04  -0.04  -0.02     0.04   0.07   0.09    -0.02  -0.06  -0.02
                      7                      8                      9
                        a                      a                      a 
 Frequencies --   195.4254               212.1711               303.5467
 Red. masses --     9.5740                 8.8382                 3.7955
 Frc consts  --     0.0000                 0.0000                 0.0000
 IR Inten    --    10.0129                 3.3571                 1.0343
 Raman Activ --     0.0000                 0.0000                 0.0000
 Depolar     --     0.0000                 0.0000                 0.0000
 Atom AN      X      Y      Z        X      Y      Z        X      Y      Z
   1   7     0.38  -0.16  -0.08    -0.27   0.13   0.01     0.08  -0.01  -0.12
   2   6     0.01  -0.15   0.23    -0.13  -0.28  -0.00    -0.10  -0.11   0.08
   3   6     0.10   0.05   0.19    -0.03  -0.07  -0.20     0.06   0.18  -0.01
   4   6    -0.07   0.08  -0.01     0.01   0.05  -0.06     0.12   0.10   0.01
   5   6    -0.09   0.10  -0.22     0.15   0.20   0.08     0.01  -0.09  -0.01
   6   6    -0.03   0.10  -0.24     0.23   0.20   0.05    -0.07  -0.11  -0.01
   7   6     0.02   0.08   0.06     0.00  -0.15  -0.06     0.01  -0.01   0.06
   8   6    -0.39   0.01   0.22    -0.29  -0.19   0.09     0.16  -0.01  -0.04
   9   6     0.02   0.02  -0.24     0.26   0.15   0.04    -0.13  -0.01  -0.02
  10   6     0.11   0.01   0.03     0.15  -0.01  -0.08    -0.04   0.15  -0.05
  11  17    -0.06  -0.03   0.02     0.04   0.02   0.05    -0.08  -0.02   0.07
  12   1     0.08  -0.04  -0.02    -0.04   0.04  -0.11     0.36  -0.04  -0.34
  13   1     0.20  -0.06   0.01    -0.12   0.16   0.03    -0.14   0.44   0.06
  14   1     0.09  -0.03  -0.12    -0.08  -0.01   0.10    -0.14  -0.38   0.16
  15   1    -0.04  -0.12   0.02    -0.02  -0.20  -0.03    -0.03  -0.18  -0.03
  16   1    -0.05  -0.04   0.14    -0.07  -0.09   0.12    -0.12  -0.02   0.15
  17   1    -0.05   0.02   0.01    -0.02   0.01  -0.03     0.08   0.03  -0.00
  18   1    -0.05   0.03  -0.09     0.04   0.09   0.04     0.01  -0.06  -0.02
  19   1     0.11   0.02   0.09    -0.03  -0.18  -0.10     0.02   0.05   0.05
  20   1    -0.23   0.01  -0.01    -0.05   0.10   0.12     0.04  -0.08  -0.05
  21   1    -0.10  -0.03   0.18    -0.18  -0.20  -0.01     0.09   0.07  -0.00
  22   1     0.00  -0.01  -0.11     0.09   0.05   0.02    -0.07  -0.00   0.01
  23   1     0.05  -0.01   0.03     0.05  -0.03  -0.03    -0.03   0.07  -0.02
                     10                     11                     12
                        a                      a                      a 
 Frequencies --   341.7436               348.5658               367.7795
 Red. masses --     9.1825                 6.6806                 8.7588
 Frc consts  --     0.0000                 0.0000                 0.0000
 IR Inten    --     3.6266                 0.7664                 0.4692
 Raman Activ --     0.0000                 0.0000                 0.0000
 Depolar     --     0.0000                 0.0000                 0.0000
 Atom AN      X      Y      Z        X      Y      Z        X      Y      Z
   1   7    -0.33   0.11  -0.12    -0.15  -0.02   0.03     0.05  -0.01   0.02
   2   6    -0.11   0.03  -0.20    -0.22  -0.22   0.17     0.01  -0.02   0.04
   3   6    -0.02  -0.03   0.12     0.04   0.27  -0.08     0.01   0.03  -0.04
   4   6     0.09  -0.02   0.26     0.16   0.17  -0.03    -0.16  -0.14  -0.40
   5   6     0.04  -0.03   0.05     0.03  -0.10  -0.05     0.18   0.13   0.37
   6   6    -0.04  -0.19  -0.39    -0.05  -0.14  -0.07    -0.01   0.01   0.09
   7   6     0.13  -0.04  -0.13     0.01  -0.15   0.05    -0.03   0.00   0.01
   8   6    -0.04   0.03   0.10     0.21  -0.10   0.01     0.05   0.01  -0.03
   9   6     0.06  -0.06  -0.14    -0.10   0.07   0.00    -0.21  -0.16  -0.32
  10   6     0.23   0.06   0.34     0.02   0.28  -0.08     0.12   0.16   0.28
  11  17     0.02   0.01   0.01     0.05   0.00  -0.02    -0.00  -0.00   0.00
  12   1    -0.09   0.03  -0.04    -0.28   0.03   0.15     0.01  -0.00   0.00
  13   1    -0.15   0.06  -0.05     0.12  -0.25  -0.01     0.03  -0.01   0.01
  14   1    -0.07   0.03   0.05     0.07   0.25  -0.14     0.01   0.00  -0.01
  15   1    -0.05   0.07  -0.05    -0.04  -0.26  -0.00     0.01  -0.04   0.01
  16   1    -0.00   0.01  -0.11    -0.19  -0.05   0.21    -0.02  -0.00   0.04
  17   1     0.05   0.01   0.12     0.11   0.06  -0.00    -0.10  -0.10  -0.26
  18   1     0.02   0.04   0.06     0.03  -0.06  -0.02     0.12   0.07   0.22
  19   1     0.16   0.06   0.08     0.02  -0.00   0.04    -0.04  -0.00  -0.02
  20   1    -0.16  -0.05  -0.10     0.07  -0.10  -0.03     0.05   0.02   0.02
  21   1     0.08   0.08   0.21     0.10   0.05   0.01    -0.00  -0.01  -0.05
  22   1     0.01  -0.02  -0.04    -0.07   0.03   0.04    -0.13  -0.10  -0.22
  23   1     0.13   0.04   0.21    -0.01   0.11  -0.01     0.08   0.11   0.20
                     13                     14                     15
                        a                      a                      a 
 Frequencies --   401.9198               501.2304               516.6311
 Red. masses --     9.8579                 8.8194                 9.2519
 Frc consts  --     0.0000                 0.0000                 0.0000
 IR Inten    --     3.0389                 9.3145                 2.7293
 Raman Activ --     0.0000                 0.0000                 0.0000
 Depolar     --     0.0000                 0.0000                 0.0000
 Atom AN      X      Y      Z        X      Y      Z        X      Y      Z
   1   7     0.04  -0.00   0.06    -0.21   0.03  -0.08    -0.11   0.02  -0.04
   2   6     0.22  -0.25  -0.08    -0.05  -0.05  -0.09     0.17  -0.19  -0.18
   3   6     0.17  -0.14  -0.31     0.25   0.20   0.34     0.23  -0.10   0.12
   4   6     0.21   0.06  -0.06     0.14  -0.04   0.01     0.08   0.16   0.08
   5   6     0.13  -0.04   0.09    -0.02  -0.24  -0.09    -0.01   0.19  -0.28
   6   6    -0.27  -0.08   0.01     0.14  -0.02   0.35    -0.16   0.24   0.00
   7   6    -0.23   0.24  -0.10     0.12   0.23  -0.06    -0.29  -0.04   0.35
   8   6    -0.26   0.30  -0.04    -0.17   0.14  -0.08     0.10  -0.12   0.01
   9   6    -0.06  -0.12   0.26    -0.05  -0.21  -0.05    -0.08  -0.05  -0.17
  10   6     0.00  -0.02   0.05     0.08   0.02  -0.00     0.04  -0.09   0.20
  11  17     0.01   0.00  -0.00     0.01   0.00  -0.00     0.01   0.00   0.00
  12   1    -0.06   0.01   0.01    -0.12   0.02  -0.02    -0.10   0.02  -0.03
  13   1    -0.01  -0.01   0.01    -0.09  -0.00  -0.04    -0.10   0.03  -0.03
  14   1     0.05   0.05   0.07    -0.02   0.06   0.04     0.02   0.06   0.11
  15   1     0.11  -0.14  -0.03    -0.04  -0.03  -0.04     0.04  -0.03  -0.05
  16   1     0.05  -0.08   0.05    -0.07  -0.00  -0.01     0.06  -0.05  -0.06
  17   1     0.08   0.04   0.03     0.02  -0.07  -0.14    -0.07   0.04   0.05
  18   1     0.11  -0.06   0.09    -0.06  -0.17  -0.18    -0.01   0.02  -0.12
  19   1    -0.04   0.15   0.03    -0.04   0.04  -0.08    -0.10  -0.04   0.07
  20   1    -0.15   0.05  -0.08    -0.07   0.20   0.04     0.23  -0.16   0.07
  21   1    -0.02   0.13   0.08    -0.14  -0.12  -0.03     0.03   0.07  -0.21
  22   1     0.01  -0.01   0.14    -0.13  -0.12  -0.17     0.05  -0.04  -0.14
  23   1    -0.02   0.07   0.05    -0.05  -0.03  -0.14    -0.00  -0.01   0.05
                     16                     17                     18
                        a                      a                      a 
 Frequencies --   604.3401               621.8368               706.8156
 Red. masses --    10.1223                 8.3539                 9.5642
 Frc consts  --     0.0000                 0.0000                 0.0000
 IR Inten    --     1.8029                 1.5828                 0.4166
 Raman Activ --     0.0000                 0.0000                 0.0000
 Depolar     --     0.0000                 0.0000                 0.0000
 Atom AN      X      Y      Z        X      Y      Z        X      Y      Z
   1   7    -0.04  -0.01  -0.01    -0.04   0.01  -0.03     0.09  -0.00   0.06
   2   6    -0.03  -0.04   0.02     0.04  -0.01  -0.04     0.08  -0.07  -0.05
   3   6     0.05  -0.02   0.22     0.18   0.13   0.24    -0.17  -0.15  -0.35
   4   6     0.15  -0.39  -0.03    -0.19   0.18  -0.18     0.02   0.17   0.24
   5   6     0.43   0.08  -0.10    -0.10   0.14   0.25    -0.18  -0.04  -0.08
   6   6     0.07   0.12  -0.01    -0.03   0.01   0.03     0.22   0.15   0.39
   7   6    -0.11  -0.10  -0.16    -0.25  -0.26  -0.18    -0.01  -0.20  -0.25
   8   6     0.02   0.08   0.01     0.05   0.01   0.09     0.09   0.01   0.05
   9   6    -0.11   0.39   0.02     0.22  -0.12   0.18    -0.12   0.04  -0.14
  10   6    -0.37  -0.07   0.10     0.17  -0.08  -0.24     0.02   0.13   0.23
  11  17     0.00   0.00  -0.00     0.00   0.00   0.00    -0.00  -0.00  -0.00
  12   1    -0.03   0.00  -0.01    -0.03   0.01  -0.02     0.03  -0.00   0.01
  13   1    -0.01   0.00  -0.00    -0.04   0.02  -0.02     0.03   0.00   0.02
  14   1    -0.00   0.01   0.01     0.00   0.01   0.04     0.02  -0.00   0.01
  15   1    -0.02  -0.05  -0.01    -0.01   0.04  -0.01     0.06  -0.02  -0.00
  16   1    -0.04  -0.01   0.04     0.01   0.00  -0.05     0.06  -0.03  -0.01
  17   1    -0.04  -0.15  -0.08    -0.12  -0.01  -0.20    -0.05   0.00  -0.03
  18   1     0.06   0.03  -0.10    -0.07  -0.02  -0.04    -0.14  -0.06  -0.18
  19   1     0.04   0.06   0.04     0.05   0.05   0.10     0.06   0.06   0.03
  20   1    -0.09  -0.08  -0.11    -0.09  -0.21  -0.14    -0.15  -0.06  -0.13
  21   1     0.10   0.13   0.12     0.18   0.23   0.18     0.10   0.04   0.19
  22   1    -0.02   0.08  -0.08     0.01  -0.07  -0.05    -0.13  -0.05  -0.18
  23   1    -0.13  -0.10  -0.07    -0.03  -0.07  -0.22    -0.03   0.01  -0.01
                     19                     20                     21
                        a                      a                      a 
 Frequencies --   725.7287               812.4276               837.9111
 Red. masses --     9.3946                 5.7120                 2.6655
 Frc consts  --     0.0000                 0.0000                 0.0000
 IR Inten    --     3.3854                23.8350                36.2240
 Raman Activ --     0.0000                 0.0000                 0.0000
 Depolar     --     0.0000                 0.0000                 0.0000
 Atom AN      X      Y      Z        X      Y      Z        X      Y      Z
   1   7    -0.07   0.03  -0.02    -0.03  -0.01  -0.05    -0.02  -0.12   0.06
   2   6    -0.29   0.25   0.19     0.06  -0.03  -0.01    -0.09  -0.26   0.13
   3   6    -0.16  -0.03  -0.14     0.10   0.07   0.19    -0.02   0.02   0.01
   4   6     0.19  -0.17   0.07    -0.09  -0.06  -0.17     0.04  -0.01   0.01
   5   6     0.20  -0.09  -0.15    -0.11  -0.07  -0.18     0.03  -0.04   0.03
   6   6     0.06   0.09   0.15     0.16   0.13   0.32     0.02  -0.02   0.01
   7   6    -0.38   0.02   0.09    -0.07  -0.12  -0.15    -0.03   0.02   0.02
   8   6    -0.12   0.13   0.02     0.04   0.05   0.04    -0.03   0.00  -0.02
   9   6     0.19  -0.18  -0.10    -0.09  -0.06  -0.18    -0.03   0.07  -0.07
  10   6     0.30  -0.03  -0.07    -0.08  -0.07  -0.16     0.02   0.09  -0.08
  11  17    -0.00  -0.00   0.00     0.00   0.00   0.00     0.01   0.00   0.01
  12   1     0.11  -0.02   0.04    -0.05   0.00  -0.01    -0.23   0.05  -0.43
  13   1     0.10  -0.03   0.03    -0.06   0.01  -0.03     0.30   0.24   0.23
  14   1    -0.10  -0.08  -0.18     0.02   0.02   0.06     0.08   0.15  -0.04
  15   1    -0.08   0.07   0.05    -0.02  -0.01  -0.02     0.07   0.35   0.21
  16   1    -0.07   0.07   0.05    -0.02  -0.00  -0.00     0.07  -0.05  -0.42
  17   1     0.10  -0.04   0.01     0.15   0.15   0.34     0.04  -0.01  -0.04
  18   1     0.06  -0.05  -0.04     0.14   0.13   0.30    -0.01  -0.03  -0.03
  19   1    -0.07   0.06   0.07     0.01   0.05   0.02    -0.02   0.01  -0.00
  20   1     0.06  -0.14  -0.02    -0.11  -0.05  -0.10     0.02   0.01   0.01
  21   1     0.03   0.20  -0.09     0.02   0.00   0.08     0.01   0.04   0.00
  22   1     0.08  -0.05  -0.05     0.12   0.11   0.27    -0.00   0.05   0.07
  23   1     0.13  -0.04   0.02     0.15   0.13   0.31     0.02   0.06   0.02
                     22                     23                     24
                        a                      a                      a 
 Frequencies --   845.0267               856.2944               887.5628
 Red. masses --     9.4059                 3.5477                 3.8028
 Frc consts  --     0.0000                 0.0000                 0.0000
 IR Inten    --     5.4119                 1.9155                12.9472
 Raman Activ --     0.0000                 0.0000                 0.0000
 Depolar     --     0.0000                 0.0000                 0.0000
 Atom AN      X      Y      Z        X      Y      Z        X      Y      Z
   1   7     0.16  -0.02   0.04    -0.02   0.01  -0.01    -0.01   0.00   0.00
   2   6     0.17  -0.11  -0.19    -0.01   0.05   0.02    -0.02  -0.02   0.01
   3   6    -0.11   0.08   0.04     0.02  -0.01   0.01     0.00  -0.00  -0.00
   4   6    -0.08  -0.30   0.21     0.11   0.13   0.17     0.01   0.01  -0.01
   5   6    -0.18  -0.24   0.23     0.11   0.12   0.13     0.01   0.00   0.01
   6   6     0.11  -0.08  -0.05    -0.02   0.02   0.01    -0.03  -0.03  -0.07
   7   6    -0.19   0.06   0.10     0.03  -0.02  -0.04    -0.09  -0.11  -0.12
   8   6    -0.11   0.09   0.02     0.03   0.01   0.02     0.23   0.28   0.29
   9   6     0.08   0.31  -0.20    -0.09  -0.12  -0.12     0.00   0.00   0.01
  10   6     0.15   0.23  -0.22    -0.14  -0.14  -0.21     0.02   0.02   0.04
  11  17     0.00  -0.00  -0.00     0.00  -0.00  -0.00     0.00   0.00   0.00
  12   1    -0.06   0.01   0.04     0.02  -0.01   0.02     0.00   0.00  -0.01
  13   1    -0.13  -0.01  -0.06    -0.02  -0.03  -0.02     0.03   0.02   0.02
  14   1     0.11   0.05   0.21    -0.02  -0.01  -0.02    -0.00   0.00  -0.01
  15   1     0.03  -0.12  -0.08    -0.02  -0.01  -0.01     0.01   0.02   0.02
  16   1     0.04  -0.04   0.03    -0.00   0.01   0.04     0.01  -0.01  -0.03
  17   1     0.02  -0.12  -0.05    -0.19  -0.15  -0.37     0.00  -0.00  -0.01
  18   1    -0.14  -0.01   0.00    -0.15  -0.14  -0.34     0.01   0.00   0.01
  19   1    -0.05   0.02   0.03     0.03   0.01   0.01     0.14   0.15   0.17
  20   1     0.09  -0.08   0.03    -0.02   0.01  -0.01    -0.16  -0.21  -0.20
  21   1    -0.02   0.13  -0.16    -0.03  -0.07  -0.01    -0.37  -0.45  -0.46
  22   1    -0.02   0.11   0.02     0.16   0.11   0.33    -0.01   0.00   0.01
  23   1     0.13   0.01   0.01     0.19   0.18   0.44    -0.05  -0.03  -0.09
                     25                     26                     27
                        a                      a                      a 
 Frequencies --   900.6127               915.2222               975.5210
 Red. masses --     3.0168                 4.1980                 8.9578
 Frc consts  --     0.0000                 0.0000                 0.0000
 IR Inten    --     0.2160                 0.3515                56.5685
 Raman Activ --     0.0000                 0.0000                 0.0000
 Depolar     --     0.0000                 0.0000                 0.0000
 Atom AN      X      Y      Z        X      Y      Z        X      Y      Z
   1   7    -0.00  -0.00  -0.01     0.01  -0.00   0.00    -0.38   0.03  -0.27
   2   6     0.01  -0.01  -0.00    -0.01  -0.03   0.00     0.36  -0.03   0.33
   3   6    -0.01  -0.00  -0.01    -0.01   0.00   0.01     0.14  -0.08  -0.01
   4   6    -0.11  -0.11  -0.23     0.07   0.05   0.14     0.02   0.10  -0.05
   5   6     0.12   0.11   0.24    -0.07  -0.06  -0.18    -0.17  -0.16   0.15
   6   6    -0.01  -0.00  -0.01    -0.01  -0.01  -0.02     0.09  -0.05  -0.02
   7   6    -0.00   0.00   0.01    -0.00  -0.00   0.01    -0.00   0.02  -0.01
   8   6     0.02   0.00   0.01     0.03   0.01   0.01    -0.07   0.03   0.02
   9   6     0.05   0.04   0.11     0.14   0.12   0.31     0.01   0.25  -0.10
  10   6    -0.04  -0.03  -0.09    -0.12  -0.09  -0.26    -0.07  -0.05   0.04
  11  17     0.00   0.00   0.00     0.00   0.00   0.00    -0.00   0.00  -0.00
  12   1    -0.01   0.00  -0.00    -0.01   0.00  -0.01     0.11  -0.03   0.02
  13   1    -0.00   0.00  -0.00     0.00   0.01   0.01     0.05  -0.08  -0.04
  14   1     0.00   0.01   0.01     0.01   0.01   0.01    -0.22  -0.13  -0.33
  15   1     0.00  -0.00  -0.00    -0.01   0.02   0.01     0.13   0.03   0.11
  16   1    -0.00  -0.00  -0.01     0.02  -0.01  -0.02     0.20  -0.03   0.05
  17   1     0.23   0.20   0.47    -0.09  -0.08  -0.17     0.06   0.02  -0.04
  18   1    -0.24  -0.20  -0.48     0.13   0.11   0.25    -0.03  -0.07   0.05
  19   1     0.01   0.01   0.02    -0.01   0.01   0.01     0.01  -0.02  -0.00
  20   1     0.00   0.00   0.00    -0.02  -0.01  -0.02     0.06  -0.06   0.02
  21   1    -0.02  -0.02  -0.03    -0.02  -0.03  -0.02    -0.00   0.09  -0.08
  22   1    -0.13  -0.10  -0.26    -0.25  -0.20  -0.50     0.02   0.06  -0.05
  23   1     0.11   0.10   0.23     0.18   0.17   0.40     0.01  -0.03   0.03
                     28                     29                     30
                        a                      a                      a 
 Frequencies --   995.6307              1005.3478              1019.4907
 Red. masses --     2.0243                 6.9242                 6.7838
 Frc consts  --     0.0000                 0.0000                 0.0000
 IR Inten    --    19.2912                 2.9691                 3.9856
 Raman Activ --     0.0000                 0.0000                 0.0000
 Depolar     --     0.0000                 0.0000                 0.0000
 Atom AN      X      Y      Z        X      Y      Z        X      Y      Z
   1   7    -0.01   0.02  -0.00     0.11  -0.01   0.16     0.11   0.26   0.22
   2   6    -0.01  -0.03   0.00    -0.19   0.08  -0.18    -0.31  -0.35  -0.20
   3   6    -0.00  -0.01   0.01     0.08   0.00  -0.03     0.09  -0.06   0.11
   4   6    -0.00  -0.03   0.01     0.04   0.23  -0.12     0.05   0.13  -0.11
   5   6     0.02   0.02   0.00    -0.08  -0.15   0.09    -0.01  -0.08   0.04
   6   6    -0.05   0.01  -0.01     0.19  -0.03  -0.02    -0.01  -0.05   0.02
   7   6     0.13   0.14   0.16     0.15   0.04  -0.13    -0.06  -0.01   0.05
   8   6     0.07   0.09   0.09    -0.25   0.09   0.13     0.04  -0.01  -0.04
   9   6    -0.01  -0.00  -0.01     0.03   0.04  -0.03     0.01   0.17  -0.10
  10   6     0.04   0.03  -0.03    -0.23  -0.22   0.18    -0.00   0.00  -0.01
  11  17     0.00   0.00  -0.00     0.00  -0.00   0.00    -0.01   0.00  -0.01
  12   1     0.02  -0.00   0.02    -0.02   0.01  -0.03     0.31  -0.00   0.30
  13   1    -0.00  -0.01  -0.01     0.08   0.05   0.08     0.04  -0.11  -0.00
  14   1    -0.01  -0.01  -0.01     0.05   0.04   0.04    -0.11  -0.14  -0.11
  15   1    -0.01   0.02   0.00    -0.00  -0.04  -0.05    -0.22   0.18  -0.02
  16   1     0.04  -0.01  -0.01    -0.18   0.04  -0.01     0.27  -0.15  -0.16
  17   1    -0.01  -0.01   0.01     0.10   0.06  -0.07     0.07   0.04  -0.03
  18   1     0.00  -0.02  -0.02     0.03  -0.11   0.04     0.05  -0.11   0.02
  19   1    -0.38  -0.42  -0.46     0.17  -0.20  -0.04    -0.06   0.08   0.02
  20   1    -0.31  -0.37  -0.37     0.20  -0.29   0.05    -0.03   0.09   0.01
  21   1     0.02   0.01   0.03    -0.00   0.28  -0.26     0.00  -0.05   0.06
  22   1    -0.04   0.01   0.02     0.12  -0.00  -0.07     0.02   0.06   0.00
  23   1     0.01   0.00  -0.01    -0.03  -0.07   0.09     0.04  -0.03   0.01
                     31                     32                     33
                        a                      a                      a 
 Frequencies --  1036.1021              1041.6235              1145.8146
 Red. masses --     5.3074                 5.6525                 2.8298
 Frc consts  --     0.0000                 0.0000                 0.0000
 IR Inten    --     2.3900                24.2615                 1.1748
 Raman Activ --     0.0000                 0.0000                 0.0000
 Depolar     --     0.0000                 0.0000                 0.0000
 Atom AN      X      Y      Z        X      Y      Z        X      Y      Z
   1   7     0.05   0.04  -0.17     0.13  -0.11  -0.22    -0.01  -0.03   0.01
   2   6     0.00  -0.19   0.25    -0.07   0.08   0.32     0.02   0.07  -0.04
   3   6    -0.10   0.00   0.00    -0.08  -0.08  -0.07    -0.04  -0.12   0.07
   4   6    -0.02  -0.05   0.02     0.09   0.23  -0.13    -0.08   0.16  -0.03
   5   6     0.13   0.12  -0.12    -0.00  -0.12   0.07     0.15   0.02  -0.08
   6   6     0.06  -0.01   0.02    -0.01  -0.05  -0.00     0.02  -0.16   0.06
   7   6     0.16   0.01  -0.15    -0.09  -0.00   0.08     0.01  -0.00   0.00
   8   6    -0.17   0.04   0.09     0.07  -0.00  -0.04    -0.03   0.02   0.00
   9   6    -0.11  -0.18   0.12     0.09   0.17  -0.10    -0.05   0.14  -0.04
  10   6     0.01   0.18  -0.07    -0.05  -0.13   0.10     0.12   0.01  -0.06
  11  17     0.00   0.00  -0.00     0.00   0.00  -0.00    -0.00   0.00   0.00
  12   1     0.01  -0.00   0.13    -0.19   0.01  -0.01    -0.02   0.00  -0.04
  13   1    -0.23  -0.08  -0.17    -0.31   0.00  -0.18     0.03   0.02   0.03
  14   1     0.03  -0.03   0.15     0.17   0.08   0.34     0.00   0.01  -0.01
  15   1    -0.22   0.20   0.05    -0.26   0.16   0.02     0.03  -0.04  -0.02
  16   1     0.27  -0.09  -0.07     0.03   0.02  -0.01    -0.05   0.02   0.03
  17   1    -0.06  -0.00   0.04     0.13   0.05  -0.11    -0.47   0.07   0.19
  18   1     0.01   0.08  -0.04     0.09  -0.19   0.02     0.27  -0.34   0.01
  19   1     0.21  -0.14   0.01    -0.11   0.08  -0.01     0.02  -0.00   0.01
  20   1     0.18  -0.17   0.07    -0.09   0.08  -0.04     0.02   0.02   0.02
  21   1     0.00   0.20  -0.19    -0.01  -0.09   0.08     0.00   0.06  -0.07
  22   1    -0.18  -0.04   0.10     0.13   0.03  -0.09    -0.42   0.06   0.17
  23   1    -0.09   0.18  -0.05     0.05  -0.17   0.01     0.24  -0.31   0.01
                     34                     35                     36
                        a                      a                      a 
 Frequencies --  1191.4337              1208.4141              1214.2495
 Red. masses --     3.4695                 4.1506                 3.0567
 Frc consts  --     0.0000                 0.0000                 0.0000
 IR Inten    --     0.2737                 2.0617                11.4136
 Raman Activ --     0.0000                 0.0000                 0.0000
 Depolar     --     0.0000                 0.0000                 0.0000
 Atom AN      X      Y      Z        X      Y      Z        X      Y      Z
   1   7    -0.01   0.01  -0.01     0.00   0.03  -0.03    -0.12  -0.21   0.15
   2   6     0.03  -0.03  -0.01     0.10  -0.11  -0.03     0.10   0.19  -0.13
   3   6    -0.07   0.05   0.02    -0.27   0.19   0.08    -0.06  -0.08   0.08
   4   6    -0.07  -0.12   0.09     0.01  -0.03   0.01     0.02   0.02  -0.03
   5   6    -0.01  -0.08   0.04    -0.00   0.09  -0.04    -0.02   0.05  -0.01
   6   6    -0.29   0.22   0.06    -0.23   0.21   0.04    -0.04   0.04   0.01
   7   6     0.10   0.01  -0.09     0.07   0.01  -0.07     0.01   0.00  -0.01
   8   6     0.03  -0.02  -0.00     0.03  -0.02  -0.01     0.01  -0.00  -0.00
   9   6     0.02   0.03  -0.02    -0.10  -0.07   0.08     0.01   0.01  -0.01
  10   6     0.04   0.13  -0.07     0.04  -0.03  -0.00     0.03   0.03  -0.02
  11  17     0.00  -0.00   0.00    -0.00   0.00  -0.00     0.00  -0.00   0.00
  12   1     0.01  -0.00   0.00     0.04  -0.00   0.04    -0.09  -0.03  -0.23
  13   1     0.00  -0.01  -0.00     0.00  -0.02  -0.01     0.15   0.09   0.16
  14   1    -0.01  -0.00  -0.01    -0.00  -0.01   0.00     0.01   0.08  -0.09
  15   1     0.04  -0.01   0.01     0.19  -0.07   0.05    -0.47  -0.06  -0.28
  16   1     0.03  -0.01   0.00     0.06  -0.03  -0.07     0.47  -0.07   0.33
  17   1    -0.20  -0.02   0.11     0.46  -0.03  -0.21     0.18   0.00  -0.07
  18   1     0.31  -0.50   0.07     0.06  -0.07   0.00     0.05  -0.06   0.01
  19   1     0.19  -0.14   0.02     0.19  -0.17   0.02     0.04  -0.04   0.01
  20   1     0.04  -0.04   0.01     0.03  -0.02   0.01    -0.00   0.00  -0.00
  21   1    -0.00  -0.06   0.06     0.01  -0.03   0.03     0.00  -0.00  -0.00
  22   1     0.46  -0.02  -0.21    -0.09  -0.01   0.05    -0.08   0.01   0.03
  23   1    -0.09   0.20  -0.04     0.31  -0.47   0.05    -0.03   0.05  -0.02
                     37                     38                     39
                        a                      a                      a 
 Frequencies --  1252.6332              1274.4754              1302.5080
 Red. masses --     7.3579                 5.7804                 4.2050
 Frc consts  --     0.0000                 0.0000                 0.0000
 IR Inten    --     6.3109                 0.0433                 0.8834
 Raman Activ --     0.0000                 0.0000                 0.0000
 Depolar     --     0.0000                 0.0000                 0.0000
 Atom AN      X      Y      Z        X      Y      Z        X      Y      Z
   1   7     0.02   0.02  -0.00     0.01   0.02  -0.02    -0.01  -0.02   0.00
   2   6    -0.15   0.10   0.08     0.06  -0.05  -0.04    -0.01  -0.02  -0.00
   3   6     0.40  -0.27  -0.11    -0.23   0.04   0.11     0.02   0.18  -0.08
   4   6     0.08  -0.16   0.03    -0.18   0.09   0.05     0.01   0.06  -0.03
   5   6    -0.20  -0.04   0.11     0.06   0.02  -0.04     0.09  -0.15   0.02
   6   6    -0.18   0.29  -0.02     0.34   0.05  -0.19     0.13  -0.12   0.00
   7   6    -0.02   0.01  -0.00    -0.21  -0.01   0.17    -0.24   0.03   0.18
   8   6     0.08   0.00  -0.07     0.06   0.07  -0.11     0.08   0.16  -0.21
   9   6    -0.08   0.15  -0.02     0.16  -0.11  -0.04    -0.07  -0.05   0.05
  10   6     0.18  -0.10  -0.05    -0.08  -0.12   0.09    -0.07   0.02   0.03
  11  17     0.00   0.00  -0.00     0.00  -0.00  -0.00    -0.00  -0.00   0.00
  12   1    -0.02   0.01   0.01     0.03  -0.00   0.01    -0.01  -0.01  -0.01
  13   1    -0.04  -0.00  -0.02    -0.01  -0.03  -0.02     0.01   0.01   0.01
  14   1     0.00  -0.01   0.01     0.00  -0.00   0.01     0.00   0.01  -0.00
  15   1    -0.13   0.08   0.00     0.17  -0.06   0.05    -0.04   0.02  -0.01
  16   1    -0.23   0.07  -0.03    -0.02  -0.01  -0.02     0.13  -0.03   0.03
  17   1     0.11  -0.06  -0.03     0.22   0.01  -0.11    -0.26   0.03   0.11
  18   1    -0.04  -0.04   0.04     0.22  -0.29   0.02    -0.14   0.22  -0.02
  19   1     0.28  -0.28   0.06     0.07  -0.14   0.07     0.38  -0.49   0.13
  20   1    -0.02   0.05  -0.02    -0.13   0.15  -0.06    -0.14   0.18  -0.10
  21   1     0.02  -0.04   0.03     0.01   0.02  -0.01    -0.00  -0.03   0.04
  22   1    -0.34   0.06   0.13    -0.25  -0.01   0.13     0.19  -0.03  -0.07
  23   1    -0.04   0.12  -0.03    -0.26   0.33  -0.01     0.09  -0.16   0.03
                     40                     41                     42
                        a                      a                      a 
 Frequencies --  1317.8537              1345.4986              1372.2783
 Red. masses --     4.3611                11.3248                 2.5116
 Frc consts  --     0.0000                 0.0000                 0.0000
 IR Inten    --    34.9462                 0.3039               144.3037
 Raman Activ --     0.0000                 0.0000                 0.0000
 Depolar     --     0.0000                 0.0000                 0.0000
 Atom AN      X      Y      Z        X      Y      Z        X      Y      Z
   1   7     0.02  -0.12  -0.17     0.00   0.00  -0.01    -0.25  -0.14  -0.15
   2   6    -0.44   0.16  -0.06    -0.01   0.02  -0.01     0.09  -0.05   0.02
   3   6     0.15  -0.05   0.03    -0.13  -0.29   0.19    -0.01   0.01  -0.02
   4   6     0.02  -0.01  -0.01     0.36  -0.05  -0.15     0.00  -0.01   0.01
   5   6    -0.02  -0.03   0.02    -0.25   0.33  -0.02    -0.00  -0.00   0.00
   6   6    -0.03   0.04  -0.00    -0.14  -0.30   0.20     0.01   0.01  -0.01
   7   6     0.02  -0.00  -0.01    -0.01   0.00   0.02    -0.01   0.01  -0.00
   8   6    -0.00  -0.01   0.01    -0.00   0.04  -0.04     0.00   0.00  -0.00
   9   6    -0.02   0.04  -0.01     0.38  -0.04  -0.17     0.00  -0.01   0.00
  10   6     0.03  -0.04  -0.00    -0.23   0.31  -0.02    -0.00   0.00   0.00
  11  17     0.00  -0.00  -0.00    -0.00   0.00  -0.00    -0.01  -0.00  -0.00
  12   1    -0.03  -0.04   0.11     0.01  -0.00   0.02     0.54  -0.16   0.29
  13   1    -0.01   0.13   0.01    -0.00   0.01  -0.00     0.16   0.24   0.15
  14   1     0.10   0.09   0.14     0.01   0.00   0.01     0.27   0.49   0.16
  15   1     0.51  -0.07   0.22     0.10  -0.04   0.03    -0.11   0.07  -0.02
  16   1     0.50  -0.10   0.24    -0.08   0.02  -0.00    -0.13   0.02  -0.02
  17   1    -0.02   0.00   0.01     0.02  -0.01  -0.01    -0.01  -0.01  -0.00
  18   1    -0.02   0.02   0.00    -0.01   0.00   0.01     0.00  -0.01  -0.00
  19   1    -0.01   0.02  -0.01     0.12  -0.14   0.03    -0.00   0.00   0.00
  20   1     0.01  -0.01   0.01    -0.03   0.04  -0.02     0.01  -0.01   0.01
  21   1     0.00   0.00  -0.00    -0.00   0.01  -0.02     0.00  -0.01   0.02
  22   1    -0.04   0.02   0.02    -0.00  -0.00   0.01     0.00   0.00   0.00
  23   1    -0.02   0.04   0.00    -0.02   0.02   0.00    -0.00  -0.00  -0.00
                     43                     44                     45
                        a                      a                      a 
 Frequencies --  1401.6761              1408.1403              1413.6455
 Red. masses --     2.7342                 2.0614                 8.9236
 Frc consts  --     0.0000                 0.0000                 0.0000
 IR Inten    --     7.0451                63.6587                 1.4207
 Raman Activ --     0.0000                 0.0000                 0.0000
 Depolar     --     0.0000                 0.0000                 0.0000
 Atom AN      X      Y      Z        X      Y      Z        X      Y      Z
   1   7    -0.01   0.02   0.06     0.07  -0.05  -0.16    -0.01   0.00   0.03
   2   6    -0.02  -0.01   0.01     0.08  -0.03  -0.01    -0.04  -0.05   0.04
   3   6    -0.02   0.06  -0.01    -0.00   0.06  -0.03     0.12   0.30  -0.19
   4   6     0.07  -0.01  -0.03     0.04  -0.04  -0.00     0.23  -0.23  -0.02
   5   6    -0.03  -0.04   0.03    -0.05   0.00   0.02    -0.28   0.03   0.13
   6   6     0.11   0.02  -0.06     0.08   0.05  -0.06     0.11   0.32  -0.20
   7   6    -0.18   0.23  -0.08    -0.07   0.07  -0.01     0.01  -0.06   0.02
   8   6    -0.00   0.06  -0.06     0.00   0.01  -0.01     0.03  -0.09   0.06
   9   6     0.09  -0.05  -0.02     0.05  -0.07   0.00     0.20  -0.24   0.01
  10   6    -0.09  -0.00   0.04    -0.08   0.03   0.03    -0.29   0.08   0.11
  11  17    -0.00  -0.00   0.00     0.01   0.00  -0.01    -0.00   0.00   0.00
  12   1     0.11  -0.00  -0.19    -0.40   0.02   0.55     0.05  -0.00  -0.09
  13   1    -0.06  -0.16  -0.08     0.17   0.45   0.22    -0.03  -0.06  -0.03
  14   1     0.03   0.07  -0.00    -0.13  -0.27   0.01     0.02   0.04  -0.01
  15   1     0.02  -0.00   0.01    -0.10   0.03  -0.04    -0.08   0.04  -0.01
  16   1     0.05  -0.01   0.01    -0.03   0.00  -0.01     0.12  -0.03  -0.01
  17   1    -0.08   0.00   0.04    -0.04  -0.01   0.01    -0.19  -0.05   0.12
  18   1    -0.01  -0.01   0.01     0.02  -0.05   0.01     0.03  -0.16   0.06
  19   1     0.03  -0.02  -0.01    -0.01   0.00  -0.01    -0.10   0.11  -0.02
  20   1     0.41  -0.41   0.08     0.11  -0.11   0.02    -0.13   0.11  -0.01
  21   1    -0.07  -0.41   0.46    -0.02  -0.12   0.14     0.04   0.11  -0.12
  22   1    -0.13  -0.01   0.05    -0.05  -0.01   0.04    -0.12  -0.06   0.09
  23   1    -0.01  -0.02   0.01     0.01  -0.03   0.02     0.06  -0.20   0.05
                     46                     47                     48
                        a                      a                      a 
 Frequencies --  1452.0974              1484.2919              1492.1418
 Red. masses --     1.9182                 2.0208                 9.5336
 Frc consts  --     0.0000                 0.0000                 0.0000
 IR Inten    --    74.3237                12.0546                 2.9549
 Raman Activ --     0.0000                 0.0000                 0.0000
 Depolar     --     0.0000                 0.0000                 0.0000
 Atom AN      X      Y      Z        X      Y      Z        X      Y      Z
   1   7     0.15  -0.14   0.16    -0.02   0.02  -0.02     0.02  -0.01   0.01
   2   6    -0.02  -0.01   0.03    -0.07   0.17   0.21     0.10  -0.08  -0.06
   3   6     0.01  -0.01   0.00    -0.01   0.00   0.01    -0.35   0.20   0.08
   4   6    -0.02   0.00   0.01     0.04   0.01  -0.03     0.22   0.11  -0.15
   5   6     0.00   0.01  -0.01     0.01  -0.04   0.01     0.12  -0.31   0.07
   6   6     0.02  -0.01  -0.00    -0.04   0.02   0.01    -0.36   0.19   0.10
   7   6    -0.00   0.00   0.00     0.01  -0.00  -0.01     0.09  -0.02  -0.05
   8   6    -0.00   0.00  -0.00     0.00  -0.00   0.00     0.01  -0.05   0.03
   9   6    -0.01  -0.00   0.01     0.03   0.02  -0.02     0.27   0.08  -0.16
  10   6    -0.00   0.01  -0.00     0.02  -0.05   0.01     0.07  -0.28   0.08
  11  17     0.00  -0.00  -0.00    -0.00   0.00  -0.00     0.00   0.00  -0.00
  12   1    -0.01  -0.02   0.06     0.03  -0.00   0.04    -0.02  -0.00   0.02
  13   1    -0.56   0.38  -0.08     0.09  -0.02   0.03    -0.02   0.04   0.00
  14   1     0.03   0.27  -0.61     0.01  -0.01   0.09    -0.01  -0.00  -0.04
  15   1     0.03  -0.08  -0.01    -0.06  -0.62  -0.21     0.03   0.06   0.02
  16   1     0.02  -0.00  -0.11     0.22   0.02  -0.63    -0.00  -0.01   0.07
  17   1     0.01  -0.00  -0.00    -0.05   0.01   0.02    -0.20   0.05   0.07
  18   1     0.01  -0.01  -0.00    -0.02   0.03   0.00    -0.15   0.19  -0.01
  19   1    -0.00  -0.00   0.00     0.01  -0.00   0.00     0.03  -0.00  -0.01
  20   1     0.00  -0.00  -0.00     0.00   0.00   0.00    -0.02   0.02   0.01
  21   1    -0.00  -0.00   0.00     0.00   0.00  -0.00     0.01   0.03  -0.04
  22   1     0.01  -0.00  -0.00    -0.03   0.01   0.01    -0.21   0.04   0.08
  23   1     0.00  -0.00   0.00    -0.04   0.05  -0.00    -0.15   0.17   0.00
                     49                     50                     51
                        a                      a                      a 
 Frequencies --  1580.1056              1599.1184              1673.5189
 Red. masses --    11.5750                11.5122                11.2076
 Frc consts  --     0.0000                 0.0000                 0.0000
 IR Inten    --     0.1895                14.9401                 0.1755
 Raman Activ --     0.0000                 0.0000                 0.0000
 Depolar     --     0.0000                 0.0000                 0.0000
 Atom AN      X      Y      Z        X      Y      Z        X      Y      Z
   1   7     0.00  -0.00  -0.00    -0.01   0.00  -0.01     0.00  -0.00   0.00
   2   6    -0.02  -0.04   0.02    -0.02   0.02   0.02     0.00  -0.00  -0.00
   3   6     0.20   0.43  -0.28     0.24  -0.14  -0.05    -0.05   0.00   0.02
   4   6    -0.22  -0.17   0.18    -0.42   0.11   0.16     0.09  -0.01  -0.04
   5   6    -0.04   0.30  -0.11     0.31  -0.30  -0.03    -0.07   0.03   0.02
   6   6    -0.18  -0.37   0.25    -0.21   0.14   0.04    -0.01   0.09  -0.05
   7   6     0.04  -0.03   0.01     0.06  -0.08   0.03     0.29  -0.56   0.29
   8   6    -0.03   0.06  -0.04    -0.03   0.06  -0.04    -0.22   0.50  -0.32
   9   6     0.22   0.14  -0.16     0.39  -0.13  -0.13    -0.06  -0.01   0.04
  10   6     0.01  -0.30   0.12    -0.32   0.34   0.01     0.04  -0.03  -0.01
  11  17     0.00  -0.00  -0.00    -0.00  -0.00  -0.00     0.00  -0.00   0.00
  12   1    -0.00  -0.00   0.00     0.00  -0.00  -0.01    -0.00  -0.00   0.00
  13   1     0.00  -0.00   0.00     0.00  -0.01  -0.00     0.00   0.00   0.00
  14   1    -0.00  -0.00   0.00    -0.00   0.00   0.00    -0.00  -0.00  -0.00
  15   1    -0.06   0.04  -0.01    -0.02  -0.00  -0.00     0.00  -0.00   0.00
  16   1     0.07  -0.02  -0.00    -0.01   0.01  -0.01    -0.00  -0.00   0.00
  17   1     0.06  -0.05  -0.01     0.10   0.02  -0.05    -0.02  -0.00   0.01
  18   1     0.07  -0.05  -0.01    -0.03   0.09  -0.02    -0.00  -0.02   0.01
  19   1     0.03  -0.04   0.01    -0.01   0.01   0.01    -0.10   0.05   0.06
  20   1     0.03  -0.02   0.00     0.02  -0.01  -0.00     0.15  -0.06  -0.06
  21   1    -0.02  -0.01   0.01    -0.01  -0.00   0.01    -0.10  -0.03   0.12
  22   1    -0.07   0.04   0.01    -0.08  -0.03   0.05    -0.01  -0.01  -0.00
  23   1    -0.06   0.02   0.03     0.04  -0.10   0.02     0.00   0.00  -0.00
                     52                     53                     54
                        a                      a                      a 
 Frequencies --  2904.6103              2953.2737              2979.5829
 Red. masses --     1.9913                 1.9663                 1.5171
 Frc consts  --     0.0000                 0.0000                 0.0000
 IR Inten    --  1402.7774                11.4686                 6.2956
 Raman Activ --     0.0000                 0.0000                 0.0000
 Depolar     --     0.0000                 0.0000                 0.0000
 Atom AN      X      Y      Z        X      Y      Z        X      Y      Z
   1   7     0.04   0.27   0.01     0.01   0.05   0.00    -0.01  -0.03  -0.00
   2   6    -0.01  -0.05   0.01     0.10   0.24  -0.12     0.05  -0.09  -0.19
   3   6     0.00  -0.00   0.00     0.00   0.01  -0.00     0.01  -0.00  -0.00
   4   6     0.00   0.00  -0.00     0.00  -0.00   0.00    -0.00   0.00   0.00
   5   6    -0.00   0.00   0.00    -0.00   0.00  -0.00    -0.00  -0.00   0.00
   6   6    -0.00  -0.00   0.00    -0.00  -0.00   0.00    -0.00   0.00   0.00
   7   6    -0.00   0.00   0.00    -0.00  -0.00   0.00    -0.00  -0.00   0.00
   8   6    -0.00   0.00   0.00    -0.00   0.00   0.00    -0.00   0.00  -0.00
   9   6    -0.00   0.00  -0.00     0.00   0.00  -0.00     0.00   0.00  -0.00
  10   6    -0.00  -0.00   0.00    -0.00  -0.00   0.00    -0.00   0.00   0.00
  11  17    -0.00  -0.01  -0.00    -0.00  -0.00   0.00     0.00   0.00   0.00
  12   1    -0.17  -0.93  -0.07    -0.03  -0.16  -0.01     0.01   0.08   0.00
  13   1    -0.01   0.00   0.04     0.00   0.00  -0.00     0.01   0.01  -0.03
  14   1     0.03  -0.00  -0.01     0.01  -0.00  -0.00    -0.01  -0.00  -0.00
  15   1     0.01   0.00  -0.03    -0.22  -0.14   0.50    -0.30  -0.25   0.68
  16   1     0.03   0.17   0.01    -0.14  -0.74  -0.07     0.13   0.57   0.01
  17   1     0.00  -0.00   0.00    -0.00   0.01  -0.00     0.00  -0.00   0.00
  18   1     0.00   0.00  -0.00    -0.00  -0.00  -0.00     0.00   0.00  -0.00
  19   1     0.00   0.00  -0.00     0.00   0.00  -0.00     0.00   0.00  -0.00
  20   1    -0.00  -0.00   0.00     0.00   0.00   0.00    -0.00  -0.00   0.00
  21   1     0.00  -0.00  -0.00     0.00  -0.00   0.00     0.00  -0.00  -0.00
  22   1    -0.00  -0.00   0.00    -0.00  -0.00   0.00     0.00  -0.00   0.00
  23   1    -0.00  -0.00  -0.00     0.00   0.00  -0.00     0.00   0.00  -0.00
                     55                     56                     57
                        a                      a                      a 
 Frequencies --  3092.1011              3095.4285              3111.0818
 Red. masses --     1.8060                 1.7856                 1.8647
 Frc consts  --     0.0000                 0.0000                 0.0000
 IR Inten    --    19.9683                30.1928                49.5560
 Raman Activ --     0.0000                 0.0000                 0.0000
 Depolar     --     0.0000                 0.0000                 0.0000
 Atom AN      X      Y      Z        X      Y      Z        X      Y      Z
   1   7    -0.00   0.00   0.00     0.00  -0.00  -0.00    -0.00   0.00  -0.00
   2   6    -0.00   0.00  -0.00     0.00   0.00  -0.00     0.00   0.00  -0.00
   3   6    -0.00   0.00  -0.00    -0.01   0.01  -0.00    -0.01   0.00   0.00
   4   6    -0.01   0.04  -0.02    -0.03   0.22  -0.08    -0.01   0.11  -0.04
   5   6    -0.04  -0.02   0.03    -0.07  -0.04   0.05     0.18   0.10  -0.13
   6   6     0.00   0.00  -0.00    -0.01  -0.00   0.00     0.01  -0.00  -0.00
   7   6     0.13   0.10  -0.20    -0.03  -0.02   0.05     0.01   0.01  -0.02
   8   6    -0.02  -0.00   0.02     0.01   0.00  -0.01    -0.01  -0.00   0.01
   9   6     0.00  -0.00   0.00     0.00  -0.00   0.00    -0.00   0.02  -0.01
  10   6     0.00   0.00  -0.00     0.01   0.00  -0.00    -0.03  -0.02   0.02
  11  17     0.00   0.00   0.00     0.00   0.00   0.00     0.00   0.00   0.00
  12   1    -0.00   0.00   0.00     0.00   0.00  -0.00    -0.00  -0.00  -0.00
  13   1    -0.00   0.00   0.00     0.00  -0.00   0.00    -0.00  -0.00   0.01
  14   1     0.00  -0.00  -0.00     0.00   0.00   0.00     0.00  -0.00  -0.00
  15   1    -0.00  -0.00   0.00    -0.00  -0.00   0.00    -0.00  -0.00   0.00
  16   1     0.00  -0.00  -0.00     0.00  -0.01  -0.00     0.00  -0.00  -0.00
  17   1     0.02  -0.16   0.06     0.09  -0.79   0.30     0.04  -0.38   0.14
  18   1     0.14   0.08  -0.11     0.27   0.16  -0.20    -0.62  -0.36   0.46
  19   1    -0.50  -0.32   0.70     0.13   0.08  -0.18    -0.06  -0.03   0.08
  20   1     0.03   0.03  -0.05    -0.01  -0.01   0.02     0.01   0.01  -0.02
  21   1     0.08  -0.05  -0.02    -0.02   0.01   0.00     0.01  -0.01  -0.00
  22   1    -0.00   0.01  -0.00    -0.00   0.01  -0.00     0.01  -0.08   0.03
  23   1    -0.00  -0.00   0.00    -0.02  -0.01   0.02     0.09   0.06  -0.07
                     58                     59                     60
                        a                      a                      a 
 Frequencies --  3111.8460              3123.5868              3139.8335
 Red. masses --     1.8047                 1.8753                 1.5591
 Frc consts  --     0.0000                 0.0000                 0.0000
 IR Inten    --     3.8658                 9.3874                14.8024
 Raman Activ --     0.0000                 0.0000                 0.0000
 Depolar     --     0.0000                 0.0000                 0.0000
 Atom AN      X      Y      Z        X      Y      Z        X      Y      Z
   1   7    -0.00  -0.00   0.00     0.00  -0.00   0.00     0.00  -0.00   0.00
   2   6    -0.00  -0.00   0.00    -0.00   0.00   0.00     0.00   0.00   0.00
   3   6    -0.01   0.00   0.00     0.00  -0.00  -0.00     0.00  -0.00   0.00
   4   6     0.00  -0.01   0.00    -0.00  -0.00   0.00     0.00  -0.00   0.00
   5   6    -0.03  -0.02   0.02    -0.00  -0.00   0.00     0.00   0.00  -0.00
   6   6    -0.00   0.00  -0.00    -0.01   0.00   0.00     0.00  -0.00  -0.00
   7   6    -0.00  -0.00   0.00    -0.00   0.00  -0.00    -0.01  -0.01   0.02
   8   6    -0.00  -0.00   0.01    -0.00  -0.01   0.01    -0.14   0.17  -0.06
   9   6    -0.01   0.11  -0.04    -0.02   0.23  -0.08    -0.00   0.01  -0.00
  10   6    -0.17  -0.10   0.12     0.10   0.06  -0.07     0.00   0.00  -0.00
  11  17    -0.00  -0.00  -0.00     0.00  -0.00   0.00    -0.00  -0.00  -0.00
  12   1     0.00   0.00   0.00     0.00   0.00  -0.00     0.00   0.00   0.00
  13   1     0.00   0.00  -0.00     0.00   0.00  -0.00     0.00   0.00  -0.00
  14   1     0.00  -0.00  -0.00    -0.01   0.00   0.00    -0.00   0.00   0.00
  15   1     0.00   0.00  -0.01    -0.00   0.00   0.00     0.00   0.00  -0.00
  16   1    -0.00   0.00  -0.00    -0.00  -0.00   0.00    -0.00  -0.00  -0.00
  17   1    -0.00   0.03  -0.01    -0.00   0.01  -0.00    -0.00   0.00  -0.00
  18   1     0.11   0.06  -0.08     0.01   0.01  -0.01    -0.00  -0.00   0.00
  19   1     0.01   0.01  -0.01    -0.00  -0.00   0.00     0.03   0.02  -0.04
  20   1     0.01   0.01  -0.02     0.03   0.02  -0.05    -0.27  -0.16   0.38
  21   1    -0.01   0.00   0.00    -0.02   0.01   0.01     0.72  -0.37  -0.22
  22   1     0.04  -0.41   0.14     0.08  -0.80   0.28     0.01  -0.05   0.02
  23   1     0.62   0.36  -0.44    -0.33  -0.19   0.23    -0.01  -0.00   0.00
                     61                     62                     63
                        a                      a                      a 
 Frequencies --  3157.0571              3171.5676              3178.7785
 Red. masses --     1.8342                 2.0650                 1.6823
 Frc consts  --     0.0000                 0.0000                 0.0000
 IR Inten    --    25.9253                33.9635                30.5127
 Raman Activ --     0.0000                 0.0000                 0.0000
 Depolar     --     0.0000                 0.0000                 0.0000
 Atom AN      X      Y      Z        X      Y      Z        X      Y      Z
   1   7    -0.22   0.09   0.07    -0.00   0.00   0.00     0.06   0.08  -0.21
   2   6    -0.00   0.00   0.00     0.00  -0.00   0.00     0.00   0.00  -0.01
   3   6    -0.00  -0.00  -0.00     0.00   0.00  -0.00    -0.00   0.00  -0.00
   4   6     0.00  -0.00  -0.00    -0.00  -0.00   0.00     0.00  -0.00   0.00
   5   6    -0.00  -0.00   0.00    -0.00  -0.00   0.00    -0.00  -0.00   0.00
   6   6     0.00  -0.00  -0.00     0.00  -0.00   0.00    -0.00   0.00  -0.00
   7   6    -0.00  -0.00   0.00    -0.03  -0.01   0.03    -0.00  -0.00   0.00
   8   6     0.00   0.00  -0.00    -0.22  -0.03   0.21    -0.00   0.00  -0.00
   9   6    -0.00   0.00  -0.00     0.00  -0.01   0.00    -0.00   0.00  -0.00
  10   6     0.00   0.00  -0.00    -0.00  -0.00   0.00     0.00  -0.00  -0.00
  11  17     0.00  -0.00  -0.00    -0.00   0.00   0.00    -0.00   0.00   0.00
  12   1    -0.01   0.04   0.01     0.00   0.00  -0.00     0.02   0.07  -0.01
  13   1     0.02   0.05  -0.10    -0.00  -0.00   0.00    -0.36  -0.30   0.84
  14   1     0.83  -0.45  -0.18     0.01  -0.00  -0.00     0.12  -0.05  -0.04
  15   1     0.00   0.00  -0.00     0.00   0.00  -0.00    -0.01  -0.01   0.03
  16   1     0.00   0.00   0.00    -0.00   0.00   0.00     0.00   0.01   0.00
  17   1    -0.00   0.00  -0.00    -0.00   0.00  -0.00    -0.00   0.01  -0.00
  18   1     0.00   0.00  -0.00     0.01   0.01  -0.01     0.00   0.00  -0.00
  19   1     0.00   0.00  -0.00     0.06   0.04  -0.08     0.00   0.00  -0.00
  20   1    -0.00  -0.00   0.01     0.40   0.31  -0.64    -0.00  -0.00   0.00
  21   1    -0.00   0.00   0.00     0.39  -0.23  -0.10     0.00  -0.00  -0.00
  22   1     0.00  -0.00   0.00    -0.00   0.05  -0.02     0.00  -0.00   0.00
  23   1    -0.00  -0.00   0.00     0.00   0.00  -0.00    -0.00  -0.00   0.00
