 Entering Gaussian System
 *********************************************
 Gaussian 98:
 frequency output generated by the xtb code
 *********************************************
                         Standard orientation:
 --------------------------------------------------------------------
  Center     Atomic     Atomic              Coordinates (Angstroms)
  Number     Number      Type              X           Y           Z
 --------------------------------------------------------------------
    1          7             0       -4.218881    0.163861   -0.463966
    2          6             0       -2.740921    0.229473   -0.666501
    3          6             0       -1.950329   -0.184209    0.572207
    4          6             0       -0.462509   -0.123807    0.377672
    5          6             0        0.245588    1.046270    0.652457
    6          6             0        1.609868    1.110112    0.456872
    7          6             0        2.301550    0.002258   -0.025408
    8          9             0        3.607220    0.063551   -0.222023
    9          6             0        1.602433   -1.168689   -0.305864
   10          6             0        0.238053   -1.227382   -0.108699
   11          1             0       -4.519965   -0.791187   -0.220873
   12          1             0       -4.733673    0.444333   -1.312414
   13          1             0       -4.519215    0.787234    0.300014
   14          1             0       -2.460017    1.247901   -0.961444
   15          1             0       -2.462048   -0.409330   -1.513321
   16          1             0       -2.235913   -1.198947    0.870030
   17          1             0       -2.231433    0.451654    1.418477
   18          1             0       -0.281496    1.908593    1.028598
   19          1             0        2.166183    2.009190    0.672669
   20          1             0        2.153127   -2.019903   -0.675674
   21          1             0       -0.295012   -2.139039   -0.327145
 --------------------------------------------------------------------
     1 basis functions        1 primitive gaussians
     1 alpha electrons        1 beta electrons

 Harmonic frequencies (cm**-1), IR intensities (km*mol⁻¹),
 Raman scattering activities (A**4/amu), Raman depolarization ratios,
 reduced masses (AMU), force constants (mDyne/A) and normal coordinates:
                      1                      2                      3
                        a                      a                      a 
 Frequencies --    33.5361                77.0305                94.1729
 Red. masses --     9.2198                13.5578                 7.4545
 Frc consts  --     0.0000                 0.0000                 0.0000
 IR Inten    --     3.1163                 7.1819                 9.8660
 Raman Activ --     0.0000                 0.0000                 0.0000
 Depolar     --     0.0000                 0.0000                 0.0000
 Atom AN      X      Y      Z        X      Y      Z        X      Y      Z
   1   7    -0.00  -0.30  -0.10     0.20   0.12  -0.37     0.00  -0.46  -0.15
   2   6    -0.00  -0.26  -0.09     0.23  -0.00  -0.01     0.00   0.44   0.15
   3   6     0.00   0.33   0.11    -0.04  -0.05   0.15     0.00   0.11   0.04
   4   6     0.00   0.21   0.07    -0.02  -0.10   0.29     0.00   0.09   0.03
   5   6     0.14   0.08   0.24    -0.02  -0.09   0.26     0.05   0.07  -0.02
   6   6     0.15  -0.04   0.22    -0.05  -0.03   0.09     0.05   0.01  -0.05
   7   6     0.00  -0.03  -0.01    -0.08   0.02  -0.05    -0.00  -0.04  -0.01
   8   9    -0.00  -0.20  -0.06    -0.18   0.18  -0.53    -0.00  -0.15  -0.05
   9   6    -0.15   0.10  -0.20    -0.05  -0.03   0.09    -0.05  -0.02   0.04
  10   6    -0.14   0.21  -0.15    -0.03  -0.09   0.26    -0.05   0.05   0.06
  11   1     0.02  -0.06   0.09     0.01   0.04  -0.12     0.12  -0.21  -0.25
  12   1    -0.00  -0.19  -0.06     0.11   0.04  -0.13     0.00  -0.02  -0.01
  13   1    -0.02   0.01  -0.10     0.02   0.04  -0.12    -0.13  -0.32   0.07
  14   1    -0.02  -0.10  -0.15     0.11  -0.01   0.01    -0.13   0.21   0.21
  15   1     0.02  -0.17   0.05     0.10  -0.01   0.01     0.13   0.30  -0.04
  16   1    -0.00   0.13   0.17    -0.04  -0.01   0.03    -0.01   0.01  -0.07
  17   1     0.00   0.21  -0.06    -0.04  -0.01   0.03     0.01  -0.04   0.06
  18   1     0.07   0.02   0.12    -0.00  -0.03   0.09     0.03   0.03  -0.01
  19   1     0.07  -0.04   0.11    -0.02  -0.00   0.01     0.03  -0.00  -0.03
  20   1    -0.07   0.03  -0.11    -0.02  -0.00   0.01    -0.03  -0.02   0.02
  21   1    -0.07   0.09  -0.08    -0.01  -0.03   0.09    -0.03   0.02   0.03
                      4                      5                      6
                        a                      a                      a 
 Frequencies --   189.8247               206.8327               287.5325
 Red. masses --    11.7784                 1.9968                10.8742
 Frc consts  --     0.0000                 0.0000                 0.0000
 IR Inten    --     8.2934                 0.4269                14.3895
 Raman Activ --     0.0000                 0.0000                 0.0000
 Depolar     --     0.0000                 0.0000                 0.0000
 Atom AN      X      Y      Z        X      Y      Z        X      Y      Z
   1   7    -0.21  -0.06   0.16    -0.00   0.05   0.02     0.49  -0.11   0.33
   2   6    -0.25   0.09  -0.26    -0.00  -0.25  -0.09     0.30   0.09  -0.28
   3   6    -0.03   0.12  -0.36    -0.00   0.03   0.01     0.08   0.07  -0.21
   4   6     0.02   0.04  -0.12     0.00   0.06   0.02     0.02  -0.00   0.01
   5   6     0.09  -0.06   0.14     0.02   0.05   0.01    -0.10   0.04   0.02
   6   6     0.11  -0.11   0.29     0.02   0.02   0.01    -0.13   0.04   0.01
   7   6     0.11  -0.05   0.15     0.00   0.01   0.00    -0.21  -0.00   0.01
   8   9     0.04   0.13  -0.39     0.00  -0.04  -0.02    -0.28  -0.02   0.06
   9   6     0.11  -0.09   0.29    -0.02   0.02   0.01    -0.13  -0.04  -0.02
  10   6     0.09  -0.04   0.14    -0.02   0.05   0.02    -0.10  -0.05  -0.01
  11   1    -0.00  -0.02   0.07    -0.14  -0.07  -0.49     0.23  -0.05   0.14
  12   1    -0.14  -0.03   0.09    -0.00   0.54   0.18    -0.03  -0.06   0.17
  13   1    -0.01  -0.02   0.07     0.14  -0.35   0.36     0.22  -0.05   0.14
  14   1    -0.12   0.03  -0.09     0.04  -0.10  -0.09     0.06   0.03  -0.09
  15   1    -0.11   0.03  -0.09    -0.04  -0.13   0.01     0.06   0.03  -0.09
  16   1    -0.02   0.04  -0.10     0.01   0.03   0.08    -0.01   0.02  -0.08
  17   1    -0.01   0.03  -0.10    -0.01   0.07  -0.05    -0.01   0.03  -0.08
  18   1     0.03  -0.01   0.04     0.01   0.02   0.00    -0.05   0.00   0.00
  19   1     0.03  -0.04   0.11     0.01   0.00   0.00    -0.02   0.00  -0.01
  20   1     0.03  -0.04   0.11    -0.01   0.00   0.00    -0.02   0.00  -0.01
  21   1     0.03  -0.01   0.04    -0.01   0.02   0.01    -0.05  -0.00  -0.00
                      7                      8                      9
                        a                      a                      a 
 Frequencies --   293.4430               368.2473               380.1906
 Red. masses --    10.8297                11.3996                 9.0028
 Frc consts  --     0.0000                 0.0000                 0.0000
 IR Inten    --     1.6649                 3.7250                 0.0383
 Raman Activ --     0.0000                 0.0000                 0.0000
 Depolar     --     0.0000                 0.0000                 0.0000
 Atom AN      X      Y      Z        X      Y      Z        X      Y      Z
   1   7     0.00   0.02   0.01    -0.09  -0.01   0.03    -0.00   0.00   0.00
   2   6     0.00  -0.12  -0.04    -0.11   0.08  -0.23    -0.00   0.01   0.00
   3   6    -0.00  -0.44  -0.15    -0.13   0.05  -0.15    -0.00  -0.01  -0.00
   4   6     0.00   0.23   0.08    -0.02  -0.12   0.36    -0.00   0.01   0.00
   5   6     0.02   0.23   0.08     0.07  -0.14   0.29    -0.06   0.14  -0.40
   6   6     0.06   0.18   0.05    -0.00   0.05  -0.26     0.07  -0.14   0.39
   7   6    -0.00   0.13   0.04     0.05   0.13  -0.38     0.00  -0.01  -0.01
   8   9    -0.00  -0.46  -0.15     0.21  -0.08   0.22     0.00   0.02   0.01
   9   6    -0.06   0.17   0.07    -0.00   0.12  -0.23    -0.07   0.12  -0.40
  10   6    -0.02   0.23   0.08     0.07  -0.06   0.31     0.06  -0.13   0.40
  11   1    -0.02   0.02   0.05     0.01  -0.01   0.03     0.00  -0.00  -0.00
  12   1    -0.00  -0.02  -0.00    -0.09  -0.01   0.04    -0.00   0.00   0.00
  13   1     0.02   0.05  -0.02     0.01  -0.01   0.03    -0.00  -0.00   0.00
  14   1     0.03  -0.03   0.05    -0.05   0.03  -0.07    -0.00   0.00   0.00
  15   1    -0.03   0.01  -0.05    -0.05   0.02  -0.07     0.00   0.01  -0.00
  16   1     0.13  -0.21  -0.22    -0.09   0.02  -0.06     0.01  -0.01  -0.01
  17   1    -0.13  -0.30   0.05    -0.09   0.02  -0.06    -0.01  -0.01   0.00
  18   1     0.02   0.07   0.02     0.04  -0.05   0.14    -0.04   0.09  -0.25
  19   1     0.02   0.05   0.01    -0.02   0.03  -0.09     0.04  -0.08   0.23
  20   1    -0.02   0.05   0.02    -0.02   0.03  -0.08    -0.04   0.07  -0.24
  21   1    -0.02   0.07   0.03     0.04  -0.05   0.14     0.04  -0.08   0.26
                     10                     11                     12
                        a                      a                      a 
 Frequencies --   391.0843               470.9400               517.6281
 Red. masses --    11.6743                11.1184                10.4730
 Frc consts  --     0.0000                 0.0000                 0.0000
 IR Inten    --     4.3622                 0.6443                 3.7437
 Raman Activ --     0.0000                 0.0000                 0.0000
 Depolar     --     0.0000                 0.0000                 0.0000
 Atom AN      X      Y      Z        X      Y      Z        X      Y      Z
   1   7     0.00   0.00   0.00     0.12  -0.02   0.06    -0.19   0.01  -0.03
   2   6     0.00   0.06   0.02     0.04   0.04  -0.11    -0.09   0.02  -0.05
   3   6     0.00   0.16   0.05    -0.30  -0.02   0.07     0.20   0.03  -0.10
   4   6    -0.00  -0.27  -0.09    -0.24  -0.10   0.31     0.31  -0.12   0.36
   5   6    -0.14  -0.19  -0.06    -0.10  -0.07  -0.18     0.11   0.10   0.04
   6   6    -0.11   0.28   0.13    -0.04  -0.12  -0.07     0.06   0.17  -0.11
   7   6     0.00   0.34   0.12     0.29  -0.12   0.35    -0.11  -0.14   0.42
   8   9    -0.00  -0.47  -0.16     0.36   0.05  -0.16    -0.32   0.00  -0.01
   9   6     0.11   0.30   0.07    -0.04   0.14   0.02     0.06  -0.07  -0.19
  10   6     0.13  -0.19  -0.07    -0.10   0.17  -0.10     0.11  -0.10  -0.03
  11   1     0.01  -0.01  -0.01     0.07  -0.01   0.04    -0.07   0.01  -0.02
  12   1     0.00  -0.00  -0.00    -0.04  -0.02   0.05    -0.02   0.01  -0.02
  13   1    -0.01  -0.01   0.00     0.07  -0.01   0.04    -0.07   0.01  -0.02
  14   1    -0.01   0.01  -0.02     0.02   0.01  -0.02    -0.06   0.01  -0.03
  15   1     0.01   0.00   0.02     0.02   0.01  -0.02    -0.06   0.01  -0.03
  16   1    -0.09   0.10   0.12    -0.13  -0.00  -0.00     0.04   0.01  -0.03
  17   1     0.09   0.15  -0.03    -0.13   0.00   0.00     0.04   0.01  -0.03
  18   1    -0.11  -0.10  -0.03    -0.01   0.05  -0.19    -0.03   0.06  -0.15
  19   1    -0.12   0.13   0.07    -0.09   0.04  -0.13     0.04   0.08  -0.24
  20   1     0.12   0.15   0.02    -0.09   0.05  -0.13     0.04   0.08  -0.24
  21   1     0.11  -0.09  -0.04    -0.01   0.07  -0.18    -0.03   0.04  -0.16
                     13                     14                     15
                        a                      a                      a 
 Frequencies --   609.0302               673.9826               763.0950
 Red. masses --    11.4661                11.2120                11.3674
 Frc consts  --     0.0000                 0.0000                 0.0000
 IR Inten    --     0.1665                 2.1324                25.0005
 Raman Activ --     0.0000                 0.0000                 0.0000
 Depolar     --     0.0000                 0.0000                 0.0000
 Atom AN      X      Y      Z        X      Y      Z        X      Y      Z
   1   7    -0.00  -0.00  -0.00     0.06  -0.00   0.01    -0.07  -0.01   0.03
   2   6    -0.00  -0.02  -0.01     0.02  -0.03   0.08     0.03  -0.02   0.06
   3   6    -0.00  -0.06  -0.02     0.04   0.01  -0.03     0.45   0.06  -0.19
   4   6    -0.00  -0.10  -0.03    -0.11   0.17  -0.50     0.18  -0.03   0.10
   5   6     0.39  -0.24  -0.14    -0.02  -0.11   0.30    -0.27   0.13   0.09
   6   6     0.39   0.24   0.02    -0.11   0.05  -0.28    -0.26  -0.09   0.08
   7   6     0.00   0.09   0.03     0.11  -0.14   0.43     0.06   0.04  -0.11
   8   9     0.00   0.16   0.06     0.08   0.02  -0.05     0.41   0.01  -0.04
   9   6    -0.38   0.20   0.13    -0.11   0.13  -0.26    -0.26   0.02   0.12
  10   6    -0.39  -0.28  -0.03    -0.02  -0.09   0.31    -0.27  -0.16  -0.00
  11   1    -0.01   0.00   0.00     0.00   0.00  -0.01    -0.09   0.01  -0.04
  12   1    -0.00   0.00   0.00     0.04   0.00  -0.01     0.10   0.02  -0.06
  13   1     0.01   0.00  -0.00     0.00   0.00  -0.01    -0.09   0.01  -0.04
  14   1     0.00  -0.00   0.01     0.01  -0.01   0.02    -0.04   0.00  -0.00
  15   1    -0.00   0.00  -0.01     0.01  -0.01   0.02    -0.04   0.00  -0.01
  16   1     0.03  -0.04  -0.05     0.06  -0.00   0.01     0.14   0.02  -0.04
  17   1    -0.03  -0.06   0.02     0.06  -0.00   0.01     0.14   0.01  -0.04
  18   1     0.08  -0.08  -0.04     0.00  -0.04   0.12    -0.14   0.03  -0.07
  19   1     0.09   0.08   0.01    -0.06   0.04  -0.12    -0.12   0.02  -0.04
  20   1    -0.09   0.07   0.04    -0.06   0.04  -0.12    -0.12   0.01  -0.05
  21   1    -0.08  -0.09  -0.02     0.00  -0.04   0.12    -0.14   0.02  -0.08
                     16                     17                     18
                        a                      a                      a 
 Frequencies --   789.9691               818.3453               868.3270
 Red. masses --     2.0477                 5.4438                10.1871
 Frc consts  --     0.0000                 0.0000                 0.0000
 IR Inten    --    27.2754                47.1353                 6.5537
 Raman Activ --     0.0000                 0.0000                 0.0000
 Depolar     --     0.0000                 0.0000                 0.0000
 Atom AN      X      Y      Z        X      Y      Z        X      Y      Z
   1   7     0.00  -0.04  -0.01     0.07  -0.00  -0.00    -0.06   0.05  -0.12
   2   6    -0.00  -0.20  -0.07    -0.01  -0.02   0.07    -0.01   0.03  -0.10
   3   6    -0.00  -0.19  -0.06    -0.08   0.01  -0.02    -0.22  -0.08   0.23
   4   6    -0.00   0.01   0.00    -0.10   0.08  -0.22     0.08   0.04  -0.12
   5   6     0.02   0.04  -0.00     0.08  -0.15   0.17    -0.08   0.35   0.16
   6   6     0.03   0.02  -0.01     0.07  -0.10   0.18     0.05   0.31   0.12
   7   6     0.00  -0.01  -0.00    -0.05   0.09  -0.28    -0.06   0.01  -0.02
   8   9    -0.00   0.01   0.00    -0.09  -0.02   0.07     0.29   0.01  -0.04
   9   6    -0.03   0.01   0.01     0.07  -0.03   0.20     0.05  -0.32  -0.08
  10   6    -0.01   0.03   0.03     0.08   0.02   0.23    -0.08  -0.37  -0.07
  11   1    -0.21   0.08   0.09     0.01   0.00  -0.00     0.16  -0.02   0.06
  12   1    -0.00   0.06   0.02     0.04   0.00  -0.01    -0.27  -0.04   0.11
  13   1     0.21   0.12  -0.02     0.01   0.00  -0.00     0.12  -0.03   0.06
  14   1    -0.09   0.12   0.48     0.01  -0.01   0.02     0.06  -0.00  -0.00
  15   1     0.09   0.38  -0.31     0.01  -0.01   0.02     0.04   0.00  -0.00
  16   1    -0.04   0.07   0.36     0.01  -0.00   0.01    -0.07  -0.02   0.07
  17   1     0.04   0.28  -0.25     0.01  -0.00   0.01    -0.06  -0.02   0.06
  18   1     0.02   0.01   0.02    -0.03   0.12  -0.39    -0.10   0.07   0.00
  19   1     0.02  -0.01   0.01    -0.05   0.11  -0.35     0.08   0.07  -0.05
  20   1    -0.02  -0.00  -0.01    -0.05   0.12  -0.35     0.08  -0.02  -0.10
  21   1    -0.02   0.03  -0.01    -0.03   0.14  -0.38    -0.11  -0.05  -0.06
                     19                     20                     21
                        a                      a                      a 
 Frequencies --   870.4219               872.3229               906.9729
 Red. masses --     3.2317                 2.8398                 6.7023
 Frc consts  --     0.0000                 0.0000                 0.0000
 IR Inten    --     2.9286                14.9033                36.3041
 Raman Activ --     0.0000                 0.0000                 0.0000
 Depolar     --     0.0000                 0.0000                 0.0000
 Atom AN      X      Y      Z        X      Y      Z        X      Y      Z
   1   7    -0.00  -0.08  -0.03     0.00   0.18   0.06    -0.32   0.06  -0.19
   2   6    -0.00  -0.02  -0.01     0.00   0.03   0.01     0.17   0.06  -0.17
   3   6    -0.01   0.10   0.04     0.01  -0.27  -0.09     0.28  -0.07   0.22
   4   6     0.00   0.01  -0.00    -0.00  -0.01  -0.00     0.04   0.01  -0.04
   5   6     0.03  -0.08   0.23     0.04   0.01   0.10     0.00  -0.11  -0.09
   6   6     0.01  -0.05   0.17     0.04  -0.01   0.07    -0.06  -0.21   0.02
   7   6    -0.00   0.01   0.00     0.00  -0.01  -0.00     0.04   0.00  -0.01
   8   9     0.01  -0.00  -0.00    -0.01   0.01   0.00    -0.10  -0.01   0.02
   9   6    -0.01   0.04  -0.17    -0.05   0.05  -0.06    -0.06   0.16   0.14
  10   6    -0.03   0.05  -0.24    -0.03   0.09  -0.07     0.00   0.14  -0.01
  11   1    -0.17   0.05   0.05     0.41  -0.11  -0.12     0.16  -0.02   0.10
  12   1    -0.01   0.06   0.02     0.00  -0.15  -0.05    -0.49  -0.06   0.17
  13   1     0.18   0.07  -0.01    -0.41  -0.16   0.02     0.16  -0.04   0.09
  14   1    -0.11   0.03   0.00     0.26  -0.06   0.03     0.09   0.01  -0.03
  15   1     0.12   0.02   0.01    -0.26  -0.02  -0.06     0.09   0.01  -0.03
  16   1     0.02  -0.01  -0.09    -0.08   0.04   0.27     0.13  -0.03   0.07
  17   1    -0.02  -0.07   0.07     0.09   0.19  -0.20     0.13  -0.02   0.08
  18   1    -0.08   0.14  -0.42    -0.01   0.08  -0.17     0.05  -0.07   0.12
  19   1    -0.06   0.12  -0.34     0.00   0.04  -0.15    -0.09   0.02  -0.16
  20   1     0.07  -0.11   0.34    -0.01  -0.05   0.15    -0.09   0.08  -0.14
  21   1     0.07  -0.15   0.42     0.01  -0.03   0.18     0.05  -0.02   0.13
                     22                     23                     24
                        a                      a                      a 
 Frequencies --   911.1355               924.5761               987.6469
 Red. masses --     3.1914                 3.9816                10.3331
 Frc consts  --     0.0000                 0.0000                 0.0000
 IR Inten    --    12.1497                 0.0147                19.6866
 Raman Activ --     0.0000                 0.0000                 0.0000
 Depolar     --     0.0000                 0.0000                 0.0000
 Atom AN      X      Y      Z        X      Y      Z        X      Y      Z
   1   7     0.11  -0.02   0.07     0.00   0.00   0.00    -0.45  -0.08   0.24
   2   6    -0.06  -0.02   0.05    -0.00  -0.00  -0.00     0.69   0.03  -0.09
   3   6    -0.09   0.03  -0.08    -0.00  -0.01  -0.00    -0.11   0.01  -0.04
   4   6    -0.02   0.00  -0.01    -0.00   0.00  -0.00    -0.07   0.02  -0.06
   5   6    -0.03   0.10  -0.16     0.03  -0.07   0.22     0.00  -0.02   0.00
   6   6     0.05  -0.01   0.20    -0.04   0.09  -0.27     0.03   0.08   0.03
   7   6    -0.01   0.00  -0.00    -0.00  -0.00  -0.00    -0.01   0.00  -0.00
   8   9     0.03  -0.00   0.01     0.00   0.00   0.00     0.02   0.00  -0.00
   9   6     0.05  -0.11   0.16     0.04  -0.09   0.27     0.03  -0.08  -0.03
  10   6    -0.03   0.01  -0.19    -0.04   0.08  -0.22     0.00   0.01   0.02
  11   1    -0.06   0.01  -0.04    -0.00   0.00   0.00    -0.25   0.00  -0.03
  12   1     0.18   0.02  -0.06     0.00  -0.00  -0.00     0.08   0.01  -0.04
  13   1    -0.06   0.02  -0.03    -0.00   0.00  -0.00    -0.25   0.01  -0.02
  14   1    -0.03  -0.00   0.01    -0.00   0.00   0.00     0.13   0.02  -0.02
  15   1    -0.03  -0.00   0.01     0.00   0.00  -0.00     0.13  -0.00  -0.03
  16   1    -0.05   0.01  -0.03    -0.01   0.00   0.00    -0.10   0.01  -0.06
  17   1    -0.05   0.01  -0.03     0.01   0.00  -0.00    -0.10   0.03  -0.05
  18   1     0.06  -0.13   0.41    -0.06   0.12  -0.34    -0.01  -0.01  -0.01
  19   1    -0.04   0.15  -0.41     0.07  -0.15   0.44     0.00   0.03  -0.00
  20   1    -0.04   0.13  -0.41    -0.07   0.15  -0.45     0.00  -0.02  -0.02
  21   1     0.06  -0.14   0.40     0.06  -0.12   0.35    -0.01   0.01  -0.01
                     25                     26                     27
                        a                      a                      a 
 Frequencies --  1015.9199              1043.8308              1095.3844
 Red. masses --     8.3607                 4.4086                 8.7737
 Frc consts  --     0.0000                 0.0000                 0.0000
 IR Inten    --    10.2121                 5.7646                24.8124
 Raman Activ --     0.0000                 0.0000                 0.0000
 Depolar     --     0.0000                 0.0000                 0.0000
 Atom AN      X      Y      Z        X      Y      Z        X      Y      Z
   1   7    -0.02  -0.01   0.04    -0.00  -0.14  -0.05     0.07  -0.06   0.17
   2   6     0.06   0.00  -0.00     0.00   0.25   0.08    -0.13   0.17  -0.52
   3   6    -0.13  -0.00   0.01    -0.00  -0.34  -0.11     0.17  -0.17   0.52
   4   6     0.10   0.01  -0.04    -0.00  -0.14  -0.05    -0.00   0.03  -0.09
   5   6    -0.02   0.34   0.12     0.00   0.14   0.03     0.00  -0.01   0.01
   6   6    -0.03  -0.39  -0.13     0.06   0.07   0.02    -0.01  -0.01   0.01
   7   6     0.08   0.00  -0.01    -0.00  -0.07  -0.02    -0.00   0.00  -0.00
   8   9    -0.12  -0.01   0.02     0.00   0.01   0.00     0.00   0.00  -0.00
   9   6    -0.03   0.39   0.13    -0.05   0.07   0.03    -0.01   0.01   0.01
  10   6    -0.02  -0.35  -0.11    -0.00   0.13   0.05     0.00   0.00   0.01
  11   1    -0.03   0.00  -0.01    -0.18   0.04   0.05    -0.14   0.01  -0.08
  12   1     0.04   0.00  -0.01    -0.00   0.06   0.02     0.26   0.03  -0.09
  13   1    -0.03   0.00  -0.01     0.18   0.05  -0.02    -0.14   0.04  -0.07
  14   1     0.01   0.00   0.00    -0.07   0.00  -0.25    -0.15   0.06  -0.21
  15   1     0.01  -0.00   0.00     0.07  -0.15   0.20    -0.15   0.07  -0.20
  16   1    -0.07   0.00  -0.01    -0.46   0.06   0.06     0.01  -0.04   0.11
  17   1    -0.07   0.00  -0.01     0.46   0.09  -0.01     0.01  -0.04   0.11
  18   1     0.17   0.20   0.03     0.00   0.04   0.02    -0.02  -0.00  -0.02
  19   1     0.19  -0.21  -0.10     0.13  -0.04  -0.03    -0.00  -0.00  -0.01
  20   1     0.19   0.23   0.05    -0.13  -0.05   0.00    -0.00   0.01  -0.01
  21   1     0.17  -0.18  -0.10    -0.00   0.04   0.00    -0.02   0.02  -0.01
                     28                     29                     30
                        a                      a                      a 
 Frequencies --  1126.3398              1175.1624              1201.3467
 Red. masses --     2.7933                 2.5016                 4.1759
 Frc consts  --     0.0000                 0.0000                 0.0000
 IR Inten    --     5.2496                13.2445                 7.6529
 Raman Activ --     0.0000                 0.0000                 0.0000
 Depolar     --     0.0000                 0.0000                 0.0000
 Atom AN      X      Y      Z        X      Y      Z        X      Y      Z
   1   7     0.00   0.05   0.02     0.00  -0.00   0.01    -0.00  -0.26  -0.09
   2   6    -0.00  -0.09  -0.03    -0.00   0.00  -0.01     0.00   0.39   0.13
   3   6     0.00   0.11   0.04    -0.05  -0.01   0.02    -0.00  -0.09  -0.03
   4   6    -0.00  -0.15  -0.05     0.10   0.01  -0.02     0.00   0.10   0.03
   5   6    -0.12   0.08   0.05     0.08   0.14   0.04    -0.03  -0.05  -0.01
   6   6     0.08   0.13   0.03    -0.04   0.03   0.02     0.02  -0.02  -0.01
   7   6    -0.00  -0.12  -0.04     0.17   0.01  -0.03     0.00   0.03   0.01
   8   9     0.00   0.00   0.00    -0.13  -0.01   0.02    -0.00   0.00   0.00
   9   6    -0.08   0.12   0.05    -0.04  -0.03  -0.00    -0.03  -0.02  -0.00
  10   6     0.13   0.09   0.01     0.08  -0.14  -0.06     0.03  -0.04  -0.03
  11   1     0.05  -0.01  -0.01    -0.00  -0.00  -0.00    -0.23   0.03   0.08
  12   1     0.00  -0.02  -0.01     0.01   0.00  -0.00    -0.00   0.09   0.03
  13   1    -0.05  -0.01   0.01    -0.00   0.00  -0.00     0.23   0.07  -0.04
  14   1    -0.02   0.00   0.06    -0.00   0.00   0.00     0.37  -0.04  -0.11
  15   1     0.02   0.04  -0.05    -0.00  -0.00   0.00    -0.37  -0.10   0.07
  16   1     0.08  -0.01  -0.04    -0.03  -0.00  -0.01     0.30  -0.04   0.21
  17   1    -0.08  -0.03   0.03    -0.03   0.01  -0.01    -0.30   0.10  -0.19
  18   1    -0.38  -0.18  -0.00     0.29   0.20   0.02    -0.10  -0.06  -0.01
  19   1     0.42  -0.17  -0.13    -0.47   0.25   0.16     0.01  -0.01  -0.00
  20   1    -0.42  -0.21  -0.00    -0.47  -0.29  -0.02    -0.01  -0.01  -0.00
  21   1     0.38  -0.15  -0.11     0.29  -0.17  -0.11     0.09  -0.06  -0.03
                     31                     32                     33
                        a                      a                      a 
 Frequencies --  1213.7658              1246.3289              1264.9555
 Red. masses --     6.3029                 2.3772                 4.0821
 Frc consts  --     0.0000                 0.0000                 0.0000
 IR Inten    --    24.9356                12.8972                 0.4195
 Raman Activ --     0.0000                 0.0000                 0.0000
 Depolar     --     0.0000                 0.0000                 0.0000
 Atom AN      X      Y      Z        X      Y      Z        X      Y      Z
   1   7    -0.02  -0.00  -0.00     0.00  -0.12  -0.04     0.00   0.03   0.01
   2   6     0.01   0.01  -0.03    -0.00  -0.09  -0.03     0.00   0.04   0.01
   3   6     0.22   0.02  -0.06     0.00   0.23   0.08    -0.00  -0.04  -0.01
   4   6    -0.51  -0.03   0.11    -0.00  -0.14  -0.05     0.00  -0.03  -0.01
   5   6    -0.05  -0.03  -0.00    -0.01   0.01   0.00    -0.17  -0.16  -0.02
   6   6     0.01   0.16   0.05    -0.06   0.03   0.02    -0.04  -0.02  -0.00
   7   6    -0.22  -0.01   0.03     0.00   0.04   0.01    -0.00   0.38   0.13
   8   9     0.15   0.01  -0.02    -0.00  -0.01  -0.00     0.00  -0.02  -0.01
   9   6     0.01  -0.16  -0.06     0.06   0.04   0.00     0.04  -0.02  -0.01
  10   6    -0.05   0.02   0.02     0.01   0.01   0.00     0.17  -0.14  -0.08
  11   1    -0.00  -0.00  -0.00    -0.09   0.00   0.03     0.02  -0.00  -0.01
  12   1    -0.00   0.00  -0.00    -0.00   0.02   0.01    -0.00  -0.00  -0.00
  13   1    -0.00   0.00  -0.00     0.08   0.02  -0.02    -0.02  -0.00   0.01
  14   1     0.01   0.00  -0.01     0.45  -0.08   0.24    -0.12   0.02  -0.08
  15   1     0.00   0.00  -0.01    -0.45   0.08  -0.24     0.12  -0.03   0.07
  16   1     0.21  -0.03   0.01    -0.22   0.04  -0.25     0.13  -0.02   0.08
  17   1     0.21   0.01   0.03     0.22  -0.12   0.23    -0.14   0.03  -0.08
  18   1     0.38   0.23   0.02     0.16   0.10   0.01     0.35   0.19   0.01
  19   1     0.15  -0.03  -0.03     0.11  -0.06  -0.04     0.33  -0.19  -0.12
  20   1     0.15   0.05  -0.01    -0.11  -0.07  -0.00    -0.33  -0.22  -0.02
  21   1     0.38  -0.20  -0.13    -0.16   0.09   0.05    -0.35   0.16   0.11
                     34                     35                     36
                        a                      a                      a 
 Frequencies --  1289.9440              1298.4799              1314.9803
 Red. masses --     5.4809                 9.9484                10.2293
 Frc consts  --     0.0000                 0.0000                 0.0000
 IR Inten    --    51.8624                57.6620                 0.0061
 Raman Activ --     0.0000                 0.0000                 0.0000
 Depolar     --     0.0000                 0.0000                 0.0000
 Atom AN      X      Y      Z        X      Y      Z        X      Y      Z
   1   7     0.06   0.04  -0.11    -0.04  -0.03   0.09     0.00   0.00   0.00
   2   6     0.15  -0.07   0.21    -0.14   0.05  -0.15     0.00  -0.05  -0.02
   3   6     0.15  -0.04   0.11    -0.27   0.01  -0.02     0.00  -0.02  -0.01
   4   6     0.15   0.03  -0.09     0.38   0.01  -0.03    -0.00   0.44   0.15
   5   6     0.09  -0.10  -0.04     0.16  -0.11  -0.06    -0.26  -0.15  -0.01
   6   6    -0.13  -0.00   0.02    -0.21  -0.05   0.01     0.33  -0.20  -0.12
   7   6    -0.33  -0.02   0.05    -0.47  -0.02   0.07     0.00   0.34   0.11
   8   9     0.20   0.01  -0.03     0.28   0.01  -0.04    -0.00   0.01   0.00
   9   6    -0.13  -0.01   0.02    -0.21   0.03   0.04    -0.32  -0.23  -0.02
  10   6     0.09   0.10   0.02     0.16   0.12   0.01     0.25  -0.13  -0.08
  11   1     0.00   0.02   0.03     0.00  -0.02  -0.03    -0.00  -0.00  -0.00
  12   1    -0.14  -0.02   0.05     0.11   0.01  -0.04    -0.00  -0.01  -0.00
  13   1     0.00  -0.04   0.01     0.00   0.03  -0.01     0.00  -0.00   0.00
  14   1    -0.31   0.03  -0.11     0.26  -0.03   0.11     0.04  -0.01   0.04
  15   1    -0.31   0.04  -0.11     0.26  -0.04   0.10    -0.04   0.02  -0.04
  16   1    -0.37   0.04  -0.16     0.09  -0.01   0.09    -0.20   0.03  -0.06
  17   1    -0.37   0.06  -0.16     0.09  -0.04   0.08     0.20  -0.01   0.07
  18   1     0.13   0.04  -0.01     0.12   0.00  -0.01    -0.15  -0.09  -0.00
  19   1     0.02  -0.03  -0.02    -0.02  -0.04  -0.01    -0.03   0.01   0.01
  20   1     0.02   0.04   0.01    -0.02   0.04   0.02     0.04   0.02  -0.00
  21   1     0.13  -0.02  -0.03     0.12   0.00  -0.01     0.15  -0.07  -0.05
                     37                     38                     39
                        a                      a                      a 
 Frequencies --  1337.5592              1392.5109              1417.6896
 Red. masses --     4.3692                 2.9718                 9.9801
 Frc consts  --     0.0000                 0.0000                 0.0000
 IR Inten    --     9.6996               207.6018                 1.1481
 Raman Activ --     0.0000                 0.0000                 0.0000
 Depolar     --     0.0000                 0.0000                 0.0000
 Atom AN      X      Y      Z        X      Y      Z        X      Y      Z
   1   7    -0.07  -0.03   0.08    -0.38  -0.00   0.01     0.00  -0.00  -0.00
   2   6    -0.28   0.03  -0.10     0.06  -0.02   0.06     0.00   0.01   0.00
   3   6     0.41  -0.03   0.08    -0.01  -0.00   0.01     0.00   0.06   0.02
   4   6    -0.12   0.01  -0.04     0.00   0.00  -0.01    -0.00  -0.31  -0.10
   5   6    -0.03  -0.00   0.01    -0.00  -0.01  -0.00    -0.38   0.05   0.08
   6   6     0.02   0.02   0.01    -0.00   0.00   0.00     0.36   0.11  -0.02
   7   6     0.06   0.00  -0.01     0.00   0.00  -0.00    -0.00  -0.31  -0.10
   8   9    -0.03  -0.00   0.00    -0.00  -0.00   0.00     0.00   0.04   0.01
   9   6     0.02  -0.02  -0.01    -0.00  -0.00  -0.00    -0.36   0.08   0.08
  10   6    -0.03  -0.00   0.01    -0.00   0.00   0.00     0.38   0.09  -0.03
  11   1     0.04  -0.04  -0.05     0.48  -0.14   0.06     0.01  -0.00   0.01
  12   1     0.06   0.01  -0.02     0.47   0.09  -0.27    -0.00   0.02   0.01
  13   1     0.04   0.06  -0.02     0.48   0.08   0.13    -0.01   0.00  -0.01
  14   1     0.37  -0.06   0.17    -0.08  -0.01  -0.10    -0.01   0.00  -0.01
  15   1     0.37  -0.05   0.17    -0.08   0.06  -0.08     0.01  -0.00   0.01
  16   1    -0.38   0.07  -0.16    -0.01  -0.00  -0.00     0.10  -0.01   0.01
  17   1    -0.38   0.04  -0.17    -0.01   0.00   0.00    -0.10  -0.01  -0.02
  18   1     0.01   0.02  -0.01     0.00   0.00  -0.00     0.14   0.16   0.03
  19   1     0.02   0.00  -0.01     0.00  -0.00  -0.00    -0.10   0.15   0.06
  20   1     0.02   0.00  -0.01     0.01   0.00  -0.00     0.10   0.15   0.04
  21   1     0.01  -0.01  -0.02     0.00  -0.00  -0.00    -0.13   0.15   0.07
                     40                     41                     42
                        a                      a                      a 
 Frequencies --  1436.3987              1439.8283              1481.6139
 Red. masses --     1.6263                 1.6547                 2.1304
 Frc consts  --     0.0000                 0.0000                 0.0000
 IR Inten    --    88.6218                75.0677                19.0232
 Raman Activ --     0.0000                 0.0000                 0.0000
 Depolar     --     0.0000                 0.0000                 0.0000
 Atom AN      X      Y      Z        X      Y      Z        X      Y      Z
   1   7     0.00  -0.20  -0.08    -0.01  -0.08   0.19     0.01  -0.00   0.01
   2   6    -0.00  -0.03  -0.02     0.03  -0.02   0.06    -0.10  -0.08   0.24
   3   6     0.00  -0.00   0.00    -0.02   0.01  -0.03     0.02   0.01  -0.03
   4   6    -0.00   0.01   0.00     0.00  -0.00   0.00    -0.07  -0.00   0.01
   5   6     0.01  -0.00  -0.00     0.00   0.00  -0.00     0.04   0.04   0.01
   6   6    -0.01  -0.00  -0.00     0.00  -0.00  -0.00     0.03  -0.04  -0.02
   7   6     0.00   0.01   0.00    -0.00   0.00  -0.00    -0.09  -0.00   0.01
   8   9    -0.00  -0.00  -0.00     0.00  -0.00   0.00     0.03   0.00  -0.00
   9   6     0.01  -0.00  -0.00     0.00   0.00   0.00     0.03   0.04   0.01
  10   6    -0.01  -0.00   0.00     0.00  -0.00  -0.00     0.04  -0.04  -0.02
  11   1     0.28  -0.01   0.39     0.15  -0.21  -0.58    -0.06   0.02   0.02
  12   1     0.02   0.70   0.22    -0.21   0.01   0.16    -0.03  -0.01   0.02
  13   1    -0.31   0.14  -0.26     0.11   0.54  -0.39    -0.06  -0.03   0.01
  14   1    -0.02   0.00   0.01    -0.05  -0.00  -0.04     0.24  -0.24  -0.57
  15   1     0.03   0.00  -0.00    -0.05   0.03  -0.03     0.25   0.53  -0.31
  16   1    -0.01  -0.00  -0.01     0.00   0.01   0.04    -0.01   0.02   0.05
  17   1     0.01   0.00   0.00     0.01  -0.04   0.03    -0.01  -0.05   0.03
  18   1    -0.00  -0.00  -0.00    -0.00  -0.00   0.00    -0.03  -0.02   0.00
  19   1     0.00  -0.00  -0.00    -0.00   0.00   0.00    -0.04   0.01   0.01
  20   1    -0.00  -0.00  -0.00    -0.00  -0.00  -0.00    -0.04  -0.01   0.00
  21   1     0.00  -0.00  -0.00    -0.00  -0.00   0.00    -0.03   0.01   0.01
                     43                     44                     45
                        a                      a                      a 
 Frequencies --  1494.0433              1502.0073              1558.6366
 Red. masses --     9.7033                 2.0535                11.6083
 Frc consts  --     0.0000                 0.0000                 0.0000
 IR Inten    --   106.9715                11.5434                 1.3634
 Raman Activ --     0.0000                 0.0000                 0.0000
 Depolar     --     0.0000                 0.0000                 0.0000
 Atom AN      X      Y      Z        X      Y      Z        X      Y      Z
   1   7     0.01  -0.00   0.00     0.00  -0.01   0.02     0.00  -0.00  -0.00
   2   6    -0.03  -0.01   0.03    -0.05  -0.01   0.03    -0.00   0.00   0.00
   3   6    -0.10   0.00   0.00    -0.14  -0.08   0.25    -0.00   0.04   0.01
   4   6     0.40   0.02  -0.06     0.05  -0.00   0.00    -0.00  -0.50  -0.17
   5   6    -0.23  -0.23  -0.04    -0.01  -0.01  -0.00     0.14   0.29   0.07
   6   6    -0.16   0.21   0.09    -0.02   0.01   0.01     0.14  -0.27  -0.11
   7   6     0.46   0.02  -0.07     0.03   0.00  -0.00     0.00   0.48   0.16
   8   9    -0.15  -0.01   0.02    -0.01  -0.00   0.00    -0.00  -0.01  -0.00
   9   6    -0.16  -0.22  -0.05    -0.02  -0.01   0.00    -0.14  -0.29  -0.07
  10   6    -0.23   0.21   0.11    -0.01   0.01   0.00    -0.14   0.27   0.11
  11   1    -0.02   0.01   0.00     0.01  -0.01  -0.04    -0.00   0.00   0.00
  12   1    -0.01  -0.00   0.01    -0.01  -0.00   0.01     0.00   0.00   0.00
  13   1    -0.02  -0.01  -0.00     0.01   0.03  -0.02     0.00   0.00  -0.00
  14   1     0.05  -0.04  -0.10     0.05  -0.03  -0.04     0.00   0.00  -0.00
  15   1     0.05   0.09  -0.05     0.05   0.05  -0.02    -0.00  -0.00   0.00
  16   1    -0.04   0.02   0.05     0.21  -0.24  -0.59     0.07  -0.01   0.00
  17   1    -0.04  -0.04   0.03     0.21   0.54  -0.33    -0.07  -0.01  -0.01
  18   1     0.21   0.09  -0.00    -0.01  -0.01  -0.00    -0.08   0.00   0.01
  19   1     0.19  -0.06  -0.05     0.01  -0.01  -0.00    -0.07  -0.01   0.01
  20   1     0.19   0.08  -0.00     0.01   0.01   0.00     0.08  -0.00  -0.01
  21   1     0.21  -0.07  -0.06    -0.01   0.00   0.00     0.08   0.01  -0.01
                     46                     47                     48
                        a                      a                      a 
 Frequencies --  1609.1014              2943.1984              2961.6780
 Red. masses --    11.5613                 1.9279                 2.0130
 Frc consts  --     0.0000                 0.0000                 0.0000
 IR Inten    --    57.0547                 7.3283                 3.1032
 Raman Activ --     0.0000                 0.0000                 0.0000
 Depolar     --     0.0000                 0.0000                 0.0000
 Atom AN      X      Y      Z        X      Y      Z        X      Y      Z
   1   7     0.00  -0.00   0.00    -0.00  -0.00  -0.00    -0.00   0.00   0.00
   2   6    -0.01   0.00  -0.01     0.00   0.11   0.04    -0.00  -0.26  -0.09
   3   6    -0.03  -0.00   0.01    -0.00  -0.25  -0.08    -0.00  -0.12  -0.03
   4   6     0.25   0.01  -0.04    -0.00  -0.01  -0.00    -0.00  -0.00  -0.00
   5   6    -0.42  -0.13   0.02    -0.00   0.00   0.00    -0.00   0.00   0.00
   6   6     0.43  -0.10  -0.10     0.00  -0.00  -0.00     0.00  -0.00  -0.00
   7   6    -0.30  -0.01   0.04     0.00   0.00   0.00     0.00   0.00   0.00
   8   9     0.06   0.00  -0.01    -0.00   0.00   0.00     0.00  -0.00  -0.00
   9   6     0.43   0.14  -0.02    -0.00  -0.00  -0.00    -0.00  -0.00  -0.00
  10   6    -0.42   0.09   0.10     0.00   0.00  -0.00     0.00   0.00   0.00
  11   1    -0.00  -0.00  -0.00     0.01   0.01  -0.00    -0.00  -0.01   0.00
  12   1     0.00   0.00  -0.00     0.00  -0.00  -0.00     0.00   0.00   0.00
  13   1    -0.00   0.00  -0.00    -0.00   0.01   0.01     0.00  -0.01  -0.01
  14   1     0.00  -0.00  -0.00    -0.07  -0.27   0.08     0.16   0.57  -0.17
  15   1     0.00   0.00   0.00     0.07  -0.16  -0.22    -0.16   0.35   0.47
  16   1    -0.01  -0.00  -0.01     0.16   0.59  -0.18     0.08   0.28  -0.08
  17   1    -0.01   0.00  -0.01    -0.15   0.34   0.47    -0.07   0.15   0.20
  18   1     0.06   0.07   0.01     0.00  -0.01  -0.00     0.00  -0.00  -0.00
  19   1    -0.08   0.07   0.04    -0.00   0.00   0.00     0.00   0.00  -0.00
  20   1    -0.08  -0.08  -0.01     0.00   0.00  -0.00    -0.00   0.00   0.00
  21   1     0.06  -0.06  -0.03    -0.01  -0.01  -0.00    -0.00  -0.00  -0.00
                     49                     50                     51
                        a                      a                      a 
 Frequencies --  2971.3719              2985.0562              3097.8344
 Red. masses --     1.4842                 1.5379                 1.7989
 Frc consts  --     0.0000                 0.0000                 0.0000
 IR Inten    --    13.7651                15.7239                17.2751
 Raman Activ --     0.0000                 0.0000                 0.0000
 Depolar     --     0.0000                 0.0000                 0.0000
 Atom AN      X      Y      Z        X      Y      Z        X      Y      Z
   1   7     0.00   0.00  -0.00     0.00  -0.00   0.00     0.00   0.00   0.00
   2   6     0.04   0.03  -0.08     0.08   0.05  -0.17    -0.00   0.00   0.00
   3   6    -0.08  -0.04   0.16     0.04   0.03  -0.09     0.00   0.00   0.00
   4   6    -0.01  -0.00   0.00     0.00   0.00  -0.00     0.00   0.00   0.00
   5   6     0.00  -0.00  -0.00    -0.00  -0.00   0.00    -0.07   0.11   0.05
   6   6     0.00   0.00   0.00     0.00   0.00   0.00    -0.03  -0.05  -0.01
   7   6     0.00   0.00  -0.00    -0.00  -0.00   0.00     0.00  -0.00  -0.00
   8   9    -0.00  -0.00   0.00     0.00   0.00  -0.00    -0.00   0.00   0.00
   9   6     0.00  -0.00  -0.00     0.00  -0.00  -0.00     0.05  -0.07  -0.03
  10   6     0.00   0.00   0.00    -0.00   0.00   0.00     0.10   0.17   0.04
  11   1     0.01   0.01  -0.00     0.00   0.02  -0.00    -0.00  -0.00   0.00
  12   1     0.00  -0.00   0.00    -0.00   0.00  -0.01    -0.00   0.00  -0.00
  13   1     0.01  -0.01  -0.01     0.00  -0.01  -0.01     0.00  -0.00  -0.00
  14   1    -0.08  -0.31   0.07    -0.15  -0.57   0.13     0.00  -0.00   0.00
  15   1    -0.08   0.19   0.23    -0.15   0.39   0.46    -0.00  -0.00  -0.00
  16   1     0.13   0.56  -0.13    -0.07  -0.29   0.07    -0.00  -0.01   0.00
  17   1     0.14  -0.40  -0.48    -0.07   0.20   0.24     0.00  -0.00  -0.01
  18   1    -0.00   0.00   0.00     0.00  -0.00  -0.00     0.25  -0.41  -0.18
  19   1    -0.00  -0.00  -0.00    -0.00  -0.00  -0.00     0.12   0.20   0.05
  20   1    -0.00   0.00   0.00    -0.00   0.00   0.00    -0.17   0.27   0.12
  21   1    -0.00  -0.00  -0.00     0.00   0.00   0.00    -0.34  -0.59  -0.14
                     52                     53                     54
                        a                      a                      a 
 Frequencies --  3099.7253              3110.5726              3111.5443
 Red. masses --     1.7943                 1.8799                 1.8838
 Frc consts  --     0.0000                 0.0000                 0.0000
 IR Inten    --     8.2715                 9.6444                 2.8964
 Raman Activ --     0.0000                 0.0000                 0.0000
 Depolar     --     0.0000                 0.0000                 0.0000
 Atom AN      X      Y      Z        X      Y      Z        X      Y      Z
   1   7    -0.00   0.00   0.00    -0.00   0.00   0.00    -0.00  -0.00   0.00
   2   6     0.00   0.00  -0.00    -0.00  -0.00   0.00    -0.00   0.00   0.00
   3   6    -0.00  -0.00   0.00     0.00  -0.00  -0.00     0.00   0.00   0.00
   4   6    -0.01   0.00   0.00    -0.00   0.00   0.00    -0.01  -0.00   0.00
   5   6    -0.09   0.16   0.07     0.02  -0.02  -0.01    -0.06   0.10   0.04
   6   6    -0.05  -0.08  -0.02    -0.04  -0.06  -0.01     0.12   0.20   0.05
   7   6    -0.01  -0.00   0.00     0.01   0.00  -0.00     0.01   0.00  -0.00
   8   9     0.00   0.00  -0.00    -0.00  -0.00   0.00    -0.00  -0.00   0.00
   9   6    -0.04   0.06   0.02     0.12  -0.19  -0.08     0.03  -0.05  -0.02
  10   6    -0.07  -0.12  -0.03    -0.06  -0.10  -0.02    -0.02  -0.03  -0.01
  11   1     0.00   0.00  -0.00     0.00  -0.00   0.00     0.00   0.00  -0.00
  12   1     0.00  -0.00   0.00     0.00  -0.00   0.00     0.00  -0.00   0.00
  13   1     0.00  -0.00  -0.00     0.00  -0.00  -0.00     0.00  -0.00  -0.00
  14   1    -0.00  -0.00   0.00    -0.00   0.00  -0.00     0.00   0.00   0.00
  15   1    -0.00   0.00   0.00     0.00  -0.00   0.00     0.00  -0.00  -0.00
  16   1     0.00   0.00  -0.00     0.00   0.00  -0.00     0.00  -0.00   0.00
  17   1     0.00  -0.00  -0.01    -0.00   0.00   0.00     0.00  -0.00  -0.00
  18   1     0.34  -0.56  -0.24    -0.05   0.08   0.04     0.20  -0.33  -0.14
  19   1     0.18   0.29   0.07     0.13   0.21   0.05    -0.42  -0.69  -0.17
  20   1     0.13  -0.21  -0.09    -0.42   0.66   0.28    -0.12   0.18   0.08
  21   1     0.25   0.43   0.10     0.20   0.35   0.08     0.06   0.11   0.03
                     55                     56                     57
                        a                      a                      a 
 Frequencies --  3203.4417              3209.3014              3228.5866
 Red. masses --     2.0269                 2.0367                 1.2904
 Frc consts  --     0.0000                 0.0000                 0.0000
 IR Inten    --    82.8223                85.5148                31.1778
 Raman Activ --     0.0000                 0.0000                 0.0000
 Depolar     --     0.0000                 0.0000                 0.0000
 Atom AN      X      Y      Z        X      Y      Z        X      Y      Z
   1   7    -0.06   0.05  -0.27     0.02  -0.28  -0.05     0.13   0.04  -0.05
   2   6     0.00   0.00  -0.01     0.00  -0.01  -0.00     0.01   0.00  -0.01
   3   6     0.00   0.00   0.00    -0.00   0.00   0.00    -0.00  -0.00   0.00
   4   6    -0.00   0.00  -0.00     0.00  -0.00  -0.00    -0.00   0.00  -0.00
   5   6    -0.00   0.00   0.00    -0.00   0.00   0.00    -0.00   0.00   0.00
   6   6    -0.00  -0.00  -0.00    -0.00  -0.00  -0.00     0.00   0.00   0.00
   7   6     0.00  -0.00   0.00     0.00   0.00   0.00     0.00  -0.00   0.00
   8   9     0.00   0.00  -0.00    -0.00  -0.00  -0.00    -0.00  -0.00   0.00
   9   6    -0.00   0.00  -0.00     0.00  -0.00  -0.00     0.00  -0.00  -0.00
  10   6    -0.00  -0.00   0.00     0.00   0.00   0.00    -0.00  -0.00  -0.00
  11   1    -0.06  -0.19   0.02     0.19   0.62  -0.17    -0.17  -0.64   0.15
  12   1     0.41  -0.24   0.70    -0.08   0.02  -0.14    -0.20   0.13  -0.37
  13   1    -0.12   0.26   0.28    -0.18   0.40   0.51    -0.14   0.36   0.42
  14   1    -0.00  -0.01   0.00     0.00   0.02  -0.00    -0.00  -0.02   0.00
  15   1    -0.00   0.01   0.01    -0.00   0.01   0.01    -0.00   0.01   0.01
  16   1    -0.00  -0.00   0.00    -0.00  -0.00  -0.00     0.00   0.00  -0.00
  17   1     0.00   0.00   0.00     0.00  -0.00  -0.00     0.00  -0.00  -0.00
  18   1    -0.00   0.00  -0.00     0.00  -0.00  -0.00     0.00  -0.00  -0.00
  19   1     0.00   0.00   0.00     0.00   0.00   0.00    -0.00  -0.00  -0.00
  20   1    -0.00  -0.00   0.00    -0.00   0.00   0.00    -0.00   0.00   0.00
  21   1    -0.00  -0.00  -0.00    -0.00  -0.00  -0.00     0.00   0.00   0.00
