 Entering Gaussian System
 *********************************************
 Gaussian 98:
 frequency output generated by the xtb code
 *********************************************
                         Standard orientation:
 --------------------------------------------------------------------
  Center     Atomic     Atomic              Coordinates (Angstroms)
  Number     Number      Type              X           Y           Z
 --------------------------------------------------------------------
    1          7             0       -2.340348    0.257032    0.122838
    2          6             0       -0.942799   -0.167124    0.441524
    3          6             0        0.007407   -0.004231   -0.740550
    4          6             0        1.435506   -0.494438   -0.465644
    5          6             0        2.179584    0.332170    0.575842
    6          1             0       -2.361694    1.240642   -0.159244
    7          1             0       -2.956326    0.144757    0.932920
    8          1             0       -2.720514   -0.301567   -0.646120
    9          1             0       -0.950254   -1.213044    0.769266
   10          1             0       -0.580643    0.411165    1.298421
   11          1             0        0.034502    1.048248   -1.041942
   12          1             0       -0.408928   -0.538661   -1.602188
   13          1             0        2.007563   -0.493883   -1.402686
   14          1             0        1.402082   -1.544828   -0.151922
   15          1             0        3.205303   -0.016016    0.711379
   16          1             0        1.692437    0.284464    1.549984
   17          1             0        2.226398    1.382549    0.285340
 --------------------------------------------------------------------
     1 basis functions        1 primitive gaussians
     1 alpha electrons        1 beta electrons

 Harmonic frequencies (cm**-1), IR intensities (km*mol⁻¹),
 Raman scattering activities (A**4/amu), Raman depolarization ratios,
 reduced masses (AMU), force constants (mDyne/A) and normal coordinates:
                      1                      2                      3
                        a                      a                      a 
 Frequencies --    67.0608               132.5386               159.6365
 Red. masses --     4.0829                 7.6250                 3.9918
 Frc consts  --     0.0000                 0.0000                 0.0000
 IR Inten    --     2.8044                12.3555                 1.6591
 Raman Activ --     0.0000                 0.0000                 0.0000
 Depolar     --     0.0000                 0.0000                 0.0000
 Atom AN      X      Y      Z        X      Y      Z        X      Y      Z
   1   7     0.02   0.21   0.01     0.20   0.30   0.18    -0.01   0.13  -0.02
   2   6    -0.11  -0.31  -0.06     0.09  -0.19  -0.09    -0.15  -0.40  -0.08
   3   6     0.01  -0.09   0.06    -0.03  -0.35  -0.20     0.01   0.07   0.12
   4   6    -0.00  -0.07   0.15     0.09   0.06  -0.11     0.01   0.03   0.08
   5   6     0.08   0.22  -0.15    -0.36   0.12   0.18     0.14   0.12  -0.08
   6   1     0.05   0.17   0.41     0.15   0.08   0.03     0.17  -0.06  -0.35
   7   1    -0.08  -0.27  -0.11     0.09   0.16   0.08     0.07   0.45   0.11
   8   1     0.08   0.38  -0.27    -0.05   0.11   0.08    -0.21  -0.15   0.24
   9   1    -0.11  -0.13  -0.14    -0.05  -0.06  -0.04    -0.12  -0.16  -0.16
  10   1    -0.01  -0.22   0.06     0.11  -0.10  -0.03    -0.03  -0.25   0.07
  11   1    -0.00  -0.01   0.06    -0.08  -0.12  -0.14     0.01   0.06   0.16
  12   1     0.03   0.00  -0.01     0.01  -0.19  -0.01     0.04   0.13  -0.05
  13   1    -0.01  -0.11   0.03     0.06   0.13  -0.01    -0.02  -0.03   0.01
  14   1    -0.01   0.01   0.13     0.12  -0.00  -0.09    -0.01   0.02   0.05
  15   1     0.00   0.03   0.02    -0.04   0.20  -0.00     0.01  -0.03   0.02
  16   1     0.00   0.21  -0.05    -0.07  -0.16   0.06     0.02   0.14  -0.03
  17   1     0.08   0.03  -0.17    -0.29   0.07   0.17     0.12   0.01  -0.10
                      4                      5                      6
                        a                      a                      a 
 Frequencies --   234.5089               293.6558               329.5442
 Red. masses --     5.2965                 4.7802                 8.7288
 Frc consts  --     0.0000                 0.0000                 0.0000
 IR Inten    --     8.8114                 3.3718                 9.9410
 Raman Activ --     0.0000                 0.0000                 0.0000
 Depolar     --     0.0000                 0.0000                 0.0000
 Atom AN      X      Y      Z        X      Y      Z        X      Y      Z
   1   7    -0.05   0.08  -0.28     0.07   0.06  -0.14     0.40  -0.05  -0.18
   2   6    -0.18  -0.05   0.23    -0.06  -0.04   0.26     0.20  -0.06   0.27
   3   6    -0.07  -0.12   0.30    -0.14  -0.22   0.16     0.01   0.19   0.20
   4   6     0.06   0.07  -0.05     0.10   0.25  -0.25    -0.16  -0.19  -0.10
   5   6     0.24  -0.01  -0.11     0.03  -0.06   0.04    -0.43   0.04  -0.15
   6   1     0.05   0.02  -0.08     0.08   0.01  -0.05     0.17  -0.02  -0.09
   7   1    -0.12   0.04  -0.15    -0.07   0.04  -0.10    -0.01   0.03  -0.13
   8   1     0.07   0.03  -0.12     0.08   0.02  -0.07     0.19  -0.02  -0.08
   9   1    -0.10  -0.01   0.08    -0.05   0.01   0.13     0.06  -0.03   0.05
  10   1    -0.09  -0.01   0.08    -0.04   0.03   0.05     0.01  -0.03   0.10
  11   1    -0.06  -0.04   0.07    -0.14  -0.08  -0.03     0.07   0.09   0.19
  12   1    -0.03  -0.05   0.10    -0.05  -0.16   0.11    -0.09   0.20   0.01
  13   1    -0.06   0.10  -0.06    -0.02   0.26  -0.10    -0.04  -0.09  -0.02
  14   1     0.10   0.00  -0.07     0.15   0.02  -0.22    -0.08  -0.04  -0.00
  15   1     0.18   0.21  -0.34    -0.11  -0.27   0.27    -0.10   0.10   0.03
  16   1     0.30  -0.31   0.07    -0.22   0.20  -0.09    -0.17   0.03  -0.06
  17   1    -0.24   0.06   0.16     0.35  -0.05  -0.07    -0.19   0.00  -0.09
                      7                      8                      9
                        a                      a                      a 
 Frequencies --   464.7050               786.1055               809.7524
 Red. masses --     8.3600                 2.3701                 2.9853
 Frc consts  --     0.0000                 0.0000                 0.0000
 IR Inten    --     9.8189                33.6308                13.3114
 Raman Activ --     0.0000                 0.0000                 0.0000
 Depolar     --     0.0000                 0.0000                 0.0000
 Atom AN      X      Y      Z        X      Y      Z        X      Y      Z
   1   7     0.34  -0.06  -0.08     0.06  -0.04  -0.01     0.12   0.06  -0.03
   2   6     0.16  -0.11   0.01    -0.02  -0.10  -0.14     0.05   0.17  -0.12
   3   6    -0.34   0.04  -0.22    -0.10  -0.18  -0.04     0.03  -0.02   0.15
   4   6    -0.42   0.27   0.21    -0.14  -0.05   0.13    -0.18  -0.08   0.20
   5   6     0.15  -0.03   0.10     0.01   0.03   0.07    -0.08  -0.06   0.00
   6   1     0.15  -0.02  -0.05     0.15   0.02   0.08    -0.28  -0.01  -0.06
   7   1     0.02   0.03  -0.07     0.06   0.03   0.03     0.13  -0.13   0.05
   8   1     0.13  -0.01  -0.04    -0.12   0.11  -0.03     0.12  -0.15   0.07
   9   1     0.07  -0.03  -0.01     0.07   0.09   0.34    -0.09  -0.04  -0.31
  10   1     0.10  -0.03  -0.02     0.07   0.29  -0.28     0.05  -0.22   0.13
  11   1    -0.21  -0.02  -0.16     0.11   0.05   0.35     0.08  -0.05  -0.10
  12   1    -0.05  -0.13   0.00     0.01   0.29  -0.23    -0.00  -0.10   0.10
  13   1    -0.08  -0.05   0.08    -0.03   0.29   0.04    -0.08   0.39   0.03
  14   1    -0.21   0.10   0.13     0.14  -0.09  -0.20     0.13  -0.13  -0.30
  15   1     0.02  -0.14  -0.14     0.01  -0.01  -0.11     0.00   0.01  -0.13
  16   1     0.18  -0.01   0.10     0.16   0.16   0.10     0.16   0.21   0.10
  17   1     0.13   0.00   0.08     0.02  -0.03  -0.12    -0.06  -0.08  -0.25
                     10                     11                     12
                        a                      a                      a 
 Frequencies --   866.5163               876.4190               944.6269
 Red. masses --     3.8564                 4.1628                 6.9218
 Frc consts  --     0.0000                 0.0000                 0.0000
 IR Inten    --    23.4129                45.7232                19.4094
 Raman Activ --     0.0000                 0.0000                 0.0000
 Depolar     --     0.0000                 0.0000                 0.0000
 Atom AN      X      Y      Z        X      Y      Z        X      Y      Z
   1   7     0.05  -0.16  -0.14     0.22   0.09  -0.15    -0.24   0.04   0.11
   2   6     0.00  -0.01  -0.13    -0.02   0.02  -0.16     0.15  -0.05   0.04
   3   6     0.17   0.15   0.28     0.01  -0.22   0.25     0.40  -0.11   0.03
   4   6    -0.08   0.09   0.07    -0.09   0.16  -0.04    -0.12   0.24   0.14
   5   6    -0.10  -0.11  -0.12    -0.06   0.06  -0.11    -0.32  -0.05  -0.23
   6   1     0.28   0.03   0.18    -0.36   0.03   0.03     0.05  -0.01  -0.06
   7   1     0.25   0.06   0.15     0.39  -0.21   0.18    -0.27   0.09  -0.12
   8   1    -0.44   0.24  -0.02    -0.06  -0.09   0.10     0.11  -0.01  -0.04
   9   1     0.20   0.01   0.01    -0.17   0.03   0.04     0.03  -0.01   0.02
  10   1    -0.24   0.12  -0.01     0.03   0.03  -0.07     0.07  -0.01  -0.01
  11   1    -0.07  -0.04  -0.20     0.01  -0.01   0.23     0.16  -0.03   0.01
  12   1     0.10  -0.23   0.22     0.01   0.08  -0.02     0.22  -0.04  -0.03
  13   1    -0.07   0.05  -0.01    -0.12  -0.13  -0.07    -0.01   0.07   0.05
  14   1    -0.06   0.01  -0.04     0.03   0.10   0.21     0.07   0.08   0.10
  15   1    -0.02  -0.01  -0.04    -0.08  -0.16  -0.02    -0.16  -0.31  -0.30
  16   1    -0.03  -0.01  -0.03    -0.09  -0.19  -0.07     0.08  -0.08   0.02
  17   1    -0.05  -0.04  -0.07     0.12   0.08   0.24     0.14   0.01   0.08
                     13                     14                     15
                        a                      a                      a 
 Frequencies --   985.5606              1006.8016              1044.2059
 Red. masses --     3.9247                 8.1762                 6.2661
 Frc consts  --     0.0000                 0.0000                 0.0000
 IR Inten    --     4.7753                12.9407                 7.3238
 Raman Activ --     0.0000                 0.0000                 0.0000
 Depolar     --     0.0000                 0.0000                 0.0000
 Atom AN      X      Y      Z        X      Y      Z        X      Y      Z
   1   7    -0.09   0.18  -0.08     0.33  -0.10   0.28     0.26  -0.09  -0.00
   2   6     0.10  -0.27   0.09    -0.50   0.10  -0.27    -0.43   0.09   0.19
   3   6     0.13   0.11   0.01     0.05   0.05   0.10     0.07   0.02  -0.20
   4   6     0.08   0.17   0.01     0.02   0.09   0.14     0.22   0.03  -0.11
   5   6    -0.05  -0.22  -0.03     0.03  -0.12  -0.15    -0.22  -0.01   0.05
   6   1    -0.28   0.03  -0.04     0.16  -0.06  -0.05     0.04  -0.01   0.06
   7   1     0.06  -0.09   0.02    -0.12   0.02  -0.08     0.16  -0.04   0.07
   8   1     0.04  -0.08   0.04     0.31  -0.08  -0.00    -0.03  -0.00   0.03
   9   1    -0.13   0.01   0.27    -0.09   0.06   0.03    -0.16   0.02   0.04
  10   1     0.12   0.09  -0.12     0.00   0.07  -0.15    -0.19  -0.02   0.12
  11   1    -0.37   0.05   0.05    -0.04   0.00  -0.03     0.01   0.01  -0.04
  12   1     0.26  -0.10  -0.02     0.28  -0.07  -0.05    -0.08   0.04  -0.03
  13   1     0.16  -0.05   0.09    -0.12   0.04  -0.04     0.37  -0.07   0.16
  14   1    -0.31   0.03  -0.08     0.00   0.01   0.00    -0.05   0.03   0.04
  15   1     0.05   0.14   0.01     0.02   0.08   0.12    -0.07  -0.18  -0.30
  16   1     0.01   0.12   0.01    -0.16  -0.09  -0.12     0.23   0.12   0.16
  17   1    -0.18  -0.12  -0.26    -0.10  -0.03  -0.03     0.09  -0.03  -0.08
                     16                     17                     18
                        a                      a                      a 
 Frequencies --  1120.1415              1143.7378              1167.3890
 Red. masses --     8.5324                 7.4954                 6.8896
 Frc consts  --     0.0000                 0.0000                 0.0000
 IR Inten    --     4.8188                12.8094                 9.0496
 Raman Activ --     0.0000                 0.0000                 0.0000
 Depolar     --     0.0000                 0.0000                 0.0000
 Atom AN      X      Y      Z        X      Y      Z        X      Y      Z
   1   7     0.03  -0.01   0.06     0.03  -0.01  -0.11    -0.05  -0.16   0.02
   2   6    -0.11  -0.03  -0.01    -0.09  -0.01   0.41     0.11   0.33  -0.08
   3   6     0.40  -0.09   0.07     0.21  -0.08  -0.42    -0.01  -0.39   0.11
   4   6    -0.39  -0.09  -0.41    -0.23   0.15   0.21    -0.01   0.38  -0.11
   5   6     0.12   0.23   0.31     0.16  -0.08  -0.14     0.02  -0.24   0.07
   6   1     0.01  -0.01  -0.01    -0.04   0.02   0.06     0.17  -0.03   0.04
   7   1    -0.03   0.00  -0.01     0.13  -0.03   0.06    -0.05   0.08  -0.01
   8   1     0.05  -0.02   0.00    -0.13   0.01   0.03    -0.07   0.08  -0.05
   9   1    -0.09   0.02   0.07    -0.11  -0.02   0.07    -0.07   0.02  -0.23
  10   1    -0.04   0.01  -0.01    -0.13  -0.06   0.20     0.07  -0.12   0.10
  11   1     0.13  -0.05  -0.05     0.26  -0.01  -0.06     0.06  -0.03   0.25
  12   1     0.12  -0.07   0.03     0.09   0.07  -0.18    -0.09   0.12  -0.06
  13   1    -0.15  -0.11  -0.13    -0.11   0.14   0.02     0.07  -0.13   0.02
  14   1    -0.34  -0.04  -0.17     0.01   0.01  -0.05    -0.20   0.14   0.12
  15   1     0.03   0.05   0.02     0.06   0.12   0.19     0.07   0.15   0.04
  16   1     0.11   0.12   0.12    -0.19  -0.10  -0.15     0.00   0.13   0.02
  17   1     0.07   0.06   0.07    -0.11  -0.00   0.01    -0.17  -0.11  -0.23
                     19                     20                     21
                        a                      a                      a 
 Frequencies --  1224.1410              1260.5131              1276.6043
 Red. masses --     3.8121                 2.8140                 1.9476
 Frc consts  --     0.0000                 0.0000                 0.0000
 IR Inten    --    10.5373                 4.2080                 3.3886
 Raman Activ --     0.0000                 0.0000                 0.0000
 Depolar     --     0.0000                 0.0000                 0.0000
 Atom AN      X      Y      Z        X      Y      Z        X      Y      Z
   1   7    -0.05  -0.23  -0.08     0.03   0.06   0.09    -0.01  -0.08   0.01
   2   6     0.07   0.28   0.11     0.06   0.04  -0.13     0.01  -0.12  -0.12
   3   6    -0.02   0.04  -0.01     0.04  -0.20   0.04     0.07   0.10   0.09
   4   6     0.04  -0.21   0.07    -0.07  -0.05   0.12    -0.04   0.09   0.06
   5   6    -0.01   0.16  -0.08     0.10   0.15  -0.18     0.05  -0.01  -0.11
   6   1     0.16  -0.02   0.09    -0.04  -0.00  -0.05     0.04  -0.02   0.00
   7   1     0.03   0.10   0.03    -0.06  -0.00  -0.03    -0.04   0.01  -0.02
   8   1    -0.16   0.10  -0.06     0.07  -0.01   0.01    -0.03   0.03  -0.02
   9   1    -0.41   0.05  -0.06     0.21  -0.01  -0.09    -0.40   0.04   0.19
  10   1     0.38  -0.16   0.03    -0.35   0.05   0.09     0.31   0.00  -0.18
  11   1    -0.32   0.05   0.11    -0.17   0.00   0.18     0.33  -0.05  -0.20
  12   1     0.28  -0.04  -0.10    -0.11   0.04   0.01    -0.48   0.01   0.27
  13   1     0.02   0.06   0.02     0.37   0.13   0.27     0.22   0.09   0.16
  14   1    -0.11  -0.11  -0.18    -0.37  -0.10  -0.29    -0.14   0.01  -0.06
  15   1    -0.05  -0.09   0.02    -0.02  -0.05   0.05     0.01   0.02   0.07
  16   1    -0.00  -0.11  -0.02    -0.12  -0.16  -0.12    -0.06  -0.06  -0.07
  17   1     0.10   0.08   0.14     0.04   0.09   0.17    -0.02   0.02   0.04
                     22                     23                     24
                        a                      a                      a 
 Frequencies --  1310.7567              1356.0379              1360.8888
 Red. masses --     3.2983                 4.0395                 3.7798
 Frc consts  --     0.0000                 0.0000                 0.0000
 IR Inten    --    37.6477                65.7471               109.8173
 Raman Activ --     0.0000                 0.0000                 0.0000
 Depolar     --     0.0000                 0.0000                 0.0000
 Atom AN      X      Y      Z        X      Y      Z        X      Y      Z
   1   7     0.13  -0.08   0.15    -0.13   0.06  -0.05     0.26  -0.07   0.04
   2   6     0.23   0.01  -0.18    -0.09  -0.01   0.03     0.04  -0.03   0.03
   3   6     0.18   0.03  -0.15     0.12  -0.08  -0.12    -0.27  -0.01   0.05
   4   6     0.00  -0.03   0.07     0.35   0.08   0.26     0.26   0.06   0.08
   5   6    -0.01  -0.02   0.06    -0.08   0.07   0.04    -0.06   0.05   0.02
   6   1    -0.12  -0.04  -0.05     0.20   0.03   0.04    -0.39  -0.02  -0.02
   7   1    -0.19   0.09  -0.11     0.14  -0.09   0.09    -0.26   0.15  -0.20
   8   1    -0.09   0.11  -0.01     0.15  -0.14   0.02    -0.31   0.18   0.03
   9   1    -0.44   0.06   0.15     0.09  -0.01  -0.00     0.00  -0.02  -0.02
  10   1    -0.42   0.04   0.14     0.07  -0.02  -0.02    -0.03   0.03  -0.01
  11   1    -0.32   0.06   0.09    -0.08   0.00   0.02     0.35  -0.05  -0.08
  12   1    -0.24   0.03   0.08    -0.31   0.09   0.05     0.18  -0.02  -0.09
  13   1    -0.23   0.02  -0.12    -0.44  -0.06  -0.26    -0.14  -0.07  -0.11
  14   1     0.16   0.01   0.08    -0.35  -0.05  -0.22    -0.31  -0.03  -0.17
  15   1     0.00  -0.01  -0.05    -0.05  -0.11  -0.11    -0.03  -0.06  -0.08
  16   1    -0.01   0.02   0.01    -0.02  -0.08  -0.00     0.01  -0.04   0.01
  17   1    -0.02  -0.02  -0.05     0.01  -0.02  -0.09     0.03  -0.00  -0.04
                     25                     26                     27
                        a                      a                      a 
 Frequencies --  1365.4227              1386.4106              1399.4172
 Red. masses --     3.7463                 1.5627                 1.8484
 Frc consts  --     0.0000                 0.0000                 0.0000
 IR Inten    --   108.6639               121.8804                94.9267
 Raman Activ --     0.0000                 0.0000                 0.0000
 Depolar     --     0.0000                 0.0000                 0.0000
 Atom AN      X      Y      Z        X      Y      Z        X      Y      Z
   1   7    -0.19   0.04   0.09     0.07   0.18   0.05     0.00   0.05  -0.17
   2   6     0.26  -0.03  -0.10    -0.00   0.04   0.02     0.12  -0.00  -0.09
   3   6    -0.31   0.04   0.06     0.01  -0.00  -0.00    -0.11   0.01   0.05
   4   6     0.10   0.01  -0.02    -0.01  -0.01  -0.00     0.01  -0.00  -0.02
   5   6    -0.02   0.01   0.01    -0.00  -0.00  -0.01    -0.00   0.00   0.00
   6   1     0.27  -0.06  -0.21     0.30  -0.05  -0.28     0.15   0.18   0.59
   7   1     0.23  -0.18   0.18    -0.20  -0.65  -0.24    -0.16   0.10  -0.13
   8   1     0.24   0.04  -0.13    -0.41  -0.09   0.29     0.02  -0.52   0.36
   9   1    -0.32   0.04   0.13    -0.02   0.00  -0.02    -0.14   0.02   0.06
  10   1    -0.33   0.02   0.13     0.06  -0.01  -0.00    -0.15   0.01   0.05
  11   1     0.31  -0.03  -0.06    -0.03   0.00   0.01     0.09  -0.02  -0.04
  12   1     0.27  -0.07  -0.09     0.02  -0.00  -0.01     0.09  -0.00  -0.04
  13   1     0.02  -0.02  -0.01     0.00   0.00   0.00     0.03   0.00   0.02
  14   1    -0.11  -0.01  -0.04     0.01  -0.00   0.00    -0.02   0.00   0.00
  15   1    -0.00  -0.01  -0.04     0.00   0.00   0.01     0.00   0.01  -0.01
  16   1     0.00   0.00   0.00     0.01   0.00   0.00    -0.00   0.00  -0.00
  17   1     0.02   0.00  -0.00     0.01   0.00   0.01     0.01   0.00   0.00
                     28                     29                     30
                        a                      a                      a 
 Frequencies --  1434.6514              1485.9395              1501.3448
 Red. masses --     3.2423                 1.8276                 1.9340
 Frc consts  --     0.0000                 0.0000                 0.0000
 IR Inten    --     1.0729                 6.9095                 2.8867
 Raman Activ --     0.0000                 0.0000                 0.0000
 Depolar     --     0.0000                 0.0000                 0.0000
 Atom AN      X      Y      Z        X      Y      Z        X      Y      Z
   1   7    -0.00  -0.00  -0.00    -0.00   0.00  -0.01     0.00   0.00  -0.01
   2   6     0.01  -0.00   0.02    -0.06   0.09  -0.24    -0.04   0.02  -0.04
   3   6    -0.00   0.02   0.04    -0.02  -0.00   0.03    -0.05   0.10  -0.24
   4   6    -0.09  -0.01  -0.06     0.01   0.01  -0.00    -0.03   0.03   0.02
   5   6     0.23   0.23   0.29     0.05   0.00  -0.01    -0.04   0.01   0.06
   6   1     0.01  -0.00  -0.00    -0.04  -0.00  -0.02     0.00   0.01   0.02
   7   1     0.00  -0.01  -0.00    -0.01   0.00  -0.02    -0.00   0.00  -0.01
   8   1    -0.01   0.00   0.00    -0.04   0.03  -0.00    -0.00  -0.02   0.01
   9   1    -0.03  -0.01  -0.04     0.25   0.19   0.58     0.06   0.03   0.07
  10   1     0.04   0.04  -0.04     0.09  -0.56   0.33     0.04  -0.08   0.03
  11   1    -0.00  -0.01  -0.04    -0.01  -0.02  -0.06     0.21   0.16   0.57
  12   1     0.04   0.01  -0.02     0.01   0.05  -0.03     0.00  -0.54   0.33
  13   1     0.09  -0.04   0.05     0.01  -0.04   0.00     0.01  -0.10   0.00
  14   1     0.11  -0.00   0.01     0.02  -0.01  -0.02     0.07  -0.03  -0.08
  15   1    -0.07  -0.37  -0.32    -0.04  -0.12  -0.01     0.05   0.12  -0.08
  16   1    -0.35  -0.30  -0.18    -0.02   0.08  -0.01    -0.06  -0.11  -0.03
  17   1    -0.29  -0.09  -0.43    -0.15   0.02   0.06     0.17  -0.03  -0.09
                     31                     32                     33
                        a                      a                      a 
 Frequencies --  1508.1919              1513.3448              1515.3501
 Red. masses --     1.5714                 1.7514                 1.7320
 Frc consts  --     0.0000                 0.0000                 0.0000
 IR Inten    --     0.2082                 1.0070                 1.2515
 Raman Activ --     0.0000                 0.0000                 0.0000
 Depolar     --     0.0000                 0.0000                 0.0000
 Atom AN      X      Y      Z        X      Y      Z        X      Y      Z
   1   7    -0.00  -0.00   0.00     0.00   0.00  -0.00    -0.00  -0.00  -0.01
   2   6     0.01  -0.01   0.04    -0.01  -0.01   0.02    -0.01   0.01   0.02
   3   6    -0.02   0.02  -0.02    -0.02   0.03  -0.09    -0.00   0.00  -0.02
   4   6    -0.02   0.12   0.08     0.09  -0.12  -0.10     0.08  -0.15  -0.05
   5   6     0.12  -0.08  -0.06     0.10   0.07  -0.11     0.06  -0.14   0.10
   6   1     0.01   0.00   0.01     0.00   0.00   0.01    -0.00   0.00   0.00
   7   1     0.00   0.00   0.00     0.00   0.00   0.00     0.00  -0.00   0.00
   8   1     0.01  -0.01   0.00     0.00  -0.01   0.01    -0.01   0.00  -0.00
   9   1    -0.06  -0.03  -0.11    -0.00  -0.02  -0.05     0.02  -0.00  -0.01
  10   1    -0.00   0.10  -0.07    -0.02   0.05  -0.03     0.04  -0.01  -0.01
  11   1     0.02   0.02   0.07     0.08   0.05   0.19     0.00   0.01   0.04
  12   1    -0.00  -0.06   0.05     0.01  -0.18   0.10     0.01  -0.03   0.01
  13   1     0.02  -0.41   0.00    -0.06   0.36  -0.05    -0.05   0.36  -0.03
  14   1     0.20  -0.11  -0.34    -0.21   0.10   0.31    -0.22   0.07   0.27
  15   1    -0.06  -0.23  -0.10    -0.17  -0.39   0.29     0.12   0.14  -0.48
  16   1    -0.10   0.46  -0.03     0.23   0.08   0.11    -0.41   0.36  -0.18
  17   1    -0.38   0.11   0.35    -0.45   0.04   0.05     0.05   0.06   0.27
                     34                     35                     36
                        a                      a                      a 
 Frequencies --  2911.3803              2931.2193              2946.0305
 Red. masses --     1.9365                 1.8943                 1.5499
 Frc consts  --     0.0000                 0.0000                 0.0000
 IR Inten    --    59.7835                24.2032                78.9421
 Raman Activ --     0.0000                 0.0000                 0.0000
 Depolar     --     0.0000                 0.0000                 0.0000
 Atom AN      X      Y      Z        X      Y      Z        X      Y      Z
   1   7    -0.00   0.00  -0.00     0.00   0.00   0.00     0.00  -0.00  -0.00
   2   6     0.00   0.01  -0.00     0.01   0.04   0.01    -0.00  -0.02  -0.01
   3   6    -0.01   0.00  -0.00    -0.08  -0.24  -0.12     0.02   0.06   0.03
   4   6    -0.11  -0.15   0.22    -0.02   0.04   0.02    -0.07   0.18   0.07
   5   6     0.01   0.01  -0.01    -0.00   0.01  -0.00     0.02  -0.02   0.00
   6   1    -0.00  -0.00  -0.00    -0.00   0.00  -0.00     0.00  -0.00   0.00
   7   1    -0.00   0.00   0.00     0.00  -0.00  -0.00    -0.00   0.00   0.00
   8   1    -0.00  -0.00  -0.00     0.00  -0.00   0.00    -0.00  -0.00  -0.00
   9   1     0.00  -0.02   0.00    -0.00  -0.10   0.04    -0.00   0.06  -0.02
  10   1     0.00   0.00  -0.00    -0.04  -0.06  -0.10     0.02   0.03   0.04
  11   1    -0.00  -0.06   0.01     0.01   0.49  -0.16    -0.00  -0.13   0.04
  12   1     0.01   0.02   0.03     0.28   0.37   0.60    -0.07  -0.09  -0.14
  13   1     0.39  -0.01  -0.64     0.08   0.01  -0.13     0.30   0.04  -0.50
  14   1     0.01   0.56  -0.15    -0.01  -0.18   0.06    -0.04  -0.70   0.24
  15   1    -0.01   0.01  -0.00     0.00  -0.00  -0.00    -0.08   0.03  -0.01
  16   1    -0.02   0.00   0.05    -0.00   0.00   0.00    -0.01  -0.00   0.03
  17   1    -0.00  -0.04   0.01     0.00  -0.01   0.00     0.01   0.05  -0.02
                     37                     38                     39
                        a                      a                      a 
 Frequencies --  2964.0881              2968.5980              2990.7633
 Red. masses --     1.6111                 1.8834                 1.7159
 Frc consts  --     0.0000                 0.0000                 0.0000
 IR Inten    --    27.6964                35.2613                63.6937
 Raman Activ --     0.0000                 0.0000                 0.0000
 Depolar     --     0.0000                 0.0000                 0.0000
 Atom AN      X      Y      Z        X      Y      Z        X      Y      Z
   1   7     0.00   0.00  -0.00    -0.00   0.00   0.00     0.00  -0.00  -0.00
   2   6     0.02   0.15   0.01     0.05   0.24   0.06     0.05  -0.02   0.15
   3   6     0.04  -0.08   0.15    -0.01   0.11  -0.07     0.00  -0.01   0.03
   4   6    -0.00  -0.00   0.01     0.00   0.01  -0.01     0.01  -0.02  -0.00
   5   6     0.00   0.00  -0.01     0.01  -0.00  -0.00     0.17  -0.08  -0.04
   6   1    -0.00   0.01  -0.00     0.00   0.01  -0.00     0.00  -0.01   0.00
   7   1    -0.00  -0.00   0.00     0.00  -0.00  -0.00     0.00  -0.00   0.00
   8   1    -0.00   0.00   0.00     0.00   0.00   0.01     0.01   0.01   0.01
   9   1    -0.00  -0.47   0.14    -0.00  -0.57   0.18     0.01   0.40  -0.10
  10   1    -0.06  -0.08  -0.15    -0.18  -0.27  -0.41    -0.19  -0.32  -0.43
  11   1     0.03   0.60  -0.14    -0.02  -0.49   0.12     0.00   0.09  -0.02
  12   1    -0.19  -0.29  -0.40     0.06   0.10   0.13    -0.03  -0.04  -0.06
  13   1     0.03   0.00  -0.04    -0.01   0.00   0.02    -0.02  -0.00   0.03
  14   1     0.00   0.00   0.00    -0.00  -0.05   0.02     0.00   0.05  -0.02
  15   1     0.00   0.00  -0.00    -0.01   0.00  -0.00    -0.54   0.19  -0.07
  16   1    -0.01  -0.00   0.02    -0.01  -0.00   0.02    -0.11  -0.03   0.25
  17   1     0.00  -0.02   0.00     0.00   0.01  -0.00     0.03   0.13  -0.05
                     40                     41                     42
                        a                      a                      a 
 Frequencies --  2991.8369              2998.2843              3016.9964
 Red. masses --     1.7567                 1.8890                 1.3062
 Frc consts  --     0.0000                 0.0000                 0.0000
 IR Inten    --    33.8467                84.7800                48.2526
 Raman Activ --     0.0000                 0.0000                 0.0000
 Depolar     --     0.0000                 0.0000                 0.0000
 Atom AN      X      Y      Z        X      Y      Z        X      Y      Z
   1   7     0.00  -0.00  -0.00     0.00   0.00  -0.00    -0.00  -0.00  -0.00
   2   6     0.04  -0.02   0.13     0.02   0.00   0.05     0.00   0.00   0.01
   3   6     0.01  -0.00   0.02     0.00  -0.01   0.01     0.00   0.00   0.00
   4   6    -0.01   0.02   0.01    -0.01  -0.02   0.02    -0.00   0.00   0.01
   5   6    -0.16   0.15  -0.04    -0.12  -0.17   0.18     0.02   0.08   0.14
   6   1     0.00  -0.01   0.00    -0.00  -0.00   0.00    -0.00  -0.00   0.00
   7   1    -0.00  -0.00   0.00    -0.00  -0.00   0.00     0.00   0.00  -0.00
   8   1     0.01   0.01   0.01     0.00   0.00   0.00     0.00   0.00   0.00
   9   1     0.01   0.35  -0.09     0.00   0.11  -0.02     0.00   0.02  -0.00
  10   1    -0.17  -0.28  -0.38    -0.06  -0.11  -0.14    -0.02  -0.03  -0.04
  11   1     0.00   0.05  -0.01     0.00   0.04  -0.01     0.00  -0.00   0.00
  12   1    -0.03  -0.05  -0.07    -0.01  -0.01  -0.02    -0.00  -0.01  -0.01
  13   1     0.03   0.00  -0.04     0.03   0.00  -0.04     0.01   0.00  -0.02
  14   1    -0.00  -0.05   0.02     0.00   0.04  -0.02     0.00  -0.00   0.00
  15   1     0.59  -0.20   0.06     0.16  -0.09   0.05    -0.39   0.15  -0.03
  16   1    -0.00   0.03  -0.05     0.26   0.01  -0.49     0.35   0.05  -0.65
  17   1    -0.04  -0.36   0.11     0.01   0.70  -0.19    -0.02  -0.47   0.16
                     43                     44                     45
                        a                      a                      a 
 Frequencies --  3288.6991              3296.4608              3316.7178
 Red. masses --     2.0385                 2.0544                 1.2959
 Frc consts  --     0.0000                 0.0000                 0.0000
 IR Inten    --   190.3458               166.0560                58.3086
 Raman Activ --     0.0000                 0.0000                 0.0000
 Depolar     --     0.0000                 0.0000                 0.0000
 Atom AN      X      Y      Z        X      Y      Z        X      Y      Z
   1   7    -0.10  -0.05   0.26     0.06   0.26   0.08     0.12  -0.05   0.07
   2   6     0.00  -0.00   0.00     0.00   0.01   0.00     0.01  -0.00   0.01
   3   6     0.00  -0.00   0.00    -0.00  -0.00  -0.00    -0.00   0.00  -0.00
   4   6    -0.00  -0.00   0.00     0.00   0.00  -0.00    -0.00  -0.00  -0.00
   5   6    -0.00  -0.00   0.00    -0.00   0.00   0.00     0.00   0.00   0.00
   6   1    -0.01   0.27  -0.06     0.01  -0.64   0.20     0.01   0.62  -0.17
   7   1     0.51   0.10  -0.69    -0.01   0.02   0.02    -0.24  -0.05   0.35
   8   1    -0.12  -0.18  -0.21    -0.24  -0.37  -0.52    -0.21  -0.35  -0.46
   9   1     0.00   0.01  -0.00     0.00  -0.01   0.00     0.00   0.02  -0.00
  10   1    -0.00  -0.00  -0.01    -0.00  -0.01  -0.01    -0.01  -0.01  -0.01
  11   1     0.00   0.00  -0.00    -0.00   0.00   0.00     0.00  -0.00   0.00
  12   1    -0.00  -0.00  -0.00     0.00  -0.00  -0.00     0.00   0.00   0.00
  13   1     0.00   0.00  -0.00    -0.00  -0.00   0.00    -0.00   0.00   0.00
  14   1    -0.00   0.00  -0.00     0.00  -0.00   0.00    -0.00   0.00  -0.00
  15   1     0.00  -0.00  -0.00     0.00  -0.00   0.00    -0.00   0.00  -0.00
  16   1    -0.00  -0.00   0.00     0.00   0.00  -0.00     0.00  -0.00  -0.00
  17   1    -0.00   0.00   0.00     0.00  -0.00   0.00     0.00  -0.00   0.00
