22
 energy: -34.329375635967 gnorm: 0.000479259160 xtb: 6.5.1 (fef0646)
N            0.97313866274761        0.01671412762521       -0.16927369918232
C            2.44529477949638        0.05913731309628       -0.26063040909296
C            2.95529195218932        1.37668125897987        0.32532747885963
C            4.45004558067982        1.35433021335893        0.46351300004648
C            5.26841250112190        1.90131933095431       -0.51692584249620
C            6.64667269320682        1.86606217887642       -0.39479489576146
C            7.20201903274750        1.27038669766295        0.72224657779467
Br           9.12184417345615        1.22173390971588        0.90860845242752
C            6.41329098807421        0.71203011055946        1.71206719048104
C            5.03796890934271        0.75724082133210        1.57293606469308
Cl           0.28580261314685        0.33863265872246        2.79227310368723
H            0.59819864995641       -0.86701583940186       -0.52186246092787
H            0.55172409016782        0.79975962890189       -0.67539720319454
H            0.68977913879452        0.11008923578019        0.84093179663863
H            2.75760758691795       -0.04077940524958       -1.30040910929070
H            2.85361447740130       -0.76898744377047        0.31761802733861
H            2.49937169042751        1.50384315860146        1.30879605383087
H            2.65976646706464        2.21033231585648       -0.31037296447275
H            4.83264498636456        2.37053912586816       -1.38500807156217
H            7.28118114361105        2.29610495005997       -1.15357945157434
H            6.86630878671667        0.25409736134562        2.57757927917620
H            4.41311109639092        0.33259829113174        2.34426708258162
