      -----------------------------------------------------------      
     |                   =====================                   |     
     |                           x T B                           |     
     |                   =====================                   |     
     |                         S. Grimme                         |     
     |          Mulliken Center for Theoretical Chemistry        |     
     |                    University of Bonn                     |     
      -----------------------------------------------------------      

   * xtb version 6.5.1 (fef0646) compiled by 'conda@b96dff2e9fd6' on 2023-01-04

   xtb is free software: you can redistribute it and/or modify it under
   the terms of the GNU Lesser General Public License as published by
   the Free Software Foundation, either version 3 of the License, or
   (at your option) any later version.
   
   xtb is distributed in the hope that it will be useful,
   but WITHOUT ANY WARRANTY; without even the implied warranty of
   MERCHANTABILITY or FITNESS FOR A PARTICULAR PURPOSE.  See the
   GNU Lesser General Public License for more details.
   
   Cite this work as:
   * C. Bannwarth, E. Caldeweyher, S. Ehlert, A. Hansen, P. Pracht,
     J. Seibert, S. Spicher, S. Grimme, WIREs Comput. Mol. Sci., 2020, 11,
     e01493. DOI: 10.1002/wcms.1493
   
   for GFN2-xTB:
   * C. Bannwarth, S. Ehlert and S. Grimme., J. Chem. Theory Comput., 2019,
     15, 1652-1671. DOI: 10.1021/acs.jctc.8b01176
   for GFN1-xTB:
   * S. Grimme, C. Bannwarth, P. Shushkov, J. Chem. Theory Comput., 2017,
     13, 1989-2009. DOI: 10.1021/acs.jctc.7b00118
   for GFN0-xTB:
   * P. Pracht, E. Caldeweyher, S. Ehlert, S. Grimme, ChemRxiv, 2019, preprint.
     DOI: 10.26434/chemrxiv.8326202.v1
   for GFN-FF:
   * S. Spicher and S. Grimme, Angew. Chem. Int. Ed., 2020, 59, 15665-15673.
     DOI: 10.1002/anie.202004239
   
   for ALPB and GBSA implicit solvation:
   * S. Ehlert, M. Stahn, S. Spicher, S. Grimme, J. Chem. Theory Comput.,
     2021, 17, 4250-4261. DOI: 10.1021/acs.jctc.1c00471
   
   for DFT-D4:
   * E. Caldeweyher, C. Bannwarth and S. Grimme, J. Chem. Phys., 2017,
     147, 034112. DOI: 10.1063/1.4993215
   * E. Caldeweyher, S. Ehlert, A. Hansen, H. Neugebauer, S. Spicher,
     C. Bannwarth and S. Grimme, J. Chem. Phys., 2019, 150, 154122.
     DOI: 10.1063/1.5090222
   * E. Caldeweyher, J.-M. Mewes, S. Ehlert and S. Grimme, Phys. Chem. Chem. Phys.
     2020, 22, 8499-8512. DOI: 10.1039/D0CP00502A
   
   for sTDA-xTB:
   * S. Grimme and C. Bannwarth, J. Chem. Phys., 2016, 145, 054103.
     DOI: 10.1063/1.4959605
   
   in the mass-spec context:
   * V. Asgeirsson, C. Bauer and S. Grimme, Chem. Sci., 2017, 8, 4879.
     DOI: 10.1039/c7sc00601b
   * J. Koopman and S. Grimme, ACS Omega 2019, 4, 12, 15120-15133.
     DOI: 10.1021/acsomega.9b02011
   
   for metadynamics refer to:
   * S. Grimme, J. Chem. Theory Comput., 2019, 155, 2847-2862
     DOI: 10.1021/acs.jctc.9b00143
   
   for SPH calculations refer to:
   * S. Spicher and S. Grimme, J. Chem. Theory Comput., 2021, 17, 1701-1714
     DOI: 10.1021/acs.jctc.0c01306
   
   with help from (in alphabetical order)
   P. Atkinson, C. Bannwarth, F. Bohle, G. Brandenburg, E. Caldeweyher
   M. Checinski, S. Dohm, S. Ehlert, S. Ehrlich, I. Gerasimov, C. Hölzer
   A. Katbashev, J. Koopman, C. Lavigne, S. Lehtola, F. März, M. Müller,
   F. Musil, H. Neugebauer, J. Pisarek, C. Plett, P. Pracht, F. Pultar,
   J. Seibert, P. Shushkov, S. Spicher, M. Stahn, M. Steiner, T. Strunk,
   J. Stückrath, T. Rose, and J. Unsleber
   
 * started run on 2023/01/24 at 15:50:30.987     

           -------------------------------------------------
          |                Calculation Setup                |
           -------------------------------------------------

          program call               : xtb init.xyz --opt -c 0 -u 0 -P 16 --alpb water
          hostname                   : gpg-woodward
          coordinate file            : init.xyz
          omp threads                :                    16

   ID    Z sym.   atoms
    1    7 N      1
    2    6 C      2-7
    3   16 S      8
    4   17 Cl     9
    5    1 H      10-19

molecular fragmentation (1/2 indicates fragments):
1111111121111111111
# atoms in fragment 1/2:    18     1
 fragment masses (1/2) :      128.22       35.45
CMA distance (Bohr)    :  11.040
constraining FC (au)   :  0.0500

           -------------------------------------------------
          |                 G F N 2 - x T B                 |
           -------------------------------------------------

        Reference                      10.1021/acs.jctc.8b01176
      * Hamiltonian:
        H0-scaling (s, p, d)           1.850000    2.230000    2.230000
        zeta-weighting                 0.500000
      * Dispersion:
        s8                             2.700000
        a1                             0.520000
        a2                             5.000000
        s9                             5.000000
      * Repulsion:
        kExp                           1.500000    1.000000
        rExp                           1.000000
      * Coulomb:
        alpha                          2.000000
        third order                    shell-resolved
        anisotropic                    true
        a3                             3.000000
        a5                             4.000000
        cn-shift                       1.200000
        cn-exp                         4.000000
        max-rad                        5.000000

      * Solvation model:               ALPB
        Solvent                        water
        Parameter file                 internal GFN2-xTB/ALPB
        Dielectric constant                8.0200E+01
        Reference state                gsolv [1 M gas/solution]
        Free energy shift                  1.0808E-03 Eh       6.7819E-01 kcal/mol
        Temperature                        2.9815E+02 K
        Density                            1.0000E+00 kg/L
        Solvent mass                       1.8000E+01 g/mol
        Interaction kernel             P16
        Born radius scaling (c1)           1.4744E+00
        Born radii integrator          GBOBC
        Born offset                        0.0000E+00 a0       0.0000E+00 AA
        H-bond correction              true
        Ion screening                  false
        Surface tension                    1.0000E-05 Eh       1.5569E+01 dyn/cm
        Grid points                               230 per atom

          ...................................................
          :                      SETUP                      :
          :.................................................:
          :  # basis functions                  58          :
          :  # atomic orbitals                  56          :
          :  # shells                           30          :
          :  # electrons                        52          :
          :  max. iterations                   250          :
          :  Hamiltonian                  GFN2-xTB          :
          :  restarted?                      false          :
          :  GBSA solvation                   true          :
          :  PC potential                    false          :
          :  electronic temp.          300.0000000     K    :
          :  accuracy                    1.0000000          :
          :  -> integral cutoff          0.2500000E+02      :
          :  -> integral neglect         0.1000000E-07      :
          :  -> SCF convergence          0.1000000E-05 Eh   :
          :  -> wf. convergence          0.1000000E-03 e    :
          :  Broyden damping             0.4000000          :
          ...................................................

 iter      E             dE          RMSdq      gap      omega  full diag
   1    -28.9169759 -0.289170E+02  0.406E+00    3.79       0.0  T
   2    -28.9961431 -0.791671E-01  0.230E+00    3.85       1.0  T
   3    -28.9991292 -0.298615E-02  0.123E+00    3.86       1.0  T
   4    -28.9983443  0.784920E-03  0.781E-01    3.84       1.0  T
   5    -29.0035685 -0.522419E-02  0.332E-01    3.83       1.0  T
   6    -29.0038214 -0.252930E-03  0.255E-01    3.83       1.0  T
   7    -29.0043303 -0.508941E-03  0.112E-01    3.83       1.0  T
   8    -29.0044008 -0.704314E-04  0.393E-02    3.83       1.0  T
   9    -29.0044081 -0.727842E-05  0.165E-02    3.83       1.4  T
  10    -29.0044084 -0.313758E-06  0.884E-03    3.83       2.6  T
  11    -29.0044087 -0.313700E-06  0.296E-03    3.83       7.8  T
  12    -29.0044087 -0.198523E-07  0.148E-03    3.83      15.6  T
  13    -29.0044087 -0.663864E-08  0.422E-04    3.83      54.4  T
  14    -29.0044087 -0.432994E-09  0.174E-04    3.83     132.1  T

   *** convergence criteria satisfied after 14 iterations ***

         #    Occupation            Energy/Eh            Energy/eV
      -------------------------------------------------------------
         1        2.0000           -1.0098635             -27.4798
       ...           ...                  ...                  ...
        20        2.0000           -0.4446030             -12.0983
        21        2.0000           -0.4319092             -11.7528
        22        2.0000           -0.4032495             -10.9730
        23        2.0000           -0.4029060             -10.9636
        24        2.0000           -0.4024639             -10.9516
        25        2.0000           -0.3905613             -10.6277
        26        2.0000           -0.3791543             -10.3173 (HOMO)
        27                         -0.2385111              -6.4902 (LUMO)
        28                         -0.1940526              -5.2804
        29                         -0.1683159              -4.5801
        30                         -0.1096581              -2.9839
        31                         -0.0310530              -0.8450
       ...                                ...                  ...
        56                          0.6848115              18.6347
      -------------------------------------------------------------
                  HL-Gap            0.1406432 Eh            3.8271 eV
             Fermi-level           -0.3088327 Eh           -8.4038 eV

 SCC (total)                   0 d,  0 h,  0 min,  0.033 sec
 SCC setup                      ...        0 min,  0.000 sec (  1.048%)
 Dispersion                     ...        0 min,  0.000 sec (  0.859%)
 classical contributions        ...        0 min,  0.000 sec (  0.307%)
 integral evaluation            ...        0 min,  0.002 sec (  7.542%)
 iterations                     ...        0 min,  0.026 sec ( 81.398%)
 molecular gradient             ...        0 min,  0.002 sec (  7.680%)
 printout                       ...        0 min,  0.000 sec (  0.419%)

         :::::::::::::::::::::::::::::::::::::::::::::::::::::
         ::                     SUMMARY                     ::
         :::::::::::::::::::::::::::::::::::::::::::::::::::::
         :: total energy             -28.671036927049 Eh    ::
         :: total w/o Gsasa/hb       -28.665348576682 Eh    ::
         :: gradient norm              0.046838675289 Eh/a0 ::
         :: HOMO-LUMO gap              3.827095418563 eV    ::
         ::.................................................::
         :: SCC energy               -29.004408710369 Eh    ::
         :: -> isotropic ES            0.109610506241 Eh    ::
         :: -> anisotropic ES         -0.030284805763 Eh    ::
         :: -> anisotropic XC          0.004758198493 Eh    ::
         :: -> dispersion             -0.014429600853 Eh    ::
         :: -> Gsolv                  -0.063182472596 Eh    ::
         ::    -> Gelec               -0.057494122229 Eh    ::
         ::    -> Gsasa                0.000327428501 Eh    ::
         ::    -> Ghb                 -0.007096538566 Eh    ::
         ::    -> Gshift               0.001080759698 Eh    ::
         :: repulsion energy           0.333398251330 Eh    ::
         :: add. restraining           0.000000000000 Eh    ::
         :: total charge              -0.000000000000 e     ::
         :::::::::::::::::::::::::::::::::::::::::::::::::::::

      ----------------------------------------------------------- 
     |                   =====================                   |
     |                        A N C O P T                        |
     |                   =====================                   |
     |               Approximate Normal Coordinate               |
     |                Rational Function Optimizer                |
      ----------------------------------------------------------- 

          ...................................................
          :                      SETUP                      :
          :.................................................:
          :   optimization level            normal          :
          :   max. optcycles                   200          :
          :   ANC micro-cycles                  20          :
          :   degrees of freedom                51          :
          :.................................................:
          :   RF solver                   davidson          :
          :   write xtbopt.log                true          :
          :   linear?                        false          :
          :   energy convergence         0.5000000E-05 Eh   :
          :   grad. convergence          0.1000000E-02 Eh/α :
          :   maximium RF displ.         1.0000000          :
          :   Hlow (freq-cutoff)         0.1000000E-01      :
          :   Hmax (freq-cutoff)         5.0000000          :
          :   S6 in model hess.         20.0000000          :
          ...................................................

generating ANC from model Hessian ...
Using Lindh-Hessian (1995)
 Shifting diagonal of input Hessian by    9.3258633477162779E-003
 Lowest  eigenvalues of input Hessian
    0.000000    0.000000    0.000000    0.000000    0.000000    0.000000
    0.010000    0.010310    0.011937    0.012329    0.012946    0.022049
    0.023509    0.025029    0.028584    0.032211    0.043222    0.050460
 Highest eigenvalues
    1.453350    1.518961    1.550050    1.622694    1.801149    1.815121


........................................................................
.............................. CYCLE    1 ..............................
........................................................................
   1    -29.0044087 -0.290044E+02  0.112E-04    3.83       0.0  T
   2    -29.0044087 -0.250289E-10  0.875E-05    3.83     262.3  T
   3    -29.0044087 -0.884981E-11  0.671E-05    3.83     341.9  T
     SCC iter.                  ...        0 min,  0.006 sec
     gradient                   ...        0 min,  0.002 sec
 * total energy  :   -28.6710369 Eh     change       -0.1201350E-09 Eh
   gradient norm :     0.0468388 Eh/α   predicted     0.0000000E+00 (-100.00%)
   displ. norm   :     0.3972001 α      lambda       -0.8625356E-02
   maximum displ.:     0.2255669 α      in ANC's #11, #7, #2, ...

........................................................................
.............................. CYCLE    2 ..............................
........................................................................
   1    -29.0226838 -0.290227E+02  0.236E-01    3.90       0.0  T
   2    -29.0227995 -0.115697E-03  0.127E-01    3.91       1.0  T
   3    -29.0228034 -0.396854E-05  0.490E-02    3.91       1.0  T
   4    -29.0228027  0.776337E-06  0.270E-02    3.91       1.0  T
   5    -29.0228097 -0.699136E-05  0.112E-02    3.91       2.0  T
   6    -29.0228100 -0.321256E-06  0.754E-03    3.91       3.0  T
   7    -29.0228102 -0.186241E-06  0.444E-03    3.91       5.2  T
   8    -29.0228103 -0.125335E-06  0.248E-03    3.91       9.3  T
   9    -29.0228103 -0.340511E-07  0.741E-04    3.91      31.0  T
  10    -29.0228103 -0.156384E-08  0.366E-04    3.91      62.8  T
     SCC iter.                  ...        0 min,  0.018 sec
     gradient                   ...        0 min,  0.002 sec
 * total energy  :   -28.6764007 Eh     change       -0.5363757E-02 Eh
   gradient norm :     0.0278752 Eh/α   predicted    -0.4993143E-02 (  -6.91%)
   displ. norm   :     0.2322922 α      lambda       -0.2346297E-02
   maximum displ.:     0.1469576 α      in ANC's #2, #8, #5, ...

........................................................................
.............................. CYCLE    3 ..............................
........................................................................
   1    -29.0299096 -0.290299E+02  0.124E-01    3.94       0.0  T
   2    -29.0299345 -0.249407E-04  0.688E-02    3.94       1.0  T
   3    -29.0299349 -0.353020E-06  0.276E-02    3.94       1.0  T
   4    -29.0299366 -0.174728E-05  0.166E-02    3.94       1.4  T
   5    -29.0299387 -0.211497E-05  0.828E-03    3.94       2.8  T
   6    -29.0299389 -0.190375E-06  0.522E-03    3.94       4.4  T
   7    -29.0299390 -0.116790E-06  0.329E-03    3.94       7.0  T
   8    -29.0299391 -0.663147E-07  0.154E-03    3.94      14.9  T
   9    -29.0299391 -0.117021E-07  0.478E-04    3.94      48.0  T
  10    -29.0299391 -0.602075E-09  0.248E-04    3.94      92.5  T
     SCC iter.                  ...        0 min,  0.018 sec
     gradient                   ...        0 min,  0.002 sec
 * total energy  :   -28.6778964 Eh     change       -0.1495723E-02 Eh
   gradient norm :     0.0127831 Eh/α   predicted    -0.1236462E-02 ( -17.33%)
   displ. norm   :     0.2063404 α      lambda       -0.6788126E-03
   maximum displ.:     0.1651904 α      in ANC's #2, #8, #5, ...

........................................................................
.............................. CYCLE    4 ..............................
........................................................................
   1    -29.0298255 -0.290298E+02  0.653E-02    3.93       0.0  T
   2    -29.0298294 -0.389516E-05  0.395E-02    3.93       1.0  T
   3    -29.0298298 -0.489799E-06  0.165E-02    3.93       1.4  T
   4    -29.0298313 -0.145793E-05  0.110E-02    3.93       2.1  T
   5    -29.0298319 -0.547407E-06  0.742E-03    3.93       3.1  T
   6    -29.0298321 -0.250228E-06  0.374E-03    3.93       6.1  T
   7    -29.0298322 -0.872391E-07  0.179E-03    3.93      12.8  T
   8    -29.0298322 -0.172379E-07  0.588E-04    3.93      39.0  T
   9    -29.0298322 -0.932204E-09  0.206E-04    3.93     111.3  T
     SCC iter.                  ...        0 min,  0.015 sec
     gradient                   ...        0 min,  0.002 sec
 * total energy  :   -28.6783741 Eh     change       -0.4777266E-03 Eh
   gradient norm :     0.0084543 Eh/α   predicted    -0.3538584E-03 ( -25.93%)
   displ. norm   :     0.1975141 α      lambda       -0.3901755E-03
   maximum displ.:     0.1655802 α      in ANC's #2, #11, #5, ...

........................................................................
.............................. CYCLE    5 ..............................
........................................................................
   1    -29.0293540 -0.290294E+02  0.561E-02    3.93       0.0  T
   2    -29.0293557 -0.169603E-05  0.348E-02    3.93       1.0  T
   3    -29.0293571 -0.136063E-05  0.127E-02    3.93       1.8  T
   4    -29.0293575 -0.420802E-06  0.986E-03    3.93       2.3  T
   5    -29.0293580 -0.516084E-06  0.560E-03    3.93       4.1  T
   6    -29.0293582 -0.175162E-06  0.230E-03    3.93      10.0  T
   7    -29.0293582 -0.213002E-07  0.995E-04    3.93      23.1  T
   8    -29.0293582 -0.797675E-08  0.279E-04    3.93      82.1  T
     SCC iter.                  ...        0 min,  0.012 sec
     gradient                   ...        0 min,  0.002 sec
 * total energy  :   -28.6786666 Eh     change       -0.2924307E-03 Eh
   gradient norm :     0.0058380 Eh/α   predicted    -0.2027028E-03 ( -30.68%)
   displ. norm   :     0.2264311 α      lambda       -0.3241221E-03
   maximum displ.:     0.1810201 α      in ANC's #2, #11, #1, ...

........................................................................
.............................. CYCLE    6 ..............................
........................................................................
   1    -29.0289491 -0.290289E+02  0.591E-02    3.92       0.0  T
   2    -29.0289518 -0.264304E-05  0.374E-02    3.92       1.0  T
   3    -29.0289540 -0.216482E-05  0.143E-02    3.92       1.6  T
   4    -29.0289546 -0.615894E-06  0.964E-03    3.92       2.4  T
   5    -29.0289549 -0.367477E-06  0.612E-03    3.92       3.7  T
   6    -29.0289552 -0.259865E-06  0.168E-03    3.92      13.6  T
   7    -29.0289552 -0.703183E-08  0.838E-04    3.92      27.4  T
   8    -29.0289552 -0.526952E-08  0.325E-04    3.92      70.7  T
     SCC iter.                  ...        0 min,  0.012 sec
     gradient                   ...        0 min,  0.002 sec
 * total energy  :   -28.6789293 Eh     change       -0.2627403E-03 Eh
   gradient norm :     0.0056902 Eh/α   predicted    -0.1703723E-03 ( -35.16%)
   displ. norm   :     0.3356866 α      lambda       -0.3836434E-03
   maximum displ.:     0.2602244 α      in ANC's #2, #11, #1, ...

........................................................................
.............................. CYCLE    7 ..............................
........................................................................
   1    -29.0284637 -0.290285E+02  0.803E-02    3.92       0.0  T
   2    -29.0284692 -0.549279E-05  0.527E-02    3.92       1.0  T
   3    -29.0284741 -0.495337E-05  0.221E-02    3.92       1.0  T
   4    -29.0284753 -0.120475E-05  0.164E-02    3.92       1.4  T
   5    -29.0284768 -0.148560E-05  0.967E-03    3.92       2.4  T
   6    -29.0284773 -0.472066E-06  0.363E-03    3.92       6.3  T
   7    -29.0284774 -0.114448E-06  0.137E-03    3.92      16.7  T
   8    -29.0284774 -0.891781E-08  0.413E-04    3.92      55.6  T
   9    -29.0284774 -0.322011E-09  0.189E-04    3.92     121.7  T
     SCC iter.                  ...        0 min,  0.014 sec
     gradient                   ...        0 min,  0.002 sec
 * total energy  :   -28.6791938 Eh     change       -0.2644511E-03 Eh
   gradient norm :     0.0050808 Eh/α   predicted    -0.2134389E-03 ( -19.29%)
   displ. norm   :     0.1635002 α      lambda       -0.1276241E-03
   maximum displ.:     0.1226993 α      in ANC's #2, #11, #1, ...

........................................................................
.............................. CYCLE    8 ..............................
........................................................................
   1    -29.0294832 -0.290295E+02  0.437E-02    3.93       0.0  T
   2    -29.0294850 -0.176191E-05  0.275E-02    3.93       1.0  T
   3    -29.0294859 -0.936677E-06  0.116E-02    3.93       2.0  T
   4    -29.0294863 -0.338693E-06  0.854E-03    3.93       2.7  T
   5    -29.0294867 -0.389082E-06  0.557E-03    3.93       4.1  T
   6    -29.0294868 -0.153421E-06  0.228E-03    3.93      10.1  T
   7    -29.0294869 -0.380467E-07  0.868E-04    3.93      26.4  T
   8    -29.0294869 -0.452500E-08  0.276E-04    3.93      83.1  T
     SCC iter.                  ...        0 min,  0.012 sec
     gradient                   ...        0 min,  0.002 sec
 * total energy  :   -28.6792946 Eh     change       -0.1008850E-03 Eh
   gradient norm :     0.0048076 Eh/α   predicted    -0.6552002E-04 ( -35.05%)
   displ. norm   :     0.2934937 α      lambda       -0.1536240E-03
   maximum displ.:     0.2260805 α      in ANC's #2, #11, #1, ...

........................................................................
.............................. CYCLE    9 ..............................
........................................................................
   1    -29.0298014 -0.290298E+02  0.747E-02    3.93       0.0  T
   2    -29.0298049 -0.346979E-05  0.479E-02    3.93       1.0  T
   3    -29.0298086 -0.368868E-05  0.189E-02    3.93       1.2  T
   4    -29.0298094 -0.796554E-06  0.141E-02    3.93       1.6  T
   5    -29.0298105 -0.108863E-05  0.809E-03    3.93       2.8  T
   6    -29.0298109 -0.389115E-06  0.301E-03    3.93       7.6  T
   7    -29.0298109 -0.387895E-07  0.127E-03    3.93      18.0  T
   8    -29.0298109 -0.152906E-07  0.241E-04    3.93      95.3  T
   9    -29.0298109 -0.113864E-09  0.105E-04    3.93     218.0  T
     SCC iter.                  ...        0 min,  0.013 sec
     gradient                   ...        0 min,  0.002 sec
 * total energy  :   -28.6793670 Eh     change       -0.7238532E-04 Eh
   gradient norm :     0.0026674 Eh/α   predicted    -0.8342887E-04 (  15.26%)
   displ. norm   :     0.0523280 α      lambda       -0.4926905E-04
   maximum displ.:     0.0306249 α      in ANC's #7, #8, #2, ...

........................................................................
.............................. CYCLE   10 ..............................
........................................................................
   1    -29.0305417 -0.290305E+02  0.195E-02    3.93       0.0  T
   2    -29.0305418 -0.111293E-06  0.111E-02    3.93       2.1  T
   3    -29.0305418 -0.211959E-07  0.155E-03    3.93      14.8  T
   4    -29.0305418 -0.213664E-08  0.765E-04    3.93      30.0  T
   5    -29.0305418 -0.221520E-08  0.489E-04    3.93      46.9  T
     SCC iter.                  ...        0 min,  0.007 sec
     gradient                   ...        0 min,  0.002 sec
 * total energy  :   -28.6794068 Eh     change       -0.3976607E-04 Eh
   gradient norm :     0.0028594 Eh/α   predicted    -0.2471090E-04 ( -37.86%)
   displ. norm   :     0.1770478 α      lambda       -0.1265397E-03
   maximum displ.:     0.1058573 α      in ANC's #2, #7, #8, ...

........................................................................
.............................. CYCLE   11 ..............................
........................................................................
   1    -29.0308013 -0.290308E+02  0.627E-02    3.92       0.0  T
   2    -29.0308018 -0.474000E-06  0.358E-02    3.92       1.0  T
   3    -29.0308020 -0.147804E-06  0.488E-03    3.92       4.7  T
   4    -29.0308020 -0.141221E-08  0.330E-03    3.92       6.9  T
   5    -29.0308021 -0.804967E-07  0.164E-03    3.92      14.0  T
   6    -29.0308021 -0.921915E-08  0.116E-03    3.92      19.8  T
   7    -29.0308021 -0.506724E-08  0.671E-04    3.92      34.2  T
   8    -29.0308021 -0.348924E-08  0.218E-04    3.92     105.2  T
     SCC iter.                  ...        0 min,  0.012 sec
     gradient                   ...        0 min,  0.002 sec
 * total energy  :   -28.6795043 Eh     change       -0.9750476E-04 Eh
   gradient norm :     0.0031570 Eh/α   predicted    -0.6526380E-04 ( -33.07%)
   displ. norm   :     0.3206645 α      lambda       -0.1475528E-03
   maximum displ.:     0.2355080 α      in ANC's #2, #7, #8, ...

........................................................................
.............................. CYCLE   12 ..............................
........................................................................
   1    -29.0294713 -0.290295E+02  0.113E-01    3.92       0.0  T
   2    -29.0294732 -0.192984E-05  0.650E-02    3.92       1.0  T
   3    -29.0294741 -0.854234E-06  0.116E-02    3.92       2.0  T
   4    -29.0294742 -0.103945E-06  0.876E-03    3.92       2.6  T
   5    -29.0294747 -0.492124E-06  0.504E-03    3.92       4.5  T
   6    -29.0294748 -0.109816E-06  0.297E-03    3.92       7.7  T
   7    -29.0294749 -0.461774E-07  0.111E-03    3.92      20.6  T
   8    -29.0294749 -0.798536E-08  0.393E-04    3.92      58.4  T
   9    -29.0294749 -0.107703E-08  0.184E-04    3.92     124.5  T
     SCC iter.                  ...        0 min,  0.013 sec
     gradient                   ...        0 min,  0.002 sec
 * total energy  :   -28.6795973 Eh     change       -0.9302095E-04 Eh
   gradient norm :     0.0047019 Eh/α   predicted    -0.8136949E-04 ( -12.53%)
   displ. norm   :     0.0915144 α      lambda       -0.4885742E-04
   maximum displ.:     0.0814056 α      in ANC's #2, #7, #3, ...

........................................................................
.............................. CYCLE   13 ..............................
........................................................................
   1    -29.0297113 -0.290297E+02  0.328E-02    3.92       0.0  T
   2    -29.0297116 -0.274777E-06  0.193E-02    3.92       1.2  T
   3    -29.0297118 -0.197141E-06  0.497E-03    3.92       4.6  T
   4    -29.0297118 -0.544923E-07  0.365E-03    3.92       6.3  T
   5    -29.0297119 -0.578052E-07  0.236E-03    3.92       9.7  T
   6    -29.0297119 -0.279113E-07  0.124E-03    3.92      18.6  T
   7    -29.0297119 -0.623425E-08  0.572E-04    3.92      40.1  T
   8    -29.0297119 -0.352316E-08  0.124E-04    3.92     185.3  T
     SCC iter.                  ...        0 min,  0.012 sec
     gradient                   ...        0 min,  0.002 sec
 * total energy  :   -28.6796397 Eh     change       -0.4237105E-04 Eh
   gradient norm :     0.0029543 Eh/α   predicted    -0.2469668E-04 ( -41.71%)
   displ. norm   :     0.1568095 α      lambda       -0.7859865E-04
   maximum displ.:     0.1382335 α      in ANC's #2, #7, #11, ...

........................................................................
.............................. CYCLE   14 ..............................
........................................................................
   1    -29.0302654 -0.290303E+02  0.568E-02    3.93       0.0  T
   2    -29.0302662 -0.824907E-06  0.336E-02    3.93       1.0  T
   3    -29.0302669 -0.682009E-06  0.932E-03    3.93       2.5  T
   4    -29.0302671 -0.212125E-06  0.698E-03    3.93       3.3  T
   5    -29.0302674 -0.246363E-06  0.407E-03    3.93       5.6  T
   6    -29.0302674 -0.737672E-07  0.221E-03    3.93      10.4  T
   7    -29.0302675 -0.259358E-07  0.958E-04    3.93      24.0  T
   8    -29.0302675 -0.871476E-08  0.212E-04    3.93     108.4  T
     SCC iter.                  ...        0 min,  0.012 sec
     gradient                   ...        0 min,  0.002 sec
 * total energy  :   -28.6796952 Eh     change       -0.5551159E-04 Eh
   gradient norm :     0.0012628 Eh/α   predicted    -0.4026690E-04 ( -27.46%)
   displ. norm   :     0.2271696 α      lambda       -0.3605466E-04
   maximum displ.:     0.1979602 α      in ANC's #2, #7, #11, ...

........................................................................
.............................. CYCLE   15 ..............................
........................................................................
   1    -29.0299063 -0.290299E+02  0.836E-02    3.93       0.0  T
   2    -29.0299077 -0.132189E-05  0.492E-02    3.93       1.0  T
   3    -29.0299090 -0.137851E-05  0.121E-02    3.93       1.9  T
   4    -29.0299093 -0.266180E-06  0.813E-03    3.93       2.8  T
   5    -29.0299097 -0.386436E-06  0.509E-03    3.93       4.5  T
   6    -29.0299098 -0.136771E-06  0.142E-03    3.93      16.1  T
   7    -29.0299098 -0.137576E-07  0.534E-04    3.93      43.0  T
   8    -29.0299098 -0.264974E-08  0.252E-04    3.93      91.0  T
     SCC iter.                  ...        0 min,  0.012 sec
     gradient                   ...        0 min,  0.002 sec
 * total energy  :   -28.6797303 Eh     change       -0.3508733E-04 Eh
   gradient norm :     0.0028438 Eh/α   predicted    -0.1844255E-04 ( -47.44%)
   displ. norm   :     0.1217386 α      lambda       -0.2507116E-04
   maximum displ.:     0.1043704 α      in ANC's #2, #7, #11, ...

........................................................................
.............................. CYCLE   16 ..............................
........................................................................
   1    -29.0298396 -0.290298E+02  0.478E-02    3.93       0.0  T
   2    -29.0298400 -0.387492E-06  0.281E-02    3.93       1.0  T
   3    -29.0298404 -0.401402E-06  0.647E-03    3.93       3.5  T
   4    -29.0298405 -0.103256E-06  0.399E-03    3.92       5.7  T
   5    -29.0298406 -0.589741E-07  0.286E-03    3.93       8.0  T
   6    -29.0298406 -0.482241E-07  0.116E-03    3.92      19.8  T
   7    -29.0298406 -0.703085E-08  0.348E-04    3.92      65.9  T
   8    -29.0298406 -0.162608E-08  0.117E-04    3.92     196.5  T
     SCC iter.                  ...        0 min,  0.012 sec
     gradient                   ...        0 min,  0.002 sec
 * total energy  :   -28.6797518 Eh     change       -0.2150554E-04 Eh
   gradient norm :     0.0026234 Eh/α   predicted    -0.1272249E-04 ( -40.84%)
   displ. norm   :     0.2780395 α      lambda       -0.6235841E-04
   maximum displ.:     0.2292001 α      in ANC's #2, #7, #5, ...

........................................................................
.............................. CYCLE   17 ..............................
........................................................................
   1    -29.0296825 -0.290297E+02  0.117E-01    3.92       0.0  T
   2    -29.0296845 -0.207020E-05  0.679E-02    3.92       1.0  T
   3    -29.0296865 -0.194076E-05  0.149E-02    3.92       1.5  T
   4    -29.0296867 -0.262307E-06  0.103E-02    3.92       2.2  T
   5    -29.0296873 -0.584620E-06  0.684E-03    3.92       3.4  T
   6    -29.0296876 -0.262270E-06  0.287E-03    3.92       8.0  T
   7    -29.0296876 -0.433980E-07  0.449E-04    3.92      51.1  T
   8    -29.0296876 -0.991918E-09  0.278E-04    3.92      82.6  T
     SCC iter.                  ...        0 min,  0.012 sec
     gradient                   ...        0 min,  0.002 sec
 * total energy  :   -28.6797987 Eh     change       -0.4688520E-04 Eh
   gradient norm :     0.0019974 Eh/α   predicted    -0.3359114E-04 ( -28.35%)
   displ. norm   :     0.6214587 α      lambda       -0.7891461E-04
   maximum displ.:     0.5058848 α      in ANC's #2, #5, #7, ...

........................................................................
.............................. CYCLE   18 ..............................
........................................................................
   1    -29.0285165 -0.290285E+02  0.266E-01    3.90       0.0  T
   2    -29.0285285 -0.119989E-04  0.156E-01    3.90       1.0  T
   3    -29.0285398 -0.113111E-04  0.357E-02    3.90       1.0  T
   4    -29.0285416 -0.179529E-05  0.247E-02    3.90       1.0  T
   5    -29.0285449 -0.331366E-05  0.163E-02    3.90       1.4  T
   6    -29.0285462 -0.130145E-05  0.796E-03    3.90       2.9  T
   7    -29.0285466 -0.352174E-06  0.283E-03    3.90       8.1  T
   8    -29.0285466 -0.929141E-07  0.710E-04    3.90      32.3  T
   9    -29.0285466 -0.519091E-09  0.362E-04    3.90      63.3  T
     SCC iter.                  ...        0 min,  0.013 sec
     gradient                   ...        0 min,  0.001 sec
 * total energy  :   -28.6798018 Eh     change       -0.3118604E-05 Eh
   gradient norm :     0.0058415 Eh/α   predicted    -0.4623306E-04 (1382.49%)
   displ. norm   :     0.1976752 α      lambda       -0.1140678E-03
   maximum displ.:     0.1756306 α      in ANC's #2, #7, #11, ...

........................................................................
.............................. CYCLE   19 ..............................
........................................................................
   1    -29.0309403 -0.290309E+02  0.798E-02    3.92       0.0  T
   2    -29.0309423 -0.197449E-05  0.468E-02    3.93       1.0  T
   3    -29.0309426 -0.294970E-06  0.132E-02    3.93       1.7  T
   4    -29.0309434 -0.874699E-06  0.907E-03    3.93       2.5  T
   5    -29.0309438 -0.370658E-06  0.580E-03    3.93       4.0  T
   6    -29.0309439 -0.128390E-06  0.370E-03    3.93       6.2  T
   7    -29.0309440 -0.837370E-07  0.162E-03    3.93      14.2  T
   8    -29.0309440 -0.162310E-07  0.430E-04    3.93      53.3  T
   9    -29.0309440 -0.999677E-09  0.177E-04    3.93     129.9  T
     SCC iter.                  ...        0 min,  0.013 sec
     gradient                   ...        0 min,  0.002 sec
 * total energy  :   -28.6798655 Eh     change       -0.6368021E-04 Eh
   gradient norm :     0.0026118 Eh/α   predicted    -0.5926204E-04 (  -6.94%)
   displ. norm   :     0.1140186 α      lambda       -0.3824350E-04
   maximum displ.:     0.0924672 α      in ANC's #2, #11, #7, ...

........................................................................
.............................. CYCLE   20 ..............................
........................................................................
   1    -29.0301597 -0.290302E+02  0.320E-02    3.92       0.0  T
   2    -29.0301603 -0.655409E-06  0.204E-02    3.92       1.1  T
   3    -29.0301610 -0.660814E-06  0.779E-03    3.92       2.9  T
   4    -29.0301612 -0.179823E-06  0.557E-03    3.92       4.1  T
   5    -29.0301613 -0.126840E-06  0.308E-03    3.92       7.4  T
   6    -29.0301613 -0.563582E-07  0.143E-03    3.92      16.0  T
   7    -29.0301614 -0.152908E-07  0.445E-04    3.92      51.6  T
   8    -29.0301614 -0.726985E-09  0.126E-04    3.92     181.6  T
     SCC iter.                  ...        0 min,  0.012 sec
     gradient                   ...        0 min,  0.002 sec
 * total energy  :   -28.6798778 Eh     change       -0.1229534E-04 Eh
   gradient norm :     0.0023040 Eh/α   predicted    -0.1937192E-04 (  57.56%)
   displ. norm   :     0.0426744 α      lambda       -0.1932533E-04
   maximum displ.:     0.0239877 α      in ANC's #5, #3, #1, ...
 * RMSD in coord.:     0.6758299 α      energy gain  -0.8840845E-02 Eh

generating ANC from model Hessian ...
Using Lindh-Hessian (1995)
 Shifting diagonal of input Hessian by    9.9091502151408377E-003
 Lowest  eigenvalues of input Hessian
    0.000000    0.000000    0.000000    0.000000    0.000000    0.000000
    0.010000    0.010561    0.012428    0.012691    0.013643    0.022243
    0.024621    0.025442    0.029997    0.033863    0.034598    0.052360
 Highest eigenvalues
    1.437850    1.464289    1.536956    1.660726    1.892619    1.907319


........................................................................
.............................. CYCLE   21 ..............................
........................................................................
   1    -29.0304724 -0.290305E+02  0.204E-02    3.92       0.0  T
   2    -29.0304725 -0.591374E-07  0.118E-02    3.92       1.9  T
   3    -29.0304725 -0.309419E-07  0.207E-03    3.92      11.1  T
   4    -29.0304725 -0.590824E-08  0.144E-03    3.92      16.0  T
   5    -29.0304725 -0.112513E-07  0.881E-04    3.92      26.0  T
   6    -29.0304725 -0.279802E-08  0.574E-04    3.92      40.0  T
     SCC iter.                  ...        0 min,  0.009 sec
     gradient                   ...        0 min,  0.002 sec
 * total energy  :   -28.6798929 Eh     change       -0.1513259E-04 Eh
   gradient norm :     0.0010906 Eh/α   predicted     0.0000000E+00 (-100.00%)
   displ. norm   :     0.0304311 α      lambda       -0.1132666E-05
   maximum displ.:     0.0258906 α      in ANC's #5, #11, #7, ...

........................................................................
.............................. CYCLE   22 ..............................
........................................................................
   1    -29.0303932 -0.290304E+02  0.173E-02    3.93       0.0  T
   2    -29.0303933 -0.101388E-06  0.992E-03    3.93       2.3  T
   3    -29.0303933  0.909371E-08  0.170E-03    3.93      13.5  T
   4    -29.0303933 -0.107590E-07  0.103E-03    3.93      22.4  T
   5    -29.0303933 -0.109725E-07  0.344E-04    3.93      66.7  T
   6    -29.0303933 -0.263082E-09  0.243E-04    3.93      94.5  T
     SCC iter.                  ...        0 min,  0.009 sec
     gradient                   ...        0 min,  0.001 sec
 * total energy  :   -28.6799017 Eh     change       -0.8756650E-05 Eh
   gradient norm :     0.0004822 Eh/α   predicted    -0.4201401E-05 ( -52.02%)
   displ. norm   :     0.0515660 α      lambda       -0.8775073E-05
   maximum displ.:     0.0459020 α      in ANC's #5, #7, #4, ...

........................................................................
.............................. CYCLE   23 ..............................
........................................................................
   1    -29.0303126 -0.290303E+02  0.290E-02    3.93       0.0  T
   2    -29.0303127 -0.485251E-07  0.165E-02    3.93       1.4  T
   3    -29.0303127 -0.248742E-08  0.196E-03    3.93      11.7  T
   4    -29.0303127  0.102176E-08  0.116E-03    3.93      19.8  T
   5    -29.0303127 -0.137073E-07  0.238E-04    3.93      96.4  T
   6    -29.0303127 -0.307274E-09  0.155E-04    3.93     147.9  T
     SCC iter.                  ...        0 min,  0.009 sec
     gradient                   ...        0 min,  0.002 sec
 * total energy  :   -28.6799136 Eh     change       -0.1195508E-04 Eh
   gradient norm :     0.0008945 Eh/α   predicted    -0.4393919E-05 ( -63.25%)
   displ. norm   :     0.0698187 α      lambda       -0.1144973E-04
   maximum displ.:     0.0581182 α      in ANC's #5, #4, #7, ...

........................................................................
.............................. CYCLE   24 ..............................
........................................................................
   1    -29.0302740 -0.290303E+02  0.394E-02    3.93       0.0  T
   2    -29.0302741 -0.739100E-07  0.225E-02    3.93       1.0  T
   3    -29.0302741 -0.256653E-07  0.237E-03    3.93       9.7  T
   4    -29.0302741 -0.368416E-11  0.687E-04    3.93      33.4  T
   5    -29.0302741 -0.345675E-08  0.434E-04    3.93      52.9  T
     SCC iter.                  ...        0 min,  0.008 sec
     gradient                   ...        0 min,  0.001 sec
 * total energy  :   -28.6799296 Eh     change       -0.1594094E-04 Eh
   gradient norm :     0.0008612 Eh/α   predicted    -0.5738288E-05 ( -64.00%)
   displ. norm   :     0.0999922 α      lambda       -0.1482636E-04
   maximum displ.:     0.0817962 α      in ANC's #5, #3, #4, ...

........................................................................
.............................. CYCLE   25 ..............................
........................................................................
   1    -29.0303005 -0.290303E+02  0.555E-02    3.93       0.0  T
   2    -29.0303007 -0.163736E-06  0.316E-02    3.93       1.0  T
   3    -29.0303007 -0.569018E-07  0.360E-03    3.93       6.4  T
   4    -29.0303007  0.252771E-08  0.126E-03    3.93      18.3  T
   5    -29.0303007 -0.136712E-07  0.754E-04    3.93      30.4  T
   6    -29.0303007 -0.168083E-08  0.544E-04    3.93      42.2  T
     SCC iter.                  ...        0 min,  0.009 sec
     gradient                   ...        0 min,  0.002 sec
 * total energy  :   -28.6799495 Eh     change       -0.1990722E-04 Eh
   gradient norm :     0.0005226 Eh/α   predicted    -0.7446721E-05 ( -62.59%)
   displ. norm   :     0.1078454 α      lambda       -0.1324237E-04
   maximum displ.:     0.0887021 α      in ANC's #5, #3, #4, ...

........................................................................
.............................. CYCLE   26 ..............................
........................................................................
   1    -29.0302809 -0.290303E+02  0.615E-02    3.93       0.0  T
   2    -29.0302811 -0.161748E-06  0.353E-02    3.93       1.0  T
   3    -29.0302811 -0.633795E-07  0.354E-03    3.93       6.5  T
   4    -29.0302811  0.156084E-08  0.124E-03    3.93      18.5  T
   5    -29.0302811 -0.116698E-07  0.788E-04    3.93      29.1  T
   6    -29.0302811 -0.216609E-08  0.505E-04    3.93      45.4  T
     SCC iter.                  ...        0 min,  0.009 sec
     gradient                   ...        0 min,  0.002 sec
 * total energy  :   -28.6799667 Eh     change       -0.1724556E-04 Eh
   gradient norm :     0.0004572 Eh/α   predicted    -0.6658557E-05 ( -61.39%)
   displ. norm   :     0.0892558 α      lambda       -0.9242320E-05
   maximum displ.:     0.0746350 α      in ANC's #5, #3, #4, ...

........................................................................
.............................. CYCLE   27 ..............................
........................................................................
   1    -29.0303757 -0.290304E+02  0.502E-02    3.92       0.0  T
   2    -29.0303758 -0.135105E-06  0.284E-02    3.92       1.0  T
   3    -29.0303759 -0.414107E-07  0.338E-03    3.92       6.8  T
   4    -29.0303759  0.948687E-08  0.127E-03    3.92      18.1  T
   5    -29.0303759 -0.178756E-07  0.582E-04    3.92      39.4  T
   6    -29.0303759 -0.116773E-08  0.423E-04    3.92      54.3  T
     SCC iter.                  ...        0 min,  0.009 sec
     gradient                   ...        0 min,  0.002 sec
 * total energy  :   -28.6799788 Eh     change       -0.1210262E-04 Eh
   gradient norm :     0.0004537 Eh/α   predicted    -0.4638188E-05 ( -61.68%)
   displ. norm   :     0.0681427 α      lambda       -0.6344696E-05
   maximum displ.:     0.0586527 α      in ANC's #5, #3, #4, ...

........................................................................
.............................. CYCLE   28 ..............................
........................................................................
   1    -29.0304689 -0.290305E+02  0.406E-02    3.93       0.0  T
   2    -29.0304689 -0.642712E-07  0.233E-02    3.93       1.0  T
   3    -29.0304690 -0.132507E-07  0.235E-03    3.93       9.8  T
   4    -29.0304690  0.531135E-08  0.120E-03    3.93      19.1  T
   5    -29.0304690 -0.173165E-07  0.319E-04    3.93      71.8  T
   6    -29.0304690 -0.244981E-09  0.200E-04    3.93     115.0  T
     SCC iter.                  ...        0 min,  0.009 sec
     gradient                   ...        0 min,  0.002 sec
 * total energy  :   -28.6799874 Eh     change       -0.8627958E-05 Eh
   gradient norm :     0.0003222 Eh/α   predicted    -0.3180179E-05 ( -63.14%)
   displ. norm   :     0.0513113 α      lambda       -0.4390035E-05
   maximum displ.:     0.0450219 α      in ANC's #5, #3, #2, ...

........................................................................
.............................. CYCLE   29 ..............................
........................................................................
   1    -29.0304866 -0.290305E+02  0.310E-02    3.93       0.0  T
   2    -29.0304867 -0.415822E-07  0.176E-02    3.93       1.3  T
   3    -29.0304867 -0.110823E-07  0.191E-03    3.93      12.0  T
   4    -29.0304867  0.325707E-08  0.594E-04    3.93      38.6  T
   5    -29.0304867 -0.535917E-08  0.150E-04    3.93     152.8  T
     SCC iter.                  ...        0 min,  0.008 sec
     gradient                   ...        0 min,  0.002 sec
 * total energy  :   -28.6799936 Eh     change       -0.6176135E-05 Eh
   gradient norm :     0.0002615 Eh/α   predicted    -0.2197861E-05 ( -64.41%)
   displ. norm   :     0.0447048 α      lambda       -0.3713006E-05
   maximum displ.:     0.0392343 α      in ANC's #5, #3, #1, ...

........................................................................
.............................. CYCLE   30 ..............................
........................................................................
   1    -29.0305354 -0.290305E+02  0.275E-02    3.93       0.0  T
   2    -29.0305354 -0.346150E-07  0.156E-02    3.93       1.5  T
   3    -29.0305354 -0.882453E-08  0.179E-03    3.93      12.8  T
   4    -29.0305354  0.401289E-08  0.808E-04    3.93      28.4  T
   5    -29.0305355 -0.778575E-08  0.261E-04    3.93      88.0  T
     SCC iter.                  ...        0 min,  0.008 sec
     gradient                   ...        0 min,  0.002 sec
 * total energy  :   -28.6799989 Eh     change       -0.5247705E-05 Eh
   gradient norm :     0.0001908 Eh/α   predicted    -0.1859526E-05 ( -64.56%)
   displ. norm   :     0.0458144 α      lambda       -0.3543529E-05
   maximum displ.:     0.0391382 α      in ANC's #5, #3, #1, ...

........................................................................
.............................. CYCLE   31 ..............................
........................................................................
   1    -29.0305132 -0.290305E+02  0.283E-02    3.93       0.0  T
   2    -29.0305133 -0.387203E-07  0.161E-02    3.93       1.4  T
   3    -29.0305133 -0.132507E-07  0.190E-03    3.93      12.0  T
   4    -29.0305133  0.264681E-08  0.798E-04    3.93      28.7  T
   5    -29.0305133 -0.696373E-08  0.418E-04    3.93      54.8  T
     SCC iter.                  ...        0 min,  0.008 sec
     gradient                   ...        0 min,  0.002 sec
 * total energy  :   -28.6800039 Eh     change       -0.5013541E-05 Eh
   gradient norm :     0.0001798 Eh/α   predicted    -0.1774184E-05 ( -64.61%)
   displ. norm   :     0.0539399 α      lambda       -0.3764728E-05
   maximum displ.:     0.0445897 α      in ANC's #5, #1, #3, ...

........................................................................
.............................. CYCLE   32 ..............................
........................................................................
   1    -29.0305177 -0.290305E+02  0.329E-02    3.93       0.0  T
   2    -29.0305178 -0.559729E-07  0.187E-02    3.93       1.2  T
   3    -29.0305178 -0.208083E-07  0.234E-03    3.93       9.8  T
   4    -29.0305178  0.633506E-08  0.134E-03    3.93      17.1  T
   5    -29.0305178 -0.168055E-07  0.644E-04    3.93      35.6  T
   6    -29.0305178 -0.108833E-08  0.455E-04    3.93      50.4  T
     SCC iter.                  ...        0 min,  0.010 sec
     gradient                   ...        0 min,  0.002 sec
 * total energy  :   -28.6800090 Eh     change       -0.5165680E-05 Eh
   gradient norm :     0.0001546 Eh/α   predicted    -0.1885515E-05 ( -63.50%)
   displ. norm   :     0.0639299 α      lambda       -0.3724871E-05
   maximum displ.:     0.0515003 α      in ANC's #5, #1, #3, ...

........................................................................
.............................. CYCLE   33 ..............................
........................................................................
   1    -29.0304806 -0.290305E+02  0.391E-02    3.93       0.0  T
   2    -29.0304806 -0.778359E-07  0.222E-02    3.93       1.0  T
   3    -29.0304807 -0.314283E-07  0.268E-03    3.93       8.6  T
   4    -29.0304807 -0.127444E-08  0.989E-04    3.93      23.2  T
   5    -29.0304807 -0.590497E-08  0.672E-04    3.93      34.1  T
     SCC iter.                  ...        0 min,  0.008 sec
     gradient                   ...        0 min,  0.002 sec
 * total energy  :   -28.6800139 Eh     change       -0.4881290E-05 Eh
   gradient norm :     0.0001757 Eh/α   predicted    -0.1866271E-05 ( -61.77%)
   displ. norm   :     0.0732608 α      lambda       -0.3303269E-05
   maximum displ.:     0.0585601 α      in ANC's #5, #3, #1, ...

   *** GEOMETRY OPTIMIZATION CONVERGED AFTER 33 ITERATIONS ***

------------------------------------------------------------------------
 total energy gain   :        -0.0089770 Eh       -5.6332 kcal/mol
 total RMSD          :         0.7265194 a0        0.3845 Å
 total power (kW/mol):        -0.7142153 (step)  -47.2293 (real)
------------------------------------------------------------------------

 ANCopt (total)                0 d,  0 h,  0 min,  0.499 sec
 optimizer setup                ...        0 min,  0.000 sec (  0.018%)
 model hessian                  ...        0 min,  0.007 sec (  1.310%)
 ANC generation                 ...        0 min,  0.002 sec (  0.402%)
 coordinate transformation      ...        0 min,  0.001 sec (  0.122%)
 single point calculation       ...        0 min,  0.480 sec ( 96.276%)
 optimization log               ...        0 min,  0.003 sec (  0.529%)
 hessian update                 ...        0 min,  0.001 sec (  0.162%)
 rational function              ...        0 min,  0.003 sec (  0.613%)

================
 final structure:
================
19
 xtb: 6.5.1 (fef0646)
N            0.97092724020259       -0.21209829008853        0.27919668262400
C            2.44268094021819       -0.19814986475812        0.20122734296518
C            3.05844126197192       -1.08015388377872        1.29246205432213
C            4.54417810717725       -1.09847950439938        1.16679498272442
C            5.47210613561533       -0.43487424381190        1.90496729724972
C            6.79844079687105       -0.66423185600270        1.46871930003992
C            6.86039983656230       -1.49537703399779        0.39970619385521
S            5.30230102224321       -2.01954161147592       -0.09846395038538
Cl          -0.14717922458946        1.77821056519263       -1.73019089831064
H            0.56482307567958        0.44966102010045       -0.43250781022941
H            0.64943554074855        0.09995734264377        1.19885137842319
H            0.60098145382249       -1.14597360479234        0.08683447454168
H            2.78890891020494        0.82971309150114        0.30647588361536
H            2.74710638682605       -0.55609185367447       -0.78234462947445
H            2.68121658267724       -2.09901366292602        1.19483203484042
H            2.79991510130417       -0.69525918990632        2.27906401254479
H            5.22810571609236        0.19641762050495        2.73995986514915
H            7.66490679490238       -0.22728888187054        1.93176721035891
H            7.72347432146923       -1.83950615846045       -0.13464142485384

 Bond Distances (Angstroems)
 ---------------------------
N1-C2=1.4739         N1-H10=1.0533        N1-H11=1.0230        N1-H12=1.0227        C2-N1=1.4739         C2-C3=1.5323         
C2-H13=1.0897        C2-H14=1.0901        C3-C2=1.5323         C3-C4=1.4912         C3-H15=1.0908        C3-H16=1.0901        
C4-C3=1.4912         C4-C5=1.3588         C4-S8=1.7390         C5-C4=1.3588         C5-C6=1.4149         C5-H17=1.0748        
C6-C5=1.4149         C6-C7=1.3555         C6-H18=1.0752        C7-C6=1.3555         C7-S8=1.7177         C7-H19=1.0718        
S8-C4=1.7390         S8-C7=1.7177         H10-N1=1.0533        H11-N1=1.0230        H12-N1=1.0227        H13-C2=1.0897        
H14-C2=1.0901        H15-C3=1.0908        H16-C3=1.0901        H17-C5=1.0748        H18-C6=1.0752        H19-C7=1.0718        
 C  H  Rav=1.0832 sigma=0.0081  Rmin=1.0718  Rmax=1.0908     7
 C  C  Rav=1.4305 sigma=0.0708  Rmin=1.3555  Rmax=1.5323     5
 N  H  Rav=1.0330 sigma=0.0143  Rmin=1.0227  Rmax=1.0533     3
 N  C  Rav=1.4739 sigma=0.0000  Rmin=1.4739  Rmax=1.4739     1
 S  C  Rav=1.7283 sigma=0.0106  Rmin=1.7177  Rmax=1.7390     2

 selected bond angles (degree)
 --------------------
H10-N1-C2=110.08               H11-N1-C2=111.01               H11-N1-H10=107.14              H12-N1-C2=111.09               
H12-N1-H10=107.89              H12-N1-H11=109.51              C3-C2-N1=110.99                H13-C2-N1=108.73               
H13-C2-C3=110.27               H14-C2-N1=108.87               H14-C2-C3=109.96               H14-C2-H13=107.95              
C4-C3-C2=110.33                H15-C3-C2=109.57               H15-C3-C4=109.00               H16-C3-C2=110.24               
H16-C3-C4=108.48               H16-C3-H15=109.19              C5-C4-C3=128.95                S8-C4-C3=120.15                
S8-C4-C5=110.87                C6-C5-C4=113.17                H17-C5-C4=123.63               H17-C5-C6=123.20               
C7-C6-C5=112.67                H18-C6-C5=123.83               H18-C6-C7=123.50               S8-C7-C6=111.98                
H19-C7-C6=128.82               H19-C7-S8=119.20               C7-S8-C4= 91.31                

 selected dihedral angles (degree)
 ---------------------------------
C3-C2-N1-H10=176.07           C3-C2-N1-H11= 57.62           C3-C2-N1-H12=295.51           H13-C2-N1-H10= 54.61          
H13-C2-N1-H11=296.16          H13-C2-N1-H12=174.05          H14-C2-N1-H10=297.24          H14-C2-N1-H11=178.79          
H14-C2-N1-H12= 56.68          C4-C3-C2-N1=177.77            C4-C3-C2-H13=298.32           C4-C3-C2-H14= 57.24           
H15-C3-C2-N1= 57.75           H15-C3-C2-H13=178.31          H15-C3-C2-H14=297.23          H16-C3-C2-N1=297.56           
H16-C3-C2-H13= 58.11          H16-C3-C2-H14=177.03          C5-C4-C3-C2=102.82            C5-C4-C3-H15=223.17           
C5-C4-C3-H16=341.96           S8-C4-C3-C2=285.20            S8-C4-C3-H15= 45.55           S8-C4-C3-H16=164.35           
C6-C5-C4-C3=181.86            C6-C5-C4-S8=359.66            H17-C5-C4-C3=  2.21           H17-C5-C4-S8=180.01           
C7-C6-C5-C4=  0.28            C7-C6-C5-H17=179.93           H18-C6-C5-C4=180.20           H18-C6-C5-H17=359.85          
S8-C7-C6-C5=359.92            S8-C7-C6-H18=179.99           H19-C7-C6-C5=179.94           H19-C7-C6-H18=  0.00          
C7-S8-C4-C3=178.27            C7-S8-C4-C5=  0.25            C4-S8-C7-C6=359.91            C4-S8-C7-H19=179.89           

 CMA Distance (Angstroems)
 ---------------------------
R(CMA):  5.8839
           -------------------------------------------------
          |                Final Singlepoint                |
           -------------------------------------------------

          ...................................................
          :                      SETUP                      :
          :.................................................:
          :  # basis functions                  58          :
          :  # atomic orbitals                  56          :
          :  # shells                           30          :
          :  # electrons                        52          :
          :  max. iterations                   250          :
          :  Hamiltonian                  GFN2-xTB          :
          :  restarted?                      false          :
          :  GBSA solvation                   true          :
          :  PC potential                    false          :
          :  electronic temp.          300.0000000     K    :
          :  accuracy                    1.0000000          :
          :  -> integral cutoff          0.2500000E+02      :
          :  -> integral neglect         0.1000000E-07      :
          :  -> SCF convergence          0.1000000E-05 Eh   :
          :  -> wf. convergence          0.1000000E-03 e    :
          :  Broyden damping             0.4000000          :
          ...................................................

 iter      E             dE          RMSdq      gap      omega  full diag
   1    -29.0304807 -0.290305E+02  0.466E-04    3.93       0.0  T
   2    -29.0304807 -0.501903E-09  0.381E-04    3.93      60.2  T
   3    -29.0304807 -0.309814E-09  0.316E-04    3.93      72.6  T

   *** convergence criteria satisfied after 3 iterations ***

         #    Occupation            Energy/Eh            Energy/eV
      -------------------------------------------------------------
         1        2.0000           -1.0061835             -27.3796
       ...           ...                  ...                  ...
        20        2.0000           -0.4441582             -12.0862
        21        2.0000           -0.4354800             -11.8500
        22        2.0000           -0.4037884             -10.9876
        23        2.0000           -0.3999424             -10.8830
        24        2.0000           -0.3999207             -10.8824
        25        2.0000           -0.3910197             -10.6402
        26        2.0000           -0.3826014             -10.4111 (HOMO)
        27                         -0.2383276              -6.4852 (LUMO)
        28                         -0.1972137              -5.3665
        29                         -0.1625920              -4.4244
        30                         -0.1124080              -3.0588
        31                         -0.0247224              -0.6727
       ...                                ...                  ...
        56                          0.7045026              19.1705
      -------------------------------------------------------------
                  HL-Gap            0.1442738 Eh            3.9259 eV
             Fermi-level           -0.3104645 Eh           -8.4482 eV

 SCC (total)                   0 d,  0 h,  0 min,  0.008 sec
 SCC setup                      ...        0 min,  0.000 sec (  2.170%)
 Dispersion                     ...        0 min,  0.000 sec (  1.575%)
 classical contributions        ...        0 min,  0.000 sec (  0.350%)
 integral evaluation            ...        0 min,  0.001 sec ( 11.399%)
 iterations                     ...        0 min,  0.005 sec ( 62.912%)
 molecular gradient             ...        0 min,  0.002 sec ( 18.755%)
 printout                       ...        0 min,  0.000 sec (  1.273%)

         :::::::::::::::::::::::::::::::::::::::::::::::::::::
         ::                     SUMMARY                     ::
         :::::::::::::::::::::::::::::::::::::::::::::::::::::
         :: total energy             -28.680013927313 Eh    ::
         :: total w/o Gsasa/hb       -28.674026334144 Eh    ::
         :: gradient norm              0.000178159900 Eh/a0 ::
         :: HOMO-LUMO gap              3.925890933343 eV    ::
         ::.................................................::
         :: SCC energy               -29.030480672411 Eh    ::
         :: -> isotropic ES            0.121340437317 Eh    ::
         :: -> anisotropic ES         -0.030400429250 Eh    ::
         :: -> anisotropic XC          0.004907282681 Eh    ::
         :: -> dispersion             -0.014346750117 Eh    ::
         :: -> Gsolv                  -0.072877018735 Eh    ::
         ::    -> Gelec               -0.066889425566 Eh    ::
         ::    -> Gsasa                0.000244293591 Eh    ::
         ::    -> Ghb                 -0.007312646458 Eh    ::
         ::    -> Gshift               0.001080759698 Eh    ::
         :: repulsion energy           0.350485836204 Eh    ::
         :: add. restraining           0.000000000000 Eh    ::
         :: total charge               0.000000000000 e     ::
         :::::::::::::::::::::::::::::::::::::::::::::::::::::

           -------------------------------------------------
          |                Property Printout                |
           -------------------------------------------------

    * Orbital Energies and Occupations

         #    Occupation            Energy/Eh            Energy/eV
      -------------------------------------------------------------
         1        2.0000           -1.0061835             -27.3796
       ...           ...                  ...                  ...
        14        2.0000           -0.5020445             -13.6613
        15        2.0000           -0.4828066             -13.1378
        16        2.0000           -0.4673914             -12.7184
        17        2.0000           -0.4639040             -12.6235
        18        2.0000           -0.4616813             -12.5630
        19        2.0000           -0.4581598             -12.4672
        20        2.0000           -0.4441582             -12.0862
        21        2.0000           -0.4354800             -11.8500
        22        2.0000           -0.4037884             -10.9876
        23        2.0000           -0.3999424             -10.8830
        24        2.0000           -0.3999207             -10.8824
        25        2.0000           -0.3910197             -10.6402
        26        2.0000           -0.3826014             -10.4111 (HOMO)
        27                         -0.2383276              -6.4852 (LUMO)
        28                         -0.1972137              -5.3665
        29                         -0.1625920              -4.4244
        30                         -0.1124080              -3.0588
        31                         -0.0247224              -0.6727
        32                          0.0027277               0.0742
        33                          0.0275659               0.7501
        34                          0.0382601               1.0411
        35                          0.0813543               2.2138
        36                          0.0938647               2.5542
        37                          0.1166782               3.1750
       ...                                ...                  ...
        56                          0.7045026              19.1705
      -------------------------------------------------------------
                  HL-Gap            0.1442738 Eh            3.9259 eV
             Fermi-level           -0.3104645 Eh           -8.4482 eV

     #   Z          covCN         q      C6AA      α(0)
     1   7 N        3.483    -0.166    24.586     7.364
     2   6 C        3.735    -0.022    21.047     6.547
     3   6 C        3.827    -0.088    22.162     6.699
     4   6 C        2.989     0.024    27.451     8.595
     5   6 C        3.119    -0.065    29.423     8.884
     6   6 C        3.118    -0.053    29.133     8.841
     7   6 C        2.939    -0.030    28.743     8.793
     8  16 S        2.337    -0.052   143.225    20.142
     9  17 Cl       0.060    -0.945   124.798    17.002
    10   1 H        0.916     0.297     0.719     1.326
    11   1 H        0.859     0.300     0.714     1.324
    12   1 H        0.859     0.301     0.709     1.319
    13   1 H        0.925     0.098     1.804     2.100
    14   1 H        0.925     0.101     1.773     2.082
    15   1 H        0.924     0.091     1.871     2.139
    16   1 H        0.925     0.085     1.924     2.169
    17   1 H        0.926     0.050     2.319     2.381
    18   1 H        0.926     0.035     2.518     2.481
    19   1 H        0.926     0.038     2.477     2.461

 Mol. C6AA /au·bohr⁶  :       5091.992831
 Mol. C8AA /au·bohr⁸  :     150386.779150
 Mol. α(0) /au        :        112.649801


Wiberg/Mayer (AO) data.
largest (>0.10) Wiberg bond orders for each atom

 ---------------------------------------------------------------------------
     #   Z sym  total        # sym  WBO       # sym  WBO       # sym  WBO
 ---------------------------------------------------------------------------
     1   7 N    3.645 --     2 C    0.973    11 H    0.895    12 H    0.895
                            10 H    0.827
     2   6 C    3.933 --     3 C    0.990     1 N    0.973    13 H    0.969
                            14 H    0.967
     3   6 C    3.988 --     4 C    1.023     2 C    0.990    16 H    0.964
                            15 H    0.961
     4   6 C    3.947 --     5 C    1.610     8 S    1.154     3 C    1.023
                             7 C    0.115
     5   6 C    3.985 --     4 C    1.610     6 C    1.263    17 H    0.963
     6   6 C    3.988 --     7 C    1.639     5 C    1.263    18 H    0.965
     7   6 C    3.949 --     6 C    1.639     8 S    1.186    19 H    0.972
                             4 C    0.115
     8  16 S    2.600 --     7 C    1.186     4 C    1.154
     9  17 Cl   0.106
    10   1 H    0.911 --     1 N    0.827
    11   1 H    0.910 --     1 N    0.895
    12   1 H    0.909 --     1 N    0.895
    13   1 H    0.990 --     2 C    0.969
    14   1 H    0.990 --     2 C    0.967
    15   1 H    0.992 --     3 C    0.961
    16   1 H    0.992 --     3 C    0.964
    17   1 H    0.997 --     5 C    0.963
    18   1 H    0.999 --     6 C    0.965
    19   1 H    0.998 --     7 C    0.972
 ---------------------------------------------------------------------------

Topologies differ in total number of bonds
Writing topology from bond orders to xtbtopo.mol

molecular dipole:
                 x           y           z       tot (Debye)
 q only:        1.836      -3.466       3.783
   full:        1.800      -2.863       3.437      12.256
molecular quadrupole (traceless):
                xx          xy          yy          xz          yz          zz
 q only:       10.531       2.429      -6.829       1.622      14.986      -3.702
  q+dip:       13.810       2.367      -9.360       4.272      12.369      -4.450
   full:       14.282       2.078      -9.473       4.280      11.250      -4.810

           -------------------------------------------------
          |                Geometry Summary                 |
           -------------------------------------------------

      molecular mass/u    :      163.6682511
   center of mass at/Å    :        3.4370835      -0.4241491       0.1536251
  moments of inertia/u·Å² :        0.1940176E+03   0.1482529E+04   0.1510346E+04
rotational constants/cm⁻¹ :        0.8688715E-01   0.1137086E-01   0.1116143E-01

 * 17 selected distances

     #   Z          #   Z                                           value/Å
     1   7 N        2   6 C                                       1.4738837
     2   6 C        3   6 C                                       1.5322811
     4   6 C        5   6 C                                       1.3587940
     5   6 C        6   6 C                                       1.4149492
     6   6 C        7   6 C                                       1.3555186
     4   6 C        8  16 S                                       1.7389613 (max)
     7   6 C        8  16 S                                       1.7177294
     1   7 N       10   1 H                                       1.0532661
     1   7 N       11   1 H                                       1.0229861
     1   7 N       12   1 H                                       1.0227348 (min)
     2   6 C       13   1 H                                       1.0897034
     2   6 C       14   1 H                                       1.0900511
     3   6 C       15   1 H                                       1.0908279
     3   6 C       16   1 H                                       1.0901208
     5   6 C       17   1 H                                       1.0748388
     6   6 C       18   1 H                                       1.0752191
     7   6 C       19   1 H                                       1.0718442

 * 5 distinct bonds (by element types)

   Z      Z             #   av. dist./Å        max./Å        min./Å
   1 H    6 C           7     1.0832293     1.0908279     1.0718442
   6 C    6 C           4     1.4153857     1.5322811     1.3555186
   1 H    7 N           3     1.0329957     1.0532661     1.0227348
   6 C    7 N           1     1.4738837     1.4738837     1.4738837
   6 C   16 S           2     1.7283454     1.7389613     1.7177294


optimized geometry written to: xtbopt.xyz


           -------------------------------------------------
          | TOTAL ENERGY              -28.680013927313 Eh   |
          | GRADIENT NORM               0.000178159900 Eh/α |
          | HOMO-LUMO GAP               3.925890933343 eV   |
           -------------------------------------------------

------------------------------------------------------------------------
 * finished run on 2023/01/24 at 15:50:31.549     
------------------------------------------------------------------------
 total:
 * wall-time:     0 d,  0 h,  0 min,  0.562 sec
 *  cpu-time:     0 d,  0 h,  0 min, 48.813 sec
 * ratio c/w:    86.891 speedup
 SCF:
 * wall-time:     0 d,  0 h,  0 min,  0.033 sec
 *  cpu-time:     0 d,  0 h,  0 min,  4.642 sec
 * ratio c/w:   141.419 speedup
 ANC optimizer:
 * wall-time:     0 d,  0 h,  0 min,  0.508 sec
 *  cpu-time:     0 d,  0 h,  0 min, 41.521 sec
 * ratio c/w:    81.708 speedup

