19
 energy: -28.680013927313 gnorm: 0.000178159900 xtb: 6.5.1 (fef0646)
N            0.97092724020259       -0.21209829008853        0.27919668262400
C            2.44268094021819       -0.19814986475812        0.20122734296518
C            3.05844126197192       -1.08015388377872        1.29246205432213
C            4.54417810717725       -1.09847950439938        1.16679498272442
C            5.47210613561533       -0.43487424381190        1.90496729724972
C            6.79844079687105       -0.66423185600270        1.46871930003992
C            6.86039983656230       -1.49537703399779        0.39970619385521
S            5.30230102224321       -2.01954161147592       -0.09846395038538
Cl          -0.14717922458946        1.77821056519263       -1.73019089831064
H            0.56482307567958        0.44966102010045       -0.43250781022941
H            0.64943554074855        0.09995734264377        1.19885137842319
H            0.60098145382249       -1.14597360479234        0.08683447454168
H            2.78890891020494        0.82971309150114        0.30647588361536
H            2.74710638682605       -0.55609185367447       -0.78234462947445
H            2.68121658267724       -2.09901366292602        1.19483203484042
H            2.79991510130417       -0.69525918990632        2.27906401254479
H            5.22810571609236        0.19641762050495        2.73995986514915
H            7.66490679490238       -0.22728888187054        1.93176721035891
H            7.72347432146923       -1.83950615846045       -0.13464142485384
