 Entering Gaussian System
 *********************************************
 Gaussian 98:
 frequency output generated by the xtb code
 *********************************************
                         Standard orientation:
 --------------------------------------------------------------------
  Center     Atomic     Atomic              Coordinates (Angstroms)
  Number     Number      Type              X           Y           Z
 --------------------------------------------------------------------
    1          7             0       -1.707850   -1.996911    0.160569
    2          6             0       -1.397063   -1.515420    1.537588
    3          6             0       -0.632176   -0.193464    1.568623
    4          6             0        0.752962   -0.234162    0.880828
    5          6             0        1.760379    0.723584    1.564433
    6          6             0        3.151067    0.642375    0.911018
    7          6             0        3.073743    0.939943   -0.596782
    8          6             0        2.067526    0.006117   -1.291557
    9          6             0        0.682318    0.099795   -0.629253
   10         17             0       -2.900492    0.764462   -1.616631
   11          1             0       -2.358564   -2.795388    0.166103
   12          1             0       -0.852443   -2.299206   -0.331453
   13          1             0       -2.137978   -1.241950   -0.395740
   14          1             0       -0.825705   -2.284982    2.070267
   15          1             0       -2.333850   -1.411534    2.100081
   16          1             0       -0.500780    0.121147    2.611722
   17          1             0       -1.233923    0.597678    1.108433
   18          1             0        1.154937   -1.254644    0.982418
   19          1             0        1.817832    0.511245    2.639833
   20          1             0        1.376814    1.747416    1.489542
   21          1             0        3.564522   -0.362477    1.061978
   22          1             0        3.854802    1.324522    1.407734
   23          1             0        4.066001    0.859517   -1.061856
   24          1             0        2.765438    1.982074   -0.746203
   25          1             0        2.429461   -1.027595   -1.229967
   26          1             0        2.002793    0.229265   -2.365428
   27          1             0       -0.043527   -0.539292   -1.143399
   28          1             0        0.294743    1.118797   -0.741303
 --------------------------------------------------------------------
     1 basis functions        1 primitive gaussians
     1 alpha electrons        1 beta electrons

 Harmonic frequencies (cm**-1), IR intensities (km*mol⁻¹),
 Raman scattering activities (A**4/amu), Raman depolarization ratios,
 reduced masses (AMU), force constants (mDyne/A) and normal coordinates:
                      1                      2                      3
                        a                      a                      a 
 Frequencies --  -135.7174                53.8716                67.1256
 Red. masses --    21.0253                24.6635                10.8417
 Frc consts  --     0.0000                 0.0000                 0.0000
 IR Inten    --   127.6153                16.4281                 2.2596
 Raman Activ --     0.0000                 0.0000                 0.0000
 Depolar     --     0.0000                 0.0000                 0.0000
 Atom AN      X      Y      Z        X      Y      Z        X      Y      Z
   1   7    -0.29   0.45  -0.27     0.02  -0.12   0.10     0.21  -0.03   0.06
   2   6    -0.11   0.11  -0.19    -0.05  -0.08   0.10    -0.02   0.13   0.05
   3   6     0.02   0.03   0.00    -0.06  -0.07   0.08    -0.06   0.15   0.02
   4   6     0.01   0.02  -0.01    -0.10  -0.04   0.00    -0.09   0.12  -0.04
   5   6     0.02   0.00  -0.00    -0.10   0.00  -0.05     0.11  -0.19   0.08
   6   6     0.02  -0.00  -0.00    -0.14   0.07  -0.13     0.06  -0.34  -0.01
   7   6     0.02   0.01   0.00    -0.24   0.08  -0.13     0.04  -0.10   0.03
   8   6     0.02   0.03  -0.00    -0.24   0.05  -0.08    -0.20   0.23  -0.07
   9   6     0.02   0.04  -0.01    -0.20  -0.03   0.01    -0.14   0.45   0.03
  10  17     0.22  -0.50   0.35     0.75   0.10   0.06     0.04  -0.26  -0.11
  11   1    -0.15   0.18  -0.11    -0.07   0.03   0.01     0.12  -0.06   0.02
  12   1    -0.11   0.06  -0.08     0.00  -0.12   0.07     0.09   0.06   0.03
  13   1    -0.01   0.20  -0.06     0.11  -0.00  -0.01    -0.01  -0.06  -0.01
  14   1    -0.04  -0.01  -0.10    -0.02  -0.02   0.04    -0.02   0.06   0.06
  15   1    -0.02   0.03  -0.03    -0.02  -0.02   0.02    -0.03   0.04  -0.03
  16   1     0.02  -0.04   0.01    -0.01  -0.02   0.02    -0.01   0.05   0.01
  17   1     0.02   0.04   0.03    -0.03  -0.02   0.03    -0.02   0.04   0.01
  18   1    -0.00   0.00  -0.01    -0.02  -0.01  -0.01    -0.07   0.01  -0.08
  19   1     0.00  -0.00  -0.00    -0.01  -0.00  -0.02     0.04  -0.11   0.01
  20   1     0.01   0.00   0.00    -0.04  -0.00  -0.01     0.09  -0.03   0.08
  21   1     0.00  -0.00  -0.00    -0.03   0.02  -0.05    -0.03  -0.13  -0.05
  22   1     0.01  -0.00   0.00    -0.04   0.02  -0.05     0.06  -0.16   0.01
  23   1     0.01   0.00   0.00    -0.08   0.04  -0.05    -0.00  -0.07  -0.01
  24   1     0.01   0.01   0.00    -0.09   0.02  -0.03     0.07  -0.00   0.06
  25   1     0.00   0.01  -0.00    -0.05   0.02  -0.03    -0.13   0.04  -0.07
  26   1     0.01   0.01  -0.00    -0.09   0.02  -0.02    -0.06   0.12  -0.01
  27   1     0.00   0.02  -0.01    -0.06  -0.02   0.01    -0.11   0.23  -0.01
  28   1     0.01   0.01   0.00    -0.08  -0.01   0.01     0.04   0.17   0.08
                      4                      5                      6
                        a                      a                      a 
 Frequencies --    87.6135               138.1709               176.7056
 Red. masses --    16.2099                 8.6830                 9.0305
 Frc consts  --     0.0000                 0.0000                 0.0000
 IR Inten    --     9.2362                 4.0739                16.9215
 Raman Activ --     0.0000                 0.0000                 0.0000
 Depolar     --     0.0000                 0.0000                 0.0000
 Atom AN      X      Y      Z        X      Y      Z        X      Y      Z
   1   7     0.17  -0.22  -0.04     0.18   0.12  -0.22    -0.49  -0.11   0.23
   2   6    -0.02   0.05  -0.09     0.22  -0.22  -0.10     0.24  -0.24   0.12
   3   6    -0.23   0.17  -0.33     0.01  -0.10   0.21    -0.01  -0.09  -0.10
   4   6    -0.14   0.12  -0.16    -0.04   0.17   0.11    -0.00   0.12  -0.12
   5   6    -0.18   0.11  -0.09    -0.07   0.30  -0.03    -0.05   0.11  -0.05
   6   6    -0.11  -0.03   0.09    -0.06   0.04   0.00     0.01  -0.06   0.09
   7   6     0.11  -0.13   0.06     0.02  -0.33  -0.08     0.17  -0.05   0.08
   8   6     0.13  -0.11  -0.01    -0.18  -0.24   0.08     0.05   0.16  -0.04
   9   6     0.05   0.03  -0.19    -0.13   0.15   0.12     0.02   0.22  -0.10
  10  17     0.13   0.02   0.51     0.00   0.06  -0.03     0.07  -0.01  -0.09
  11   1     0.13  -0.13   0.01     0.10  -0.01  -0.10    -0.22   0.05   0.12
  12   1     0.08   0.03  -0.01     0.05   0.13  -0.11    -0.22  -0.13  -0.03
  13   1    -0.04  -0.10  -0.00    -0.03   0.05   0.02    -0.08   0.03   0.10
  14   1     0.02   0.07   0.02     0.12  -0.07  -0.11     0.19  -0.06  -0.08
  15   1    -0.02  -0.00  -0.05     0.07  -0.15   0.01     0.15  -0.14   0.19
  16   1    -0.11   0.14  -0.12     0.01  -0.10   0.08    -0.00   0.02  -0.04
  17   1    -0.08  -0.01  -0.18    -0.03  -0.02   0.12    -0.06  -0.08  -0.05
  18   1    -0.05   0.03  -0.02     0.03   0.07   0.03     0.02   0.04  -0.06
  19   1    -0.10   0.05  -0.02    -0.03   0.15   0.01    -0.05   0.05  -0.01
  20   1    -0.03   0.04  -0.06    -0.01   0.09  -0.07     0.01   0.04  -0.05
  21   1    -0.06  -0.01   0.06    -0.04   0.01   0.08    -0.04  -0.03   0.04
  22   1    -0.03  -0.01   0.04    -0.00   0.03  -0.05     0.01  -0.04   0.04
  23   1     0.05  -0.07   0.06     0.00  -0.19  -0.01     0.05  -0.07   0.04
  24   1     0.06  -0.04  -0.01     0.07  -0.08  -0.10     0.11   0.00   0.02
  25   1     0.01  -0.04   0.03    -0.11  -0.09   0.07    -0.02   0.03  -0.04
  26   1     0.08  -0.05  -0.01    -0.04  -0.11   0.01     0.04   0.08  -0.01
  27   1     0.01   0.02  -0.06    -0.09   0.10   0.05    -0.00   0.07  -0.03
  28   1     0.04   0.02  -0.08     0.04   0.07   0.04     0.02   0.07  -0.02
                      7                      8                      9
                        a                      a                      a 
 Frequencies --   234.1929               249.7015               272.3544
 Red. masses --     4.9258                 7.0554                 6.7971
 Frc consts  --     0.0000                 0.0000                 0.0000
 IR Inten    --     6.9408                 4.9304                 0.7696
 Raman Activ --     0.0000                 0.0000                 0.0000
 Depolar     --     0.0000                 0.0000                 0.0000
 Atom AN      X      Y      Z        X      Y      Z        X      Y      Z
   1   7    -0.04   0.29   0.10    -0.20  -0.17  -0.01    -0.08  -0.01   0.10
   2   6     0.20  -0.05   0.12    -0.04  -0.01  -0.08    -0.33   0.01   0.12
   3   6    -0.04   0.06  -0.02    -0.05   0.01  -0.14     0.14  -0.25   0.18
   4   6    -0.07  -0.07  -0.05     0.03   0.01   0.02    -0.00  -0.17  -0.15
   5   6    -0.04  -0.16   0.02     0.15  -0.21   0.19    -0.15  -0.01  -0.17
   6   6    -0.06  -0.05  -0.01     0.09   0.33  -0.09    -0.03   0.20   0.04
   7   6    -0.16   0.12   0.04    -0.07   0.01  -0.15     0.24  -0.07  -0.03
   8   6     0.02  -0.03  -0.00     0.00  -0.26   0.13     0.08   0.11  -0.06
   9   6    -0.02  -0.13  -0.08     0.05   0.28   0.10     0.03   0.13  -0.10
  10  17     0.13  -0.01  -0.07     0.04   0.01   0.01     0.06  -0.01   0.02
  11   1     0.30  -0.18   0.02    -0.01  -0.08   0.05     0.16  -0.15   0.01
  12   1     0.03   0.49  -0.16    -0.06  -0.01  -0.04     0.05   0.22   0.00
  13   1    -0.37  -0.01   0.19    -0.11  -0.08   0.00    -0.19  -0.08   0.06
  14   1     0.17  -0.00  -0.07    -0.00   0.01  -0.02    -0.22  -0.04   0.10
  15   1     0.10  -0.12   0.13    -0.00   0.01  -0.01    -0.13   0.12  -0.04
  16   1    -0.01   0.08  -0.03    -0.06   0.04  -0.04     0.14  -0.17   0.07
  17   1    -0.04  -0.02  -0.05    -0.01  -0.01  -0.09     0.06   0.01   0.17
  18   1    -0.04  -0.03  -0.01    -0.03  -0.02  -0.05     0.03  -0.04  -0.09
  19   1    -0.01  -0.09  -0.00     0.12  -0.20   0.02    -0.05   0.04  -0.04
  20   1    -0.01  -0.04   0.05     0.00  -0.06   0.22    -0.09  -0.02  -0.09
  21   1    -0.01  -0.02  -0.04     0.16   0.15   0.01     0.05   0.09   0.09
  22   1    -0.02  -0.02   0.02    -0.05   0.20  -0.07    -0.08   0.13   0.02
  23   1    -0.04   0.11  -0.00    -0.02   0.02  -0.04     0.08  -0.13   0.04
  24   1    -0.11   0.02   0.04    -0.07  -0.02  -0.11     0.16  -0.00  -0.08
  25   1     0.04   0.01   0.03    -0.03  -0.08   0.18    -0.01   0.02  -0.04
  26   1     0.02  -0.03  -0.01     0.03  -0.21   0.01     0.04   0.06  -0.01
  27   1     0.02  -0.06  -0.03    -0.10   0.21   0.03    -0.01   0.10  -0.08
  28   1    -0.03  -0.05  -0.04     0.16   0.14   0.08     0.04   0.06   0.03
                     10                     11                     12
                        a                      a                      a 
 Frequencies --   277.7648               347.5622               379.1656
 Red. masses --     7.9055                 6.2324                 9.0781
 Frc consts  --     0.0000                 0.0000                 0.0000
 IR Inten    --     7.5712                 2.6857                 3.0658
 Raman Activ --     0.0000                 0.0000                 0.0000
 Depolar     --     0.0000                 0.0000                 0.0000
 Atom AN      X      Y      Z        X      Y      Z        X      Y      Z
   1   7    -0.27  -0.28  -0.10    -0.08  -0.13  -0.01     0.08   0.14   0.03
   2   6    -0.15   0.04  -0.20    -0.10  -0.02  -0.03    -0.17  -0.24   0.19
   3   6    -0.04   0.02  -0.06     0.07  -0.07   0.17    -0.38  -0.09   0.03
   4   6     0.14   0.08   0.28    -0.06   0.17  -0.11    -0.18  -0.07   0.20
   5   6     0.17   0.25   0.03     0.03   0.13  -0.15     0.01  -0.02  -0.11
   6   6     0.11  -0.08  -0.09     0.03  -0.25  -0.09     0.01  -0.04  -0.27
   7   6     0.04   0.03  -0.07    -0.14   0.25   0.05     0.26   0.17  -0.23
   8   6    -0.10   0.15  -0.04     0.18  -0.18   0.21     0.19   0.07   0.07
   9   6     0.03  -0.12   0.25     0.04   0.16  -0.12     0.19   0.05   0.19
  10  17     0.10  -0.01   0.03     0.02  -0.00   0.02    -0.02   0.00  -0.02
  11   1     0.12  -0.23   0.07     0.00  -0.06   0.02    -0.01   0.06  -0.13
  12   1    -0.05   0.12  -0.12    -0.02  -0.02  -0.00     0.05   0.05   0.05
  13   1    -0.30  -0.19   0.01    -0.05  -0.06  -0.01     0.10   0.11   0.04
  14   1    -0.06   0.01  -0.03    -0.07  -0.02   0.01    -0.01  -0.06   0.03
  15   1    -0.05   0.04  -0.07    -0.04   0.04  -0.03    -0.06  -0.13   0.05
  16   1    -0.09  -0.01  -0.00     0.10  -0.15   0.08    -0.17   0.10  -0.02
  17   1     0.03   0.01  -0.06     0.00   0.05   0.18    -0.14  -0.11  -0.10
  18   1     0.06   0.03   0.13     0.00   0.05  -0.05    -0.08  -0.03   0.08
  19   1     0.06   0.16   0.03    -0.03   0.08  -0.03     0.06   0.05  -0.02
  20   1     0.07   0.07  -0.07     0.07   0.06  -0.10     0.00  -0.01  -0.06
  21   1    -0.04  -0.06  -0.05    -0.11  -0.14  -0.14    -0.04  -0.04  -0.13
  22   1     0.10  -0.09  -0.04     0.10  -0.21   0.04     0.02  -0.07  -0.01
  23   1    -0.00  -0.01  -0.05    -0.05   0.25  -0.03     0.08   0.01  -0.05
  24   1     0.04   0.02   0.01    -0.20   0.03   0.10     0.10   0.05  -0.08
  25   1    -0.00   0.04  -0.11     0.07  -0.03   0.28     0.08   0.03   0.05
  26   1    -0.11   0.11   0.01     0.13  -0.24   0.02    -0.01  -0.04   0.01
  27   1     0.03  -0.09   0.11    -0.02   0.08  -0.04     0.05   0.06  -0.01
  28   1    -0.06  -0.06   0.06     0.08   0.07  -0.07     0.09   0.03   0.08
                     13                     14                     15
                        a                      a                      a 
 Frequencies --   421.3709               444.1056               489.5277
 Red. masses --     8.2794                 7.6710                 8.3968
 Frc consts  --     0.0000                 0.0000                 0.0000
 IR Inten    --     1.3904                 4.0265                 5.0489
 Raman Activ --     0.0000                 0.0000                 0.0000
 Depolar     --     0.0000                 0.0000                 0.0000
 Atom AN      X      Y      Z        X      Y      Z        X      Y      Z
   1   7     0.02   0.09   0.07     0.04   0.10   0.03     0.03   0.12   0.05
   2   6    -0.01   0.02   0.06     0.00  -0.00   0.04    -0.26  -0.25   0.19
   3   6     0.17  -0.13  -0.17     0.09  -0.09  -0.28    -0.09  -0.26  -0.12
   4   6     0.24  -0.14   0.09     0.14  -0.29  -0.05     0.08   0.29  -0.07
   5   6    -0.19   0.14   0.17     0.06   0.01  -0.33     0.24   0.18   0.18
   6   6    -0.34  -0.10  -0.01     0.24  -0.01   0.09     0.24   0.02   0.11
   7   6    -0.22  -0.03  -0.03    -0.08   0.03   0.15    -0.13  -0.11   0.08
   8   6     0.07  -0.12  -0.27    -0.20   0.02   0.29    -0.03  -0.06  -0.15
   9   6     0.31   0.13   0.12    -0.19   0.06   0.14    -0.05   0.01  -0.21
  10  17    -0.01   0.00  -0.01    -0.01   0.00  -0.01    -0.01  -0.00  -0.01
  11   1    -0.00   0.03  -0.01     0.00   0.03  -0.03     0.03   0.02  -0.15
  12   1     0.01   0.03   0.03     0.02   0.04   0.01     0.07   0.12   0.06
  13   1     0.02   0.04   0.02     0.02   0.05   0.03     0.05   0.09   0.06
  14   1    -0.06  -0.02   0.05    -0.03  -0.01   0.04    -0.17  -0.11   0.10
  15   1    -0.01   0.08  -0.00    -0.00   0.05  -0.00    -0.10   0.03  -0.01
  16   1     0.00   0.05  -0.07    -0.06   0.14  -0.12    -0.07   0.03  -0.06
  17   1     0.08  -0.06  -0.13     0.05  -0.09  -0.24    -0.08  -0.15  -0.10
  18   1     0.12  -0.02   0.03     0.05  -0.08  -0.03     0.08   0.10  -0.04
  19   1    -0.04   0.09   0.06    -0.08   0.21  -0.05     0.04  -0.03   0.04
  20   1    -0.09   0.02  -0.01    -0.00  -0.02  -0.32     0.14   0.08   0.12
  21   1    -0.19  -0.07  -0.03     0.11   0.02   0.05     0.08   0.02   0.07
  22   1    -0.01  -0.10  -0.02     0.02   0.04   0.03     0.09   0.04  -0.05
  23   1    -0.03   0.09   0.05    -0.07   0.04  -0.05    -0.05   0.06  -0.02
  24   1    -0.14  -0.03   0.00    -0.06   0.01   0.09    -0.12  -0.05   0.07
  25   1     0.03  -0.03  -0.14    -0.08   0.00   0.14    -0.03  -0.03  -0.08
  26   1    -0.03   0.02  -0.06    -0.02  -0.04   0.07     0.03   0.04  -0.04
  27   1    -0.06   0.21   0.04    -0.09   0.10  -0.01     0.02  -0.08   0.01
  28   1     0.24   0.11   0.15    -0.01   0.05   0.15    -0.06  -0.03  -0.15
                     16                     17                     18
                        a                      a                      a 
 Frequencies --   551.2526               802.1587               812.9782
 Red. masses --     5.6724                 4.9844                 6.1929
 Frc consts  --     0.0000                 0.0000                 0.0000
 IR Inten    --     0.2850                10.6117                 1.5935
 Raman Activ --     0.0000                 0.0000                 0.0000
 Depolar     --     0.0000                 0.0000                 0.0000
 Atom AN      X      Y      Z        X      Y      Z        X      Y      Z
   1   7    -0.03  -0.06  -0.04    -0.04   0.01   0.02    -0.03  -0.03  -0.07
   2   6    -0.01  -0.00  -0.02    -0.16   0.04   0.02    -0.07   0.02   0.04
   3   6    -0.21   0.15   0.21    -0.09   0.04  -0.06    -0.04   0.08   0.18
   4   6    -0.15  -0.05   0.07     0.03  -0.20  -0.10     0.14  -0.19   0.16
   5   6     0.06  -0.06  -0.18     0.09   0.20   0.08     0.07  -0.07   0.29
   6   6     0.23   0.01   0.12     0.16   0.19   0.10     0.01  -0.06   0.13
   7   6    -0.14  -0.10   0.11     0.02   0.13   0.06    -0.06   0.08  -0.10
   8   6     0.10  -0.10  -0.27    -0.07  -0.10  -0.02    -0.00   0.09  -0.32
   9   6     0.18   0.00   0.01    -0.16  -0.23  -0.15    -0.08   0.14  -0.25
  10  17     0.00   0.00   0.00    -0.00   0.00   0.01    -0.00   0.00   0.00
  11   1    -0.01  -0.01   0.01     0.04  -0.04  -0.07     0.01  -0.02  -0.02
  12   1    -0.01  -0.03  -0.01     0.10   0.02   0.19     0.02  -0.01   0.04
  13   1    -0.00  -0.03  -0.03     0.06  -0.06  -0.13     0.01  -0.03  -0.06
  14   1     0.09   0.03  -0.06     0.18   0.06  -0.15     0.07   0.02  -0.07
  15   1     0.01  -0.12   0.03     0.04  -0.20   0.18    -0.00  -0.12   0.06
  16   1    -0.02  -0.03   0.08     0.06  -0.08   0.00    -0.10   0.11   0.03
  17   1    -0.07   0.07   0.12     0.03   0.10   0.07     0.05   0.00  -0.07
  18   1    -0.11  -0.04   0.06     0.03  -0.04   0.06    -0.00  -0.07  -0.03
  19   1    -0.05   0.14  -0.02     0.04  -0.06   0.00    -0.08   0.29   0.14
  20   1     0.04  -0.02  -0.21    -0.04   0.04   0.13    -0.00  -0.05  -0.25
  21   1     0.22   0.09   0.14    -0.20  -0.07  -0.13     0.08   0.01   0.02
  22   1    -0.05   0.17  -0.03     0.24  -0.19   0.09    -0.00   0.03  -0.02
  23   1    -0.05   0.21  -0.02    -0.00  -0.10   0.02     0.01  -0.08   0.04
  24   1    -0.24  -0.07   0.14     0.11   0.05  -0.08     0.12   0.06  -0.04
  25   1     0.03  -0.03  -0.28     0.05  -0.01  -0.07    -0.02   0.03   0.28
  26   1    -0.03   0.18  -0.03    -0.00   0.04   0.01     0.17  -0.30  -0.17
  27   1    -0.06   0.15  -0.03    -0.23   0.21  -0.12     0.02  -0.05  -0.02
  28   1     0.20   0.07   0.07     0.20   0.05   0.14    -0.14  -0.01  -0.06
                     19                     20                     21
                        a                      a                      a 
 Frequencies --   822.9346               860.7012               876.2172
 Red. masses --     4.4989                 5.5596                 7.2441
 Frc consts  --     0.0000                 0.0000                 0.0000
 IR Inten    --    27.4884                 4.5316                 8.4780
 Raman Activ --     0.0000                 0.0000                 0.0000
 Depolar     --     0.0000                 0.0000                 0.0000
 Atom AN      X      Y      Z        X      Y      Z        X      Y      Z
   1   7     0.05  -0.04  -0.12     0.12   0.01   0.24     0.04   0.15   0.10
   2   6     0.21  -0.06   0.03     0.10  -0.03  -0.17     0.06   0.10  -0.13
   3   6     0.05   0.05   0.28    -0.14  -0.07  -0.34    -0.00  -0.20  -0.04
   4   6    -0.08  -0.05   0.07    -0.13   0.01  -0.02    -0.10  -0.04   0.06
   5   6     0.03   0.03  -0.01    -0.01  -0.03   0.21    -0.23   0.06   0.12
   6   6     0.07   0.10   0.08     0.13  -0.03   0.12     0.18  -0.03   0.13
   7   6     0.07   0.12   0.05    -0.02   0.13  -0.12     0.42   0.06  -0.23
   8   6     0.02  -0.09  -0.11    -0.09  -0.00  -0.09     0.01  -0.11  -0.16
   9   6    -0.20  -0.14  -0.17     0.05  -0.09   0.05    -0.22   0.05   0.07
  10  17     0.00   0.00  -0.01     0.00  -0.00  -0.01     0.00   0.00   0.00
  11   1    -0.08   0.06   0.12    -0.06   0.08   0.01     0.05   0.00   0.21
  12   1    -0.17  -0.08  -0.31    -0.09   0.04  -0.16     0.02  -0.05   0.09
  13   1    -0.10   0.06   0.15     0.01   0.17   0.30    -0.03  -0.11  -0.15
  14   1    -0.22  -0.09   0.20    -0.03   0.09   0.15     0.00  -0.02  -0.08
  15   1    -0.08   0.19  -0.25    -0.02   0.11  -0.15     0.04   0.05   0.01
  16   1    -0.14   0.25   0.02     0.14  -0.35  -0.01    -0.06  -0.04  -0.01
  17   1    -0.04  -0.15  -0.16    -0.06   0.15   0.23     0.00  -0.07  -0.04
  18   1    -0.04  -0.01   0.05    -0.10  -0.02   0.06     0.03   0.01  -0.02
  19   1     0.01  -0.04  -0.01    -0.12   0.14   0.09    -0.07  -0.04   0.02
  20   1    -0.01   0.00   0.05     0.05   0.00  -0.12    -0.09   0.01   0.08
  21   1    -0.09  -0.03  -0.07     0.08   0.00  -0.03    -0.02  -0.02   0.11
  22   1     0.09  -0.09   0.09     0.04  -0.01   0.03     0.03  -0.03   0.10
  23   1     0.03  -0.02   0.04    -0.01  -0.08  -0.03     0.09   0.37  -0.17
  24   1     0.06   0.04  -0.04     0.11   0.06  -0.06    -0.20  -0.05   0.11
  25   1     0.06  -0.01  -0.06     0.05   0.03   0.06    -0.09  -0.06  -0.03
  26   1     0.03   0.02  -0.02    -0.07  -0.10  -0.04    -0.05  -0.07  -0.05
  27   1    -0.19   0.15  -0.09    -0.04   0.04   0.02    -0.04  -0.03   0.04
  28   1     0.14   0.05   0.04     0.06   0.00   0.04    -0.12  -0.01   0.02
                     22                     23                     24
                        a                      a                      a 
 Frequencies --   902.2195               913.4615               921.8368
 Red. masses --     5.2151                 6.7675                 4.6036
 Frc consts  --     0.0000                 0.0000                 0.0000
 IR Inten    --    17.1604                 8.6884                 4.3872
 Raman Activ --     0.0000                 0.0000                 0.0000
 Depolar     --     0.0000                 0.0000                 0.0000
 Atom AN      X      Y      Z        X      Y      Z        X      Y      Z
   1   7     0.05   0.27   0.15     0.11   0.08   0.13     0.02  -0.02   0.09
   2   6     0.08   0.08  -0.20     0.02   0.05  -0.15    -0.02   0.00  -0.08
   3   6    -0.06  -0.30   0.01    -0.19  -0.08   0.01    -0.04  -0.00  -0.06
   4   6    -0.12   0.12   0.06    -0.03  -0.31   0.04     0.05  -0.08   0.13
   5   6     0.09  -0.04  -0.01     0.09   0.13   0.12     0.04   0.19  -0.12
   6   6    -0.06  -0.07  -0.07     0.03   0.17  -0.19    -0.15  -0.19  -0.16
   7   6    -0.19   0.05   0.09    -0.10  -0.26   0.09     0.07  -0.10   0.11
   8   6     0.03   0.04   0.04     0.12   0.10   0.18     0.07   0.20  -0.11
   9   6     0.04  -0.10  -0.08     0.03   0.18  -0.17    -0.17  -0.14  -0.09
  10  17     0.00   0.01   0.01     0.00  -0.00  -0.00    -0.00  -0.00  -0.00
  11   1     0.10   0.00   0.39    -0.02   0.06   0.21    -0.03   0.02  -0.03
  12   1     0.03  -0.10   0.17    -0.09  -0.06  -0.12    -0.01   0.02  -0.03
  13   1    -0.06  -0.21  -0.28    -0.04   0.01   0.07     0.02   0.06   0.11
  14   1    -0.07  -0.11  -0.14     0.03   0.07   0.02     0.04   0.06   0.02
  15   1     0.06   0.10  -0.01    -0.04  -0.04  -0.10    -0.01  -0.02  -0.02
  16   1    -0.10  -0.04  -0.00    -0.07  -0.09   0.03    -0.03  -0.09   0.01
  17   1    -0.09  -0.16  -0.05     0.00   0.02   0.02     0.05   0.06   0.02
  18   1    -0.00   0.04   0.03    -0.04  -0.10  -0.06     0.10   0.03   0.22
  19   1    -0.01   0.05   0.01     0.16   0.10   0.04     0.18  -0.16  -0.08
  20   1     0.14   0.03  -0.07    -0.15  -0.03   0.02     0.05   0.08   0.22
  21   1     0.13   0.04  -0.05    -0.17  -0.03  -0.06     0.08   0.05   0.25
  22   1    -0.08   0.08  -0.05     0.20  -0.07  -0.15    -0.16   0.17  -0.17
  23   1    -0.04  -0.21   0.08    -0.03   0.03  -0.01     0.02   0.08   0.01
  24   1     0.16   0.06  -0.05    -0.16  -0.11  -0.01     0.02   0.01   0.27
  25   1     0.13   0.05   0.01    -0.13  -0.04  -0.04     0.04   0.07   0.22
  26   1     0.02   0.02   0.01     0.17   0.16   0.07     0.18  -0.15  -0.08
  27   1    -0.06   0.07  -0.03     0.17  -0.07  -0.14    -0.14   0.14  -0.12
  28   1     0.14   0.02  -0.02    -0.14  -0.01  -0.04     0.03   0.02   0.21
                     25                     26                     27
                        a                      a                      a 
 Frequencies --   955.0450               961.8645              1007.8309
 Red. masses --     7.5751                 7.0972                 5.7121
 Frc consts  --     0.0000                 0.0000                 0.0000
 IR Inten    --     0.4883                15.9488                 5.9549
 Raman Activ --     0.0000                 0.0000                 0.0000
 Depolar     --     0.0000                 0.0000                 0.0000
 Atom AN      X      Y      Z        X      Y      Z        X      Y      Z
   1   7     0.02   0.01   0.17     0.09   0.09   0.06    -0.14  -0.01  -0.20
   2   6    -0.04  -0.02  -0.17    -0.06  -0.03  -0.06     0.26   0.01   0.23
   3   6    -0.04  -0.03  -0.08    -0.17  -0.00   0.07     0.04   0.00  -0.20
   4   6     0.12   0.10   0.17     0.15  -0.00  -0.08    -0.27  -0.07   0.05
   5   6     0.23  -0.17  -0.19    -0.01   0.01  -0.37     0.12   0.03  -0.01
   6   6    -0.24   0.13  -0.04     0.11   0.12   0.23     0.02   0.13  -0.03
   7   6     0.13   0.11   0.24    -0.14  -0.00   0.08    -0.03  -0.08   0.13
   8   6     0.10  -0.23  -0.18    -0.15   0.03  -0.28     0.05   0.05  -0.19
   9   6    -0.28   0.10   0.06     0.26   0.08   0.19    -0.01   0.02   0.12
  10  17    -0.00  -0.00  -0.00     0.00   0.00  -0.00    -0.00   0.00   0.00
  11   1    -0.01   0.01  -0.06     0.00   0.04   0.20     0.05  -0.07  -0.11
  12   1     0.03   0.05   0.05    -0.06  -0.07  -0.08     0.08   0.03   0.13
  13   1     0.04   0.06   0.10    -0.05  -0.04  -0.01     0.02  -0.08  -0.20
  14   1     0.04   0.05  -0.02    -0.00   0.00  -0.01    -0.14  -0.14   0.07
  15   1     0.01  -0.02  -0.01    -0.06  -0.09  -0.06     0.10   0.30   0.06
  16   1    -0.09  -0.12   0.02    -0.03  -0.01   0.02     0.22  -0.04  -0.06
  17   1     0.05   0.05   0.01    -0.06  -0.01   0.03    -0.21  -0.06   0.13
  18   1     0.01   0.01  -0.04     0.04   0.00   0.02    -0.23  -0.07   0.13
  19   1     0.15   0.06  -0.04     0.02  -0.25  -0.15     0.13   0.05   0.00
  20   1     0.06  -0.05  -0.11    -0.08  -0.01   0.15    -0.04  -0.02  -0.01
  21   1    -0.05   0.01  -0.17    -0.15  -0.05   0.04    -0.10  -0.01  -0.03
  22   1    -0.11  -0.04   0.16     0.11  -0.11   0.13     0.11  -0.04  -0.04
  23   1     0.15   0.08   0.30    -0.04  -0.10   0.03     0.04   0.02   0.12
  24   1    -0.03  -0.02  -0.11     0.07   0.03   0.02    -0.03  -0.03   0.02
  25   1    -0.08  -0.10  -0.13    -0.07   0.01   0.18    -0.08  -0.01   0.10
  26   1     0.11   0.05  -0.03    -0.01  -0.24  -0.13     0.13  -0.10  -0.08
  27   1    -0.11  -0.05   0.16     0.12  -0.11   0.14     0.04  -0.02   0.01
  28   1    -0.12   0.00  -0.06    -0.08  -0.04   0.06    -0.12  -0.03   0.14
                     28                     29                     30
                        a                      a                      a 
 Frequencies --  1017.4085              1064.0134              1069.4588
 Red. masses --     6.4853                 7.0714                 3.0304
 Frc consts  --     0.0000                 0.0000                 0.0000
 IR Inten    --    16.4773                 2.9351                 0.7412
 Raman Activ --     0.0000                 0.0000                 0.0000
 Depolar     --     0.0000                 0.0000                 0.0000
 Atom AN      X      Y      Z        X      Y      Z        X      Y      Z
   1   7     0.16   0.08  -0.28    -0.02   0.08   0.16    -0.00  -0.03   0.01
   2   6    -0.13   0.06   0.38    -0.02  -0.29  -0.21     0.01   0.06  -0.03
   3   6    -0.13  -0.04  -0.13     0.01   0.26   0.04     0.02  -0.06   0.03
   4   6     0.09  -0.03  -0.21     0.07  -0.05  -0.15    -0.08   0.03  -0.03
   5   6     0.14   0.06   0.10     0.28   0.02   0.06    -0.10   0.01   0.04
   6   6    -0.16  -0.06  -0.07    -0.25   0.02   0.07     0.14   0.02  -0.19
   7   6     0.11   0.06   0.05     0.18   0.04  -0.04    -0.01   0.02   0.19
   8   6     0.01  -0.07  -0.00    -0.24  -0.01   0.08     0.07  -0.08  -0.11
   9   6    -0.09  -0.05   0.12     0.13  -0.07  -0.10    -0.10   0.02   0.17
  10  17     0.01   0.00   0.00    -0.00   0.00   0.00    -0.00  -0.00  -0.00
  11   1    -0.01   0.06   0.31     0.03  -0.01   0.05    -0.00  -0.00  -0.07
  12   1    -0.15  -0.18  -0.28     0.04   0.01   0.12     0.02   0.02   0.02
  13   1    -0.15  -0.10  -0.09     0.01  -0.03  -0.04     0.01   0.03   0.04
  14   1     0.07   0.06   0.05    -0.14  -0.17  -0.04     0.03   0.04  -0.01
  15   1    -0.11  -0.21   0.03    -0.02  -0.00  -0.10     0.02   0.01   0.02
  16   1     0.23  -0.01  -0.07     0.10   0.10  -0.01    -0.05   0.00   0.01
  17   1    -0.08   0.03   0.09    -0.11  -0.00   0.04     0.05  -0.01  -0.05
  18   1     0.04  -0.01  -0.11    -0.16  -0.09  -0.08    -0.09  -0.05  -0.33
  19   1     0.06   0.09   0.04     0.23   0.14   0.03     0.11   0.06   0.01
  20   1     0.09   0.03  -0.04    -0.08  -0.06  -0.07    -0.31  -0.10  -0.01
  21   1     0.05   0.03   0.02    -0.15  -0.00   0.20    -0.08  -0.01   0.14
  22   1    -0.09   0.06  -0.05    -0.07   0.01   0.02     0.17   0.03  -0.27
  23   1     0.08   0.08   0.11     0.04   0.12  -0.04    -0.03  -0.07  -0.00
  24   1     0.00   0.01   0.04    -0.01   0.02   0.16     0.19   0.10   0.29
  25   1     0.02  -0.01  -0.03    -0.02   0.01   0.03     0.31   0.08  -0.01
  26   1    -0.06  -0.01   0.01    -0.26  -0.08   0.02    -0.09  -0.06  -0.03
  27   1    -0.08  -0.01   0.11     0.03   0.01  -0.06    -0.14  -0.05   0.28
  28   1    -0.02  -0.01   0.04     0.09   0.00  -0.05     0.09   0.02  -0.25
                     31                     32                     33
                        a                      a                      a 
 Frequencies --  1075.8430              1096.3614              1112.1652
 Red. masses --     7.4926                 7.1009                 7.9041
 Frc consts  --     0.0000                 0.0000                 0.0000
 IR Inten    --     6.4714                 2.1727                 0.2652
 Raman Activ --     0.0000                 0.0000                 0.0000
 Depolar     --     0.0000                 0.0000                 0.0000
 Atom AN      X      Y      Z        X      Y      Z        X      Y      Z
   1   7    -0.02  -0.09  -0.15     0.02  -0.07   0.09     0.03   0.01   0.02
   2   6     0.11   0.32   0.18    -0.08   0.07  -0.16    -0.07  -0.07  -0.02
   3   6    -0.08  -0.31  -0.02     0.18  -0.08   0.12     0.12   0.04  -0.02
   4   6    -0.13  -0.08   0.21    -0.43  -0.19  -0.21    -0.09  -0.00   0.08
   5   6     0.16   0.05  -0.11     0.18   0.22   0.04    -0.25   0.01   0.08
   6   6    -0.10  -0.01   0.12    -0.04  -0.05   0.09     0.17   0.01  -0.32
   7   6     0.05   0.10  -0.01    -0.07   0.05  -0.01     0.16   0.11   0.36
   8   6    -0.24  -0.09   0.04     0.10  -0.04  -0.10    -0.34  -0.13  -0.06
   9   6     0.18   0.08  -0.22    -0.01   0.05   0.24     0.23   0.01  -0.14
  10  17    -0.00  -0.00   0.00    -0.00  -0.00  -0.00     0.00  -0.00   0.00
  11   1    -0.02  -0.01  -0.10    -0.03   0.01  -0.05    -0.00   0.01   0.05
  12   1    -0.01   0.02  -0.07     0.00   0.04  -0.02    -0.02  -0.02  -0.02
  13   1     0.02   0.03   0.02     0.04   0.06   0.10    -0.01  -0.01   0.01
  14   1     0.12   0.16   0.06     0.06   0.05  -0.08    -0.01  -0.03  -0.03
  15   1     0.06   0.09   0.09     0.00  -0.06   0.01    -0.02  -0.06   0.00
  16   1    -0.13  -0.13   0.03     0.02   0.16  -0.03     0.07   0.05  -0.02
  17   1     0.08  -0.03  -0.04     0.14  -0.05  -0.15     0.07   0.03  -0.03
  18   1     0.01  -0.01  -0.03    -0.04  -0.03  -0.14     0.02   0.03   0.17
  19   1     0.27   0.03  -0.04    -0.04  -0.04  -0.01    -0.07  -0.00   0.02
  20   1     0.02   0.01   0.05     0.27   0.14   0.07    -0.02   0.02   0.03
  21   1    -0.05  -0.00   0.11     0.05   0.01   0.02     0.18   0.04  -0.24
  22   1    -0.12  -0.01   0.17     0.04   0.04  -0.11     0.04   0.03  -0.10
  23   1    -0.03  -0.00  -0.07     0.10   0.02   0.25     0.10   0.05   0.21
  24   1     0.05   0.05   0.08     0.00   0.00  -0.11     0.07   0.04   0.13
  25   1    -0.03  -0.01  -0.03     0.04  -0.01  -0.01    -0.28  -0.10   0.02
  26   1    -0.22  -0.05   0.01    -0.20  -0.09  -0.03    -0.11  -0.07  -0.02
  27   1     0.11  -0.02  -0.10     0.16  -0.03  -0.13     0.09  -0.02  -0.07
  28   1     0.10   0.02  -0.22    -0.10  -0.02   0.09     0.04  -0.01  -0.04
                     34                     35                     36
                        a                      a                      a 
 Frequencies --  1116.2495              1155.6216              1183.5860
 Red. masses --     7.1881                 7.9461                 3.5635
 Frc consts  --     0.0000                 0.0000                 0.0000
 IR Inten    --     6.0752                 3.2409                 3.3252
 Raman Activ --     0.0000                 0.0000                 0.0000
 Depolar     --     0.0000                 0.0000                 0.0000
 Atom AN      X      Y      Z        X      Y      Z        X      Y      Z
   1   7     0.12   0.05   0.01    -0.08   0.07  -0.00    -0.02   0.09  -0.07
   2   6    -0.26  -0.19   0.02     0.13  -0.19   0.02     0.02  -0.18   0.16
   3   6     0.38   0.06  -0.20    -0.11   0.21  -0.06     0.04   0.09  -0.14
   4   6    -0.32   0.06   0.31     0.07  -0.32   0.07     0.05   0.05   0.20
   5   6    -0.02  -0.04  -0.08    -0.10   0.25  -0.04     0.06  -0.12  -0.11
   6   6     0.05   0.04   0.10     0.10  -0.26   0.03    -0.02   0.05   0.09
   7   6    -0.08  -0.04  -0.06    -0.11   0.25  -0.02    -0.03  -0.05  -0.09
   8   6     0.07   0.03  -0.04     0.10  -0.27   0.02     0.06   0.04   0.06
   9   6    -0.03   0.07  -0.05    -0.09   0.27  -0.03    -0.11   0.07  -0.09
  10  17     0.00  -0.00   0.00     0.00   0.00   0.00     0.00   0.00   0.00
  11   1    -0.01   0.04   0.16     0.04  -0.03   0.02     0.03  -0.01   0.09
  12   1    -0.06  -0.08  -0.10     0.03   0.00   0.09    -0.01  -0.05   0.01
  13   1    -0.06  -0.03   0.02     0.01  -0.05  -0.11    -0.03  -0.06  -0.11
  14   1     0.02  -0.05  -0.08    -0.09  -0.07   0.10    -0.02  -0.01   0.12
  15   1    -0.05  -0.18   0.05    -0.02   0.05  -0.10    -0.02   0.01  -0.01
  16   1     0.22   0.08  -0.09     0.07  -0.04   0.00    -0.20  -0.20   0.06
  17   1     0.22   0.09  -0.08    -0.01   0.12   0.07     0.22   0.19  -0.01
  18   1    -0.16  -0.01   0.13     0.08  -0.05   0.01    -0.01   0.01   0.11
  19   1     0.20   0.04  -0.02     0.12  -0.08  -0.04    -0.25  -0.11  -0.03
  20   1    -0.04  -0.02   0.02    -0.02   0.08   0.17     0.00  -0.04  -0.03
  21   1    -0.06  -0.02   0.04     0.18   0.01   0.07    -0.12  -0.02   0.12
  22   1    -0.04  -0.04   0.17    -0.12   0.07   0.03     0.22   0.01  -0.29
  23   1    -0.10  -0.08  -0.18    -0.05  -0.14  -0.01     0.14   0.09   0.28
  24   1     0.01   0.00  -0.00     0.15   0.10  -0.08    -0.03  -0.02  -0.04
  25   1     0.07   0.03  -0.00     0.06  -0.06  -0.18     0.14   0.06  -0.00
  26   1     0.12   0.04  -0.01    -0.01   0.11   0.04    -0.34  -0.09   0.01
  27   1    -0.02  -0.01   0.03     0.08  -0.08   0.03     0.07   0.03  -0.19
  28   1     0.02   0.02  -0.13    -0.14   0.01  -0.11     0.01   0.03  -0.09
                     37                     38                     39
                        a                      a                      a 
 Frequencies --  1208.6626              1235.6057              1240.4015
 Red. masses --     4.0567                 3.0213                 3.6010
 Frc consts  --     0.0000                 0.0000                 0.0000
 IR Inten    --     3.4309                 0.3949                 0.6512
 Raman Activ --     0.0000                 0.0000                 0.0000
 Depolar     --     0.0000                 0.0000                 0.0000
 Atom AN      X      Y      Z        X      Y      Z        X      Y      Z
   1   7    -0.12   0.12  -0.04    -0.05  -0.01   0.03    -0.02   0.02  -0.01
   2   6     0.16  -0.21   0.07     0.03   0.03  -0.05     0.01  -0.02   0.00
   3   6    -0.04   0.07   0.00    -0.06   0.00   0.00     0.02  -0.02   0.01
   4   6    -0.16  -0.08  -0.09     0.08  -0.00   0.07    -0.01   0.11   0.01
   5   6     0.00   0.07   0.06    -0.14  -0.02   0.01    -0.08   0.11  -0.04
   6   6    -0.04   0.11  -0.07     0.11   0.07  -0.03     0.16  -0.26   0.09
   7   6     0.07  -0.16   0.08    -0.05  -0.27   0.05    -0.07   0.06  -0.08
   8   6    -0.07   0.13  -0.07     0.10   0.11  -0.03    -0.05   0.20   0.05
   9   6     0.08  -0.11   0.10    -0.14   0.06  -0.02     0.06  -0.19  -0.01
  10  17    -0.00   0.00   0.00    -0.00  -0.00   0.00    -0.00   0.00   0.00
  11   1     0.06  -0.05   0.01     0.00  -0.01  -0.01     0.01  -0.01  -0.01
  12   1     0.03  -0.02   0.13     0.01   0.03   0.03     0.01  -0.01   0.03
  13   1    -0.01  -0.06  -0.16     0.03   0.01  -0.01    -0.01  -0.01  -0.02
  14   1     0.02   0.11   0.27     0.02   0.05   0.03     0.03   0.05   0.05
  15   1    -0.08  -0.02  -0.18    -0.06  -0.07  -0.11    -0.02  -0.02  -0.03
  16   1    -0.18  -0.11   0.06     0.23   0.11  -0.07    -0.03  -0.02   0.01
  17   1     0.33   0.22  -0.09    -0.15  -0.07   0.05     0.04   0.01  -0.03
  18   1     0.08   0.00  -0.28     0.22   0.08   0.02    -0.09  -0.03  -0.20
  19   1    -0.01   0.03   0.02     0.21   0.08   0.01     0.28   0.05  -0.02
  20   1     0.21   0.10   0.01    -0.07  -0.02   0.01    -0.35  -0.09   0.07
  21   1     0.05   0.02  -0.21     0.13   0.01  -0.28     0.15  -0.01   0.07
  22   1    -0.10  -0.04   0.20    -0.09  -0.06   0.26    -0.03   0.04  -0.02
  23   1    -0.05   0.02  -0.14     0.04   0.03   0.10     0.16   0.07   0.34
  24   1    -0.06  -0.05   0.07    -0.10  -0.10  -0.00    -0.17  -0.09  -0.43
  25   1    -0.01   0.04   0.10     0.36   0.15   0.05    -0.19  -0.01   0.09
  26   1     0.12  -0.04  -0.04    -0.40  -0.17  -0.02     0.06  -0.00  -0.00
  27   1    -0.05  -0.01   0.11     0.06   0.03  -0.16    -0.10   0.03   0.06
  28   1     0.12  -0.00  -0.07    -0.02   0.02  -0.04     0.15  -0.00  -0.04
                     40                     41                     42
                        a                      a                      a 
 Frequencies --  1246.4725              1252.8754              1291.4635
 Red. masses --     2.9384                 2.9511                 2.8661
 Frc consts  --     0.0000                 0.0000                 0.0000
 IR Inten    --    12.8222                 2.3928                 1.9342
 Raman Activ --     0.0000                 0.0000                 0.0000
 Depolar     --     0.0000                 0.0000                 0.0000
 Atom AN      X      Y      Z        X      Y      Z        X      Y      Z
   1   7     0.18  -0.07  -0.02    -0.07   0.00   0.04     0.03  -0.03  -0.02
   2   6    -0.09   0.01   0.04     0.07   0.06  -0.09     0.02  -0.06  -0.02
   3   6    -0.08   0.14  -0.04    -0.07  -0.07   0.03    -0.22   0.06   0.01
   4   6     0.05  -0.20   0.01    -0.03  -0.22   0.15    -0.14   0.04   0.08
   5   6    -0.02   0.13  -0.01     0.00  -0.02  -0.07    -0.10  -0.22  -0.02
   6   6    -0.00   0.00  -0.01    -0.06   0.04   0.08     0.02   0.05   0.05
   7   6     0.03  -0.13   0.01     0.06  -0.03  -0.08    -0.02   0.08  -0.02
   8   6    -0.04   0.13   0.01    -0.11   0.12   0.07    -0.01  -0.01  -0.02
   9   6     0.00   0.02  -0.02     0.05   0.06  -0.10    -0.00  -0.08   0.07
  10  17     0.00  -0.00  -0.00    -0.00   0.00  -0.00     0.00  -0.00   0.00
  11   1    -0.04   0.05   0.03     0.01  -0.03  -0.06    -0.01   0.01   0.05
  12   1    -0.03  -0.04  -0.13     0.03   0.02   0.08     0.01   0.01  -0.01
  13   1    -0.05   0.02   0.14     0.02   0.01  -0.01     0.01   0.02   0.04
  14   1    -0.19  -0.35  -0.32     0.04   0.09   0.06    -0.08  -0.13  -0.08
  15   1     0.21   0.28   0.35    -0.08  -0.10  -0.16     0.09   0.18   0.10
  16   1    -0.13  -0.09   0.05     0.34   0.17  -0.10     0.21   0.10  -0.06
  17   1     0.02   0.10   0.04    -0.12  -0.08   0.03     0.14   0.16  -0.01
  18   1    -0.04  -0.07  -0.08     0.09  -0.01   0.14     0.57   0.23  -0.21
  19   1    -0.06  -0.06  -0.02    -0.16  -0.10  -0.03     0.22   0.12   0.02
  20   1     0.12   0.08   0.07     0.24   0.08   0.01     0.10  -0.01  -0.07
  21   1     0.10   0.02  -0.16    -0.06  -0.01   0.04    -0.11  -0.02   0.16
  22   1    -0.06  -0.01   0.10     0.13   0.01  -0.19     0.14  -0.02  -0.14
  23   1     0.03   0.05   0.05     0.07   0.09   0.09     0.00  -0.00   0.01
  24   1    -0.10  -0.07  -0.06    -0.08  -0.04  -0.09     0.03   0.03  -0.02
  25   1     0.11   0.08   0.06     0.00   0.04   0.05    -0.12  -0.05  -0.01
  26   1    -0.05  -0.04  -0.01     0.10   0.04   0.01     0.10   0.01  -0.01
  27   1    -0.09  -0.03   0.17    -0.19  -0.05   0.35     0.07   0.03  -0.15
  28   1     0.11   0.02  -0.22     0.18   0.04  -0.38     0.05  -0.00   0.02
                     43                     44                     45
                        a                      a                      a 
 Frequencies --  1313.7263              1329.9277              1336.4755
 Red. masses --     3.6739                 3.4707                 4.0740
 Frc consts  --     0.0000                 0.0000                 0.0000
 IR Inten    --     2.9114                15.9070                 2.0948
 Raman Activ --     0.0000                 0.0000                 0.0000
 Depolar     --     0.0000                 0.0000                 0.0000
 Atom AN      X      Y      Z        X      Y      Z        X      Y      Z
   1   7     0.02   0.03  -0.07     0.01   0.04  -0.20     0.02   0.02  -0.01
   2   6    -0.02  -0.08  -0.04    -0.17  -0.26  -0.18    -0.07  -0.06  -0.04
   3   6    -0.02  -0.04   0.10    -0.06  -0.04   0.09     0.06   0.03  -0.03
   4   6    -0.07  -0.02  -0.36     0.04  -0.00   0.04     0.11   0.03   0.25
   5   6    -0.10  -0.11   0.05     0.13   0.08   0.00    -0.21  -0.03  -0.08
   6   6     0.02   0.00   0.03    -0.03  -0.02  -0.02    -0.07  -0.01   0.08
   7   6     0.01   0.01   0.04    -0.00  -0.01  -0.02     0.12   0.07   0.24
   8   6     0.09   0.01   0.05    -0.00   0.00  -0.01     0.09   0.02  -0.02
   9   6     0.09   0.10  -0.15    -0.04   0.00   0.04     0.05  -0.04  -0.18
  10  17     0.00   0.00  -0.00     0.00   0.00  -0.00     0.00   0.00  -0.00
  11   1     0.02  -0.00   0.03     0.07  -0.04   0.24     0.01   0.00   0.01
  12   1     0.03  -0.07   0.08     0.06  -0.08   0.12    -0.00  -0.02  -0.00
  13   1    -0.07   0.03   0.07    -0.02   0.13   0.13    -0.02  -0.01  -0.00
  14   1     0.05   0.08   0.08     0.22   0.34   0.26     0.07   0.10   0.06
  15   1     0.07   0.13   0.09     0.21   0.38   0.29     0.03   0.06   0.05
  16   1    -0.13  -0.01   0.04     0.17   0.14  -0.05     0.02   0.02  -0.01
  17   1     0.16   0.05  -0.08    -0.02  -0.02   0.01    -0.13  -0.06   0.06
  18   1     0.05   0.08   0.47    -0.04  -0.02  -0.01    -0.17  -0.11  -0.38
  19   1     0.31   0.15   0.03    -0.19  -0.08  -0.01     0.10  -0.01  -0.03
  20   1     0.06   0.00  -0.04    -0.16  -0.05   0.01     0.29   0.12   0.04
  21   1    -0.02  -0.01   0.05     0.04   0.01  -0.06     0.00   0.00  -0.03
  22   1     0.06  -0.01  -0.06    -0.06   0.01   0.05     0.12   0.04  -0.24
  23   1    -0.02  -0.02  -0.02     0.00   0.00  -0.00    -0.13  -0.08  -0.27
  24   1    -0.05  -0.03  -0.10     0.02   0.01   0.06    -0.11  -0.07  -0.23
  25   1     0.05   0.02  -0.00    -0.02  -0.01  -0.01    -0.03  -0.01  -0.01
  26   1    -0.19  -0.02   0.02     0.03   0.00  -0.00    -0.22  -0.10  -0.01
  27   1    -0.20  -0.05   0.36     0.05   0.00  -0.07    -0.07   0.02   0.04
  28   1    -0.17  -0.02   0.13     0.05   0.01  -0.07    -0.12  -0.03   0.23
                     46                     47                     48
                        a                      a                      a 
 Frequencies --  1340.6325              1351.2947              1354.0753
 Red. masses --     4.0842                 4.4645                 4.4852
 Frc consts  --     0.0000                 0.0000                 0.0000
 IR Inten    --     1.9101                10.4128                 6.5427
 Raman Activ --     0.0000                 0.0000                 0.0000
 Depolar     --     0.0000                 0.0000                 0.0000
 Atom AN      X      Y      Z        X      Y      Z        X      Y      Z
   1   7     0.01   0.02  -0.02    -0.03  -0.02  -0.02     0.05   0.02   0.05
   2   6    -0.04  -0.04  -0.03     0.08   0.06   0.01    -0.01  -0.03  -0.03
   3   6     0.04   0.02   0.00    -0.15  -0.09   0.02    -0.02  -0.01   0.00
   4   6     0.04   0.01   0.07     0.02   0.02   0.04     0.03   0.01   0.10
   5   6    -0.15  -0.06   0.04     0.11   0.01   0.08    -0.09   0.01  -0.03
   6   6     0.21   0.06  -0.25     0.15   0.00  -0.34     0.06   0.08   0.05
   7   6    -0.05  -0.03  -0.09    -0.05   0.05   0.20    -0.22  -0.09  -0.31
   8   6    -0.28  -0.10   0.05     0.23   0.10  -0.03     0.27   0.06   0.12
   9   6     0.11   0.04  -0.11    -0.03  -0.03  -0.05     0.03  -0.07  -0.16
  10  17    -0.00   0.00  -0.00    -0.00  -0.00   0.00     0.00   0.00   0.00
  11   1     0.00   0.00   0.00     0.03  -0.03   0.03    -0.06   0.05  -0.12
  12   1     0.00  -0.03   0.02     0.03   0.00   0.05    -0.01  -0.03  -0.01
  13   1    -0.03  -0.00   0.01     0.03   0.05   0.05    -0.11  -0.09  -0.03
  14   1     0.04   0.07   0.05    -0.07  -0.10  -0.07     0.03   0.03   0.02
  15   1     0.03   0.04   0.04    -0.02  -0.04  -0.05     0.02   0.05   0.02
  16   1    -0.03   0.01   0.00     0.16   0.09  -0.06     0.05   0.03  -0.02
  17   1    -0.05  -0.03   0.03     0.18   0.12  -0.04    -0.00   0.00   0.00
  18   1    -0.08  -0.05  -0.15    -0.06  -0.02   0.00    -0.07  -0.05  -0.16
  19   1     0.00   0.03   0.02    -0.27  -0.06   0.02     0.04   0.02  -0.01
  20   1     0.25   0.09   0.01    -0.03  -0.02  -0.03     0.10   0.05   0.04
  21   1    -0.20  -0.03   0.34    -0.21  -0.04   0.35     0.01   0.00  -0.10
  22   1    -0.09  -0.05   0.23    -0.19  -0.01   0.25    -0.01  -0.03   0.12
  23   1     0.15   0.08   0.30    -0.08  -0.10  -0.07     0.10   0.03   0.23
  24   1    -0.01  -0.01  -0.03    -0.07  -0.04  -0.19     0.22   0.13   0.43
  25   1     0.35   0.12   0.00    -0.22  -0.07   0.02    -0.36  -0.14  -0.03
  26   1     0.20   0.11   0.03    -0.28  -0.11  -0.01    -0.17  -0.01   0.04
  27   1     0.02  -0.02   0.02    -0.08   0.02   0.06    -0.15  -0.00   0.17
  28   1    -0.13  -0.02   0.21     0.00  -0.00  -0.02    -0.04  -0.02   0.12
                     49                     50                     51
                        a                      a                      a 
 Frequencies --  1360.7583              1363.7433              1369.6066
 Red. masses --     4.2006                 4.1051                 3.2702
 Frc consts  --     0.0000                 0.0000                 0.0000
 IR Inten    --     6.2341                43.1800                70.0944
 Raman Activ --     0.0000                 0.0000                 0.0000
 Depolar     --     0.0000                 0.0000                 0.0000
 Atom AN      X      Y      Z        X      Y      Z        X      Y      Z
   1   7     0.03  -0.01   0.08     0.10   0.04   0.09    -0.13  -0.03  -0.20
   2   6     0.07   0.02  -0.00    -0.11  -0.09  -0.02     0.01   0.09   0.06
   3   6    -0.18  -0.11   0.03     0.24   0.19  -0.06     0.15   0.09  -0.09
   4   6    -0.11   0.08   0.12    -0.24  -0.13   0.04    -0.17  -0.05   0.09
   5   6     0.22   0.09  -0.04     0.18   0.01   0.03     0.09   0.02  -0.02
   6   6    -0.10  -0.05   0.08     0.02  -0.01  -0.11    -0.02   0.00   0.03
   7   6     0.08  -0.02  -0.01     0.00   0.02   0.08    -0.02  -0.02  -0.06
   8   6    -0.13  -0.08   0.06     0.05   0.04  -0.01     0.02   0.00   0.05
   9   6     0.17   0.04  -0.23     0.06   0.01  -0.05     0.10  -0.00  -0.14
  10  17     0.00  -0.00   0.00     0.00   0.00   0.00    -0.00  -0.00  -0.01
  11   1    -0.07   0.06  -0.13    -0.14   0.13  -0.20     0.23  -0.21   0.33
  12   1    -0.02   0.02  -0.05    -0.05  -0.01  -0.09     0.08  -0.09   0.21
  13   1    -0.05  -0.10  -0.07    -0.19  -0.21  -0.13     0.19   0.36   0.30
  14   1    -0.04  -0.07  -0.06     0.10   0.13   0.07    -0.08  -0.11  -0.08
  15   1     0.00   0.04  -0.03     0.01   0.06   0.04    -0.07  -0.17  -0.07
  16   1     0.21   0.13  -0.07    -0.18  -0.12   0.07    -0.15  -0.07   0.03
  17   1     0.24   0.15  -0.06    -0.32  -0.18   0.09    -0.16  -0.05   0.09
  18   1     0.05   0.04  -0.11     0.40   0.15  -0.04     0.21   0.07  -0.14
  19   1    -0.21  -0.09  -0.01    -0.16  -0.03   0.01    -0.07  -0.02  -0.00
  20   1    -0.30  -0.11   0.01    -0.15  -0.07  -0.02    -0.09  -0.03   0.02
  21   1     0.12   0.02  -0.16    -0.05  -0.01   0.11     0.03   0.00  -0.05
  22   1    -0.00   0.02  -0.06    -0.06  -0.01   0.08     0.00  -0.01   0.01
  23   1     0.01   0.01  -0.02    -0.03  -0.04  -0.04     0.02   0.00   0.04
  24   1    -0.04  -0.02   0.01    -0.05  -0.03  -0.08     0.02   0.02   0.08
  25   1     0.24   0.07  -0.02    -0.05  -0.01   0.01    -0.01  -0.01  -0.02
  26   1     0.03   0.04   0.02    -0.08  -0.04  -0.01    -0.03   0.00   0.01
  27   1    -0.11   0.00   0.16    -0.08   0.00   0.11    -0.10  -0.01   0.16
  28   1    -0.25  -0.05   0.34    -0.03  -0.01  -0.01    -0.09  -0.02   0.15
                     52                     53                     54
                        a                      a                      a 
 Frequencies --  1402.7614              1437.5953              1480.5308
 Red. masses --     1.6730                 1.8929                 1.8537
 Frc consts  --     0.0000                 0.0000                 0.0000
 IR Inten    --    94.9880                89.8056                 9.0899
 Raman Activ --     0.0000                 0.0000                 0.0000
 Depolar     --     0.0000                 0.0000                 0.0000
 Atom AN      X      Y      Z        X      Y      Z        X      Y      Z
   1   7    -0.11  -0.04   0.15    -0.02   0.21   0.14    -0.00  -0.01  -0.02
   2   6    -0.08  -0.07  -0.01    -0.03   0.01  -0.00     0.01   0.05  -0.06
   3   6     0.02   0.01   0.01    -0.02  -0.01   0.02    -0.08   0.21   0.12
   4   6    -0.03  -0.01  -0.02     0.01   0.00   0.00    -0.01   0.01   0.02
   5   6     0.01  -0.00   0.01     0.01  -0.00   0.00     0.01  -0.02  -0.02
   6   6     0.01   0.00  -0.01    -0.00  -0.00  -0.00     0.00  -0.00  -0.00
   7   6    -0.01  -0.01  -0.02     0.00   0.00   0.01     0.00  -0.00   0.00
   8   6     0.03   0.01   0.02    -0.01  -0.00  -0.01     0.00   0.00   0.01
   9   6     0.03  -0.01  -0.04    -0.04   0.01  -0.00    -0.04   0.01  -0.05
  10  17    -0.01   0.00   0.00     0.00   0.00  -0.00    -0.00   0.00  -0.00
  11   1     0.18  -0.16   0.13     0.44  -0.35  -0.39     0.01  -0.01   0.02
  12   1    -0.18   0.28  -0.47    -0.29  -0.59  -0.11     0.00   0.02  -0.02
  13   1     0.60   0.07  -0.36    -0.03   0.04   0.04     0.03   0.02  -0.00
  14   1     0.05   0.06   0.03     0.05  -0.00  -0.07    -0.14  -0.01   0.14
  15   1     0.05   0.11   0.08     0.00   0.07  -0.01     0.07  -0.13   0.15
  16   1    -0.03   0.02   0.00     0.04   0.00  -0.00     0.34  -0.51   0.12
  17   1    -0.00   0.01   0.01     0.00  -0.01  -0.02     0.02  -0.30  -0.56
  18   1     0.03   0.01   0.02     0.01   0.01   0.02     0.00   0.00  -0.02
  19   1    -0.00   0.01   0.00    -0.01   0.00   0.00    -0.05   0.06   0.02
  20   1    -0.00  -0.00  -0.00    -0.01  -0.00  -0.00    -0.00   0.00   0.07
  21   1    -0.02  -0.00   0.02    -0.00  -0.00   0.00    -0.01  -0.01  -0.00
  22   1    -0.01  -0.00   0.02    -0.00   0.00  -0.00    -0.01   0.01  -0.00
  23   1     0.01   0.00   0.03    -0.00   0.00  -0.01     0.00  -0.00   0.00
  24   1     0.01   0.00   0.01     0.00  -0.00  -0.01    -0.00  -0.00  -0.00
  25   1    -0.02  -0.00   0.02     0.01   0.00  -0.00     0.01   0.00  -0.01
  26   1    -0.03   0.01   0.01     0.00  -0.00  -0.00    -0.01  -0.01  -0.00
  27   1    -0.08   0.01   0.10     0.07  -0.05  -0.03     0.05  -0.10   0.05
  28   1    -0.03  -0.01   0.00     0.06   0.03   0.03     0.08   0.04   0.10
                     55                     56                     57
                        a                      a                      a 
 Frequencies --  1490.6135              1500.6204              1508.0166
 Red. masses --     1.8991                 1.9681                 1.9330
 Frc consts  --     0.0000                 0.0000                 0.0000
 IR Inten    --    12.1196                16.4373                 1.8414
 Raman Activ --     0.0000                 0.0000                 0.0000
 Depolar     --     0.0000                 0.0000                 0.0000
 Atom AN      X      Y      Z        X      Y      Z        X      Y      Z
   1   7    -0.01  -0.03  -0.01    -0.01   0.02  -0.00     0.00  -0.00  -0.00
   2   6    -0.07  -0.13   0.22    -0.01   0.00   0.01    -0.00  -0.00   0.01
   3   6    -0.02   0.07   0.04    -0.02   0.05   0.03     0.00   0.01   0.00
   4   6     0.01   0.00  -0.01     0.02   0.01   0.01    -0.02   0.00   0.02
   5   6    -0.00  -0.01  -0.01    -0.04   0.06   0.07    -0.03   0.11   0.13
   6   6     0.00  -0.00  -0.00    -0.03   0.02  -0.01    -0.04   0.01  -0.01
   7   6     0.00   0.00   0.00     0.02   0.04  -0.04    -0.10  -0.15   0.08
   8   6    -0.00   0.00   0.01     0.01  -0.02  -0.02     0.02  -0.06  -0.07
   9   6    -0.02   0.01  -0.02     0.21  -0.06   0.13    -0.03   0.01  -0.05
  10  17    -0.00  -0.00  -0.00    -0.00  -0.00  -0.00     0.00  -0.00  -0.00
  11   1    -0.04   0.03   0.07     0.04  -0.03  -0.02    -0.01   0.01   0.01
  12   1     0.04   0.06   0.04    -0.02  -0.07   0.01     0.01   0.01   0.01
  13   1     0.02   0.03   0.04    -0.00   0.02   0.03    -0.00   0.00   0.00
  14   1     0.46   0.01  -0.46     0.02   0.00  -0.03     0.01   0.00  -0.01
  15   1    -0.21   0.42  -0.43    -0.01   0.02  -0.02    -0.00   0.01  -0.01
  16   1     0.09  -0.15   0.04     0.08  -0.13   0.03     0.01  -0.03   0.01
  17   1     0.01  -0.09  -0.16     0.00  -0.08  -0.14     0.00  -0.01  -0.03
  18   1    -0.02  -0.01   0.01    -0.01  -0.01  -0.01     0.01   0.01  -0.02
  19   1    -0.01   0.03   0.01     0.08  -0.21  -0.05     0.13  -0.38  -0.08
  20   1     0.01   0.01   0.04     0.03  -0.01  -0.23     0.00  -0.03  -0.41
  21   1    -0.01  -0.00  -0.00     0.07   0.04   0.04     0.07   0.03   0.05
  22   1    -0.00   0.01  -0.00     0.06  -0.07   0.03     0.04  -0.07   0.03
  23   1     0.00  -0.00   0.00     0.01  -0.12   0.03    -0.02   0.44  -0.12
  24   1    -0.00  -0.00   0.00    -0.09  -0.02   0.07     0.39   0.08  -0.22
  25   1     0.00   0.00  -0.02    -0.01  -0.00   0.07    -0.01   0.01   0.23
  26   1     0.00  -0.01  -0.00    -0.01   0.07   0.02    -0.09   0.21   0.05
  27   1     0.03  -0.05   0.02    -0.28   0.47  -0.18     0.05  -0.09   0.04
  28   1     0.05   0.02   0.04    -0.46  -0.21  -0.32     0.08   0.04   0.08
                     58                     59                     60
                        a                      a                      a 
 Frequencies --  1512.4881              1515.2682              1523.3417
 Red. masses --     1.9672                 1.9047                 2.0009
 Frc consts  --     0.0000                 0.0000                 0.0000
 IR Inten    --     1.1187                 2.4016                 0.3156
 Raman Activ --     0.0000                 0.0000                 0.0000
 Depolar     --     0.0000                 0.0000                 0.0000
 Atom AN      X      Y      Z        X      Y      Z        X      Y      Z
   1   7    -0.00   0.00   0.00     0.00   0.01  -0.00     0.00  -0.00  -0.00
   2   6     0.00   0.00   0.00    -0.00  -0.00   0.00     0.00  -0.00   0.00
   3   6    -0.00   0.01   0.01    -0.00   0.00   0.00     0.01   0.00  -0.01
   4   6    -0.01  -0.00  -0.01     0.01  -0.01  -0.01    -0.02  -0.00   0.01
   5   6    -0.00   0.03   0.05     0.04  -0.10  -0.12    -0.03   0.06   0.09
   6   6     0.17  -0.05   0.09     0.09  -0.04   0.06     0.14  -0.03   0.09
   7   6    -0.05  -0.07   0.04    -0.04  -0.07   0.05     0.09   0.11  -0.08
   8   6    -0.05   0.10   0.14     0.03  -0.11  -0.12     0.02  -0.07  -0.10
   9   6     0.05  -0.00   0.02     0.06  -0.03   0.04    -0.06   0.01  -0.04
  10  17    -0.00   0.00   0.00    -0.00  -0.00   0.00     0.00  -0.00  -0.00
  11   1     0.00  -0.00  -0.01     0.01  -0.01  -0.01    -0.01   0.01   0.01
  12   1    -0.00  -0.01  -0.00    -0.00  -0.02   0.01     0.01   0.01   0.00
  13   1    -0.00  -0.00  -0.00    -0.01  -0.00   0.01    -0.00  -0.00  -0.00
  14   1    -0.00   0.00   0.00     0.00   0.00  -0.01     0.00  -0.00  -0.00
  15   1     0.00  -0.00   0.00    -0.00   0.00  -0.00    -0.00   0.00  -0.00
  16   1     0.01  -0.02   0.01     0.00   0.01  -0.00    -0.01  -0.00   0.00
  17   1    -0.00  -0.01  -0.02    -0.01  -0.00   0.01    -0.00   0.00   0.01
  18   1     0.01   0.00   0.01     0.01  -0.00  -0.01     0.02   0.01  -0.01
  19   1     0.04  -0.10  -0.02    -0.12   0.34   0.08     0.10  -0.24  -0.05
  20   1     0.01  -0.01  -0.12    -0.01   0.02   0.38     0.01  -0.02  -0.28
  21   1    -0.37  -0.19  -0.23    -0.20  -0.11  -0.14    -0.30  -0.15  -0.19
  22   1    -0.27   0.36  -0.11    -0.15   0.21  -0.08    -0.21   0.30  -0.10
  23   1    -0.00   0.21  -0.04    -0.01   0.23  -0.07     0.02  -0.34   0.09
  24   1     0.19   0.04  -0.10     0.21   0.04  -0.12    -0.30  -0.07   0.17
  25   1     0.03  -0.02  -0.40    -0.02   0.01   0.38    -0.01   0.02   0.29
  26   1     0.13  -0.37  -0.08    -0.12   0.36   0.09    -0.09   0.27   0.06
  27   1    -0.06   0.09  -0.02    -0.08   0.15  -0.07     0.07  -0.12   0.04
  28   1    -0.10  -0.04  -0.05    -0.14  -0.07  -0.11     0.12   0.06   0.08
                     61                     62                     63
                        a                      a                      a 
 Frequencies --  2855.6974              2902.2774              2903.6053
 Red. masses --     1.7340                 1.9531                 1.9166
 Frc consts  --     0.0000                 0.0000                 0.0000
 IR Inten    --    37.6346                25.1794                34.0574
 Raman Activ --     0.0000                 0.0000                 0.0000
 Depolar     --     0.0000                 0.0000                 0.0000
 Atom AN      X      Y      Z        X      Y      Z        X      Y      Z
   1   7     0.00  -0.01   0.00    -0.00   0.00  -0.00     0.00  -0.01   0.00
   2   6    -0.01   0.00  -0.00     0.00  -0.00   0.00    -0.00   0.00  -0.00
   3   6    -0.00   0.00  -0.00     0.00  -0.00   0.00     0.00  -0.00  -0.00
   4   6     0.09  -0.24   0.02     0.00  -0.00   0.00     0.00  -0.01   0.00
   5   6    -0.00   0.01  -0.01    -0.01   0.01   0.00    -0.00   0.00  -0.00
   6   6     0.00   0.01   0.00    -0.07  -0.22  -0.06    -0.03  -0.11  -0.02
   7   6     0.00   0.00  -0.00     0.00   0.00  -0.01    -0.17   0.11   0.05
   8   6    -0.00   0.01  -0.01    -0.04   0.12  -0.11     0.04  -0.12   0.10
   9   6     0.00   0.01   0.00     0.00  -0.01  -0.00    -0.00   0.00   0.00
  10  17    -0.00   0.00  -0.00    -0.00  -0.00   0.00    -0.00   0.00  -0.00
  11   1     0.00   0.00   0.00    -0.00   0.00  -0.00     0.00   0.00   0.00
  12   1    -0.00   0.00   0.01     0.00   0.00  -0.00    -0.00   0.00   0.00
  13   1    -0.01   0.02  -0.02     0.01  -0.01   0.01    -0.02   0.03  -0.02
  14   1     0.01  -0.01   0.01    -0.00   0.00  -0.00     0.01  -0.01   0.01
  15   1     0.01  -0.00  -0.01    -0.00   0.00   0.00     0.01  -0.00  -0.00
  16   1    -0.00  -0.00  -0.01    -0.00  -0.00  -0.01     0.00   0.00   0.00
  17   1     0.02  -0.03   0.01    -0.00   0.00  -0.00    -0.00   0.00  -0.00
  18   1    -0.35   0.89  -0.09    -0.00   0.01   0.00    -0.01   0.04  -0.00
  19   1     0.00  -0.01   0.05    -0.00   0.01  -0.01    -0.00   0.00   0.00
  20   1     0.02  -0.05   0.00     0.02  -0.06   0.01     0.01  -0.02   0.00
  21   1     0.01  -0.03   0.01    -0.18   0.40  -0.07    -0.10   0.23  -0.04
  22   1    -0.02  -0.01  -0.01     0.42   0.40   0.29     0.18   0.17   0.13
  23   1    -0.00   0.00   0.00    -0.02   0.00   0.01     0.51  -0.04  -0.24
  24   1     0.00   0.00  -0.00     0.01  -0.02   0.00     0.10  -0.38   0.06
  25   1     0.01  -0.04   0.00     0.12  -0.35   0.01    -0.13   0.38  -0.02
  26   1     0.00  -0.00   0.02     0.02  -0.07   0.38    -0.02   0.07  -0.35
  27   1    -0.02  -0.01  -0.01    -0.00  -0.00  -0.00    -0.00   0.00  -0.00
  28   1     0.01  -0.04   0.01    -0.02   0.04  -0.00     0.01  -0.03   0.00
                     64                     65                     66
                        a                      a                      a 
 Frequencies --  2907.0019              2911.5963              2933.2527
 Red. masses --     1.9025                 1.8674                 1.9484
 Frc consts  --     0.0000                 0.0000                 0.0000
 IR Inten    --    29.8705                36.1636               800.0411
 Raman Activ --     0.0000                 0.0000                 0.0000
 Depolar     --     0.0000                 0.0000                 0.0000
 Atom AN      X      Y      Z        X      Y      Z        X      Y      Z
   1   7     0.00  -0.01   0.00     0.00  -0.01   0.00    -0.08   0.14  -0.09
   2   6    -0.01   0.00  -0.00    -0.00   0.00  -0.00     0.17  -0.12   0.02
   3   6    -0.00   0.00   0.00    -0.00  -0.00  -0.01     0.00   0.01   0.03
   4   6     0.00  -0.00  -0.00     0.01  -0.02   0.01     0.00  -0.01   0.00
   5   6    -0.02   0.04  -0.05     0.04  -0.13   0.23     0.00  -0.00   0.00
   6   6    -0.04  -0.09  -0.04    -0.04  -0.01  -0.02    -0.00   0.00  -0.00
   7   6     0.16  -0.07  -0.06     0.03  -0.00  -0.02     0.00   0.01  -0.00
   8   6     0.04  -0.10   0.13     0.01  -0.02   0.02     0.00  -0.00   0.02
   9   6    -0.00   0.01   0.00     0.00   0.02   0.00    -0.00   0.01   0.00
  10  17     0.00   0.00  -0.00     0.00   0.00  -0.00     0.00  -0.01   0.00
  11   1     0.00   0.00   0.00     0.00   0.00  -0.00    -0.02  -0.00  -0.00
  12   1    -0.00  -0.00   0.00     0.00  -0.00   0.00     0.03  -0.00  -0.03
  13   1    -0.01   0.02  -0.01    -0.01   0.02  -0.02     0.28  -0.48   0.34
  14   1     0.01  -0.01   0.01     0.01  -0.01   0.01    -0.29   0.40  -0.27
  15   1     0.01  -0.00  -0.01     0.00  -0.00  -0.00    -0.32   0.03   0.20
  16   1    -0.00   0.00   0.00     0.01   0.01   0.04    -0.02  -0.03  -0.12
  17   1     0.00  -0.00   0.00     0.01  -0.01   0.01     0.02  -0.03   0.02
  18   1    -0.01   0.02  -0.00    -0.02   0.05  -0.01    -0.01   0.03  -0.00
  19   1     0.01  -0.03   0.17    -0.05   0.17  -0.84    -0.00   0.00  -0.02
  20   1     0.04  -0.11   0.00    -0.12   0.31   0.01    -0.00   0.01   0.00
  21   1    -0.06   0.10  -0.02     0.03  -0.10   0.01     0.00  -0.01   0.00
  22   1     0.22   0.22   0.16     0.10   0.12   0.08     0.01   0.01   0.01
  23   1    -0.56   0.05   0.26    -0.11   0.01   0.05    -0.02   0.01   0.01
  24   1    -0.04   0.18  -0.04     0.00   0.00  -0.00     0.02  -0.06   0.01
  25   1    -0.10   0.27  -0.00    -0.02   0.06  -0.00     0.00  -0.01   0.00
  26   1    -0.03   0.10  -0.48    -0.01   0.02  -0.08    -0.00   0.02  -0.06
  27   1    -0.01  -0.00  -0.01    -0.03  -0.02  -0.02    -0.01  -0.01  -0.00
  28   1     0.02  -0.05   0.01     0.02  -0.05   0.00     0.02  -0.04   0.01
                     67                     68                     69
                        a                      a                      a 
 Frequencies --  2934.6054              2934.7790              2939.6727
 Red. masses --     1.7901                 1.7056                 1.5325
 Frc consts  --     0.0000                 0.0000                 0.0000
 IR Inten    --    31.7561                 7.6504                87.3698
 Raman Activ --     0.0000                 0.0000                 0.0000
 Depolar     --     0.0000                 0.0000                 0.0000
 Atom AN      X      Y      Z        X      Y      Z        X      Y      Z
   1   7     0.00  -0.01   0.01     0.00  -0.01   0.01     0.00  -0.01   0.00
   2   6     0.04  -0.03   0.01     0.02  -0.02   0.01     0.01  -0.01   0.00
   3   6    -0.07  -0.00  -0.21    -0.05   0.00  -0.16    -0.01   0.00  -0.02
   4   6    -0.00   0.01  -0.01    -0.00  -0.00  -0.01    -0.00   0.00  -0.00
   5   6    -0.01   0.02  -0.01    -0.00   0.01   0.01    -0.01   0.01  -0.04
   6   6    -0.01   0.00  -0.00     0.03  -0.01   0.02    -0.15   0.09  -0.08
   7   6     0.01  -0.01  -0.00    -0.01   0.01   0.01    -0.04  -0.03   0.03
   8   6     0.02  -0.06  -0.07    -0.03   0.08   0.10    -0.00   0.01   0.01
   9   6     0.04   0.09   0.03    -0.04  -0.11  -0.03    -0.01  -0.05  -0.01
  10  17    -0.00   0.00  -0.00    -0.00   0.00  -0.00    -0.00   0.00  -0.00
  11   1    -0.00  -0.00   0.00     0.00   0.00   0.00     0.00   0.00   0.00
  12   1     0.01  -0.00  -0.00    -0.00   0.00   0.00    -0.00   0.00   0.00
  13   1    -0.02   0.03  -0.02    -0.01   0.02  -0.01    -0.01   0.02  -0.01
  14   1    -0.09   0.12  -0.08    -0.06   0.07  -0.05    -0.02   0.03  -0.02
  15   1    -0.05   0.00   0.03    -0.01  -0.00   0.01    -0.02   0.00   0.01
  16   1     0.09   0.20   0.65     0.07   0.15   0.50     0.01   0.02   0.06
  17   1     0.15  -0.20   0.09     0.11  -0.15   0.07     0.01  -0.02   0.01
  18   1     0.00  -0.01   0.00    -0.00   0.01   0.00     0.00  -0.01   0.00
  19   1     0.00  -0.00   0.04    -0.00   0.01  -0.05     0.01  -0.03   0.15
  20   1     0.03  -0.07   0.01     0.02  -0.04   0.01    -0.01   0.02  -0.01
  21   1     0.01  -0.02   0.00    -0.04   0.12  -0.01     0.25  -0.69   0.08
  22   1     0.01   0.02   0.01    -0.07  -0.07  -0.05     0.30   0.35   0.22
  23   1    -0.03   0.00   0.01     0.03  -0.00  -0.02     0.20  -0.03  -0.09
  24   1    -0.01   0.03  -0.01     0.01  -0.04   0.01    -0.06   0.16  -0.02
  25   1    -0.11   0.32  -0.04     0.15  -0.44   0.05     0.02  -0.05   0.00
  26   1     0.03  -0.09   0.31    -0.04   0.12  -0.42    -0.00   0.01  -0.03
  27   1    -0.20  -0.17  -0.14     0.22   0.19   0.15     0.09   0.08   0.06
  28   1     0.06  -0.15   0.02    -0.09   0.22  -0.03    -0.04   0.11  -0.01
                     70                     71                     72
                        a                      a                      a 
 Frequencies --  2943.4627              2945.3413              2947.1147
 Red. masses --     1.7067                 1.9375                 1.6741
 Frc consts  --     0.0000                 0.0000                 0.0000
 IR Inten    --    31.5484               546.3592               111.2500
 Raman Activ --     0.0000                 0.0000                 0.0000
 Depolar     --     0.0000                 0.0000                 0.0000
 Atom AN      X      Y      Z        X      Y      Z        X      Y      Z
   1   7    -0.01   0.02  -0.02    -0.08   0.14  -0.09    -0.00   0.01  -0.01
   2   6    -0.03   0.01   0.01    -0.18   0.07   0.04     0.01  -0.01   0.00
   3   6    -0.00  -0.00  -0.01     0.00  -0.03  -0.03     0.00   0.00   0.01
   4   6     0.00  -0.01  -0.00     0.00   0.00  -0.00     0.00  -0.01   0.00
   5   6    -0.00   0.01   0.00    -0.01   0.01   0.00    -0.02   0.04   0.04
   6   6    -0.01   0.03  -0.01    -0.01   0.00  -0.00     0.03  -0.05   0.02
   7   6     0.03   0.12  -0.05    -0.01  -0.02   0.01    -0.00  -0.16   0.05
   8   6     0.02  -0.06  -0.07    -0.00   0.01   0.01     0.02  -0.08  -0.03
   9   6    -0.06  -0.17  -0.06     0.01   0.04   0.01    -0.05  -0.12  -0.05
  10  17     0.00  -0.00   0.00     0.00  -0.01   0.00     0.00  -0.00   0.00
  11   1    -0.00   0.00   0.00    -0.02  -0.01  -0.00     0.00   0.00   0.00
  12   1    -0.01   0.01   0.00     0.01   0.00  -0.01    -0.01   0.00   0.00
  13   1     0.05  -0.09   0.06     0.27  -0.47   0.34     0.02  -0.03   0.02
  14   1     0.02  -0.03   0.02     0.14  -0.20   0.15    -0.03   0.04  -0.03
  15   1     0.10  -0.01  -0.06     0.51  -0.06  -0.30    -0.02   0.00   0.01
  16   1     0.01   0.01   0.05     0.03   0.04   0.16    -0.00  -0.01  -0.03
  17   1     0.00  -0.00  -0.00    -0.04   0.05  -0.04    -0.00   0.00  -0.00
  18   1    -0.01   0.02  -0.00    -0.00   0.00  -0.00    -0.01   0.03  -0.00
  19   1    -0.00   0.00  -0.01    -0.00   0.01  -0.02    -0.02   0.05  -0.17
  20   1     0.01  -0.04   0.01     0.02  -0.05   0.01     0.08  -0.21   0.03
  21   1     0.04  -0.09   0.01     0.01  -0.02   0.00    -0.08   0.20  -0.03
  22   1     0.00   0.01   0.00     0.01   0.01   0.01    -0.03  -0.04  -0.02
  23   1    -0.29   0.05   0.13     0.07  -0.01  -0.03     0.22  -0.05  -0.09
  24   1     0.16  -0.47   0.06    -0.03   0.08  -0.01    -0.20   0.61  -0.08
  25   1    -0.10   0.28  -0.03     0.01  -0.04   0.01    -0.11   0.30  -0.03
  26   1     0.03  -0.08   0.29    -0.00   0.01  -0.06     0.01  -0.04   0.12
  27   1     0.34   0.29   0.23    -0.06  -0.05  -0.04     0.27   0.24   0.19
  28   1    -0.12   0.30  -0.04     0.03  -0.08   0.01    -0.08   0.18  -0.03
                     73                     74                     75
                        a                      a                      a 
 Frequencies --  2956.8243              2970.1515              2971.9904
 Red. masses --     1.6109                 1.5476                 1.5454
 Frc consts  --     0.0000                 0.0000                 0.0000
 IR Inten    --    92.9298                59.4735                56.3758
 Raman Activ --     0.0000                 0.0000                 0.0000
 Depolar     --     0.0000                 0.0000                 0.0000
 Atom AN      X      Y      Z        X      Y      Z        X      Y      Z
   1   7     0.00  -0.01   0.01     0.03  -0.05   0.03     0.00  -0.01   0.00
   2   6     0.01   0.00  -0.01    -0.05  -0.09   0.16     0.01   0.00  -0.01
   3   6     0.02  -0.02   0.02    -0.02   0.05   0.03     0.02  -0.04  -0.01
   4   6    -0.00   0.02   0.00    -0.00   0.01   0.00    -0.00   0.01  -0.01
   5   6    -0.07   0.19   0.06    -0.01   0.02   0.01    -0.00   0.01  -0.00
   6   6    -0.02   0.05  -0.00    -0.00   0.00  -0.00    -0.01   0.01  -0.00
   7   6    -0.01   0.04  -0.01    -0.00   0.01  -0.00    -0.00   0.01  -0.00
   8   6    -0.01   0.02   0.01    -0.00   0.01  -0.00    -0.01   0.02  -0.01
   9   6     0.02   0.03   0.02    -0.02   0.02  -0.01    -0.16   0.12  -0.08
  10  17    -0.00   0.00  -0.00    -0.00   0.00  -0.00    -0.00   0.00  -0.00
  11   1     0.00   0.00  -0.00     0.01   0.00   0.00     0.00   0.00   0.00
  12   1     0.00  -0.00  -0.00    -0.03   0.01   0.02    -0.01   0.01   0.01
  13   1    -0.02   0.03  -0.02    -0.10   0.17  -0.12    -0.01   0.02  -0.02
  14   1     0.02  -0.02   0.01    -0.36   0.44  -0.29     0.01  -0.02   0.01
  15   1    -0.07   0.01   0.04     0.54  -0.09  -0.30    -0.06   0.01   0.04
  16   1    -0.00  -0.01  -0.04    -0.03  -0.05  -0.19     0.02   0.03   0.11
  17   1    -0.05   0.07  -0.04     0.11  -0.14   0.09    -0.10   0.13  -0.09
  18   1     0.01  -0.03   0.00     0.01  -0.02   0.00     0.01  -0.02   0.00
  19   1    -0.03   0.10  -0.31    -0.00   0.01  -0.03     0.00  -0.00   0.01
  20   1     0.29  -0.80   0.09     0.02  -0.06   0.01     0.01  -0.03   0.00
  21   1     0.06  -0.15   0.02     0.01  -0.01   0.00     0.01  -0.03   0.00
  22   1    -0.01  -0.00  -0.01    -0.00  -0.00  -0.00     0.01   0.01   0.01
  23   1    -0.02   0.01   0.01    -0.01   0.00   0.00     0.00   0.00  -0.00
  24   1     0.05  -0.15   0.02     0.01  -0.02   0.00     0.01  -0.04   0.00
  25   1     0.03  -0.09   0.01     0.01  -0.02   0.00     0.02  -0.06   0.00
  26   1    -0.00   0.01  -0.04    -0.00   0.00   0.00     0.00  -0.01   0.04
  27   1    -0.10  -0.09  -0.07     0.02   0.03   0.01     0.32   0.33   0.23
  28   1     0.01  -0.01   0.01     0.04  -0.10   0.01     0.25  -0.75   0.07
                     76                     77                     78
                        a                      a                      a 
 Frequencies --  2980.4039              3195.6527              3227.4146
 Red. masses --     1.6458                 1.8411                 1.6810
 Frc consts  --     0.0000                 0.0000                 0.0000
 IR Inten    --     5.1259                57.5447                26.5184
 Raman Activ --     0.0000                 0.0000                 0.0000
 Depolar     --     0.0000                 0.0000                 0.0000
 Atom AN      X      Y      Z        X      Y      Z        X      Y      Z
   1   7     0.01  -0.02   0.01     0.22  -0.03  -0.12     0.13   0.19   0.02
   2   6     0.02  -0.05   0.05     0.01  -0.00  -0.01     0.00   0.00   0.00
   3   6     0.11  -0.19   0.03    -0.00  -0.00  -0.00    -0.00  -0.00   0.00
   4   6     0.01  -0.01   0.00    -0.00   0.00   0.00    -0.00  -0.00  -0.00
   5   6     0.01  -0.02  -0.00     0.00   0.00   0.00    -0.00   0.00   0.00
   6   6     0.00  -0.00   0.00     0.00   0.00   0.00     0.00  -0.00   0.00
   7   6     0.00  -0.00  -0.00     0.00   0.00  -0.00     0.00   0.00  -0.00
   8   6     0.00  -0.01   0.00    -0.00   0.00   0.00     0.00  -0.00  -0.00
   9   6     0.03  -0.03   0.02     0.00   0.00   0.00    -0.00  -0.00  -0.00
  10  17    -0.00   0.00  -0.00    -0.00   0.00  -0.00     0.00  -0.00   0.00
  11   1     0.00  -0.00   0.00    -0.07  -0.12  -0.01    -0.62  -0.73   0.03
  12   1    -0.01   0.00   0.00    -0.80   0.28   0.44     0.14  -0.02  -0.07
  13   1    -0.04   0.07  -0.05     0.04  -0.04   0.02    -0.01   0.05  -0.02
  14   1    -0.16   0.20  -0.13     0.00  -0.00   0.01    -0.00   0.00  -0.00
  15   1     0.07  -0.02  -0.03    -0.02   0.00   0.01     0.00  -0.00  -0.00
  16   1     0.05   0.05   0.27     0.00   0.00   0.00    -0.00  -0.00  -0.00
  17   1    -0.46   0.61  -0.38     0.00  -0.00   0.00     0.00  -0.00   0.00
  18   1    -0.02   0.04  -0.00     0.00  -0.00   0.00    -0.00   0.00  -0.00
  19   1     0.00  -0.01   0.02    -0.00   0.00  -0.00    -0.00   0.00  -0.00
  20   1    -0.02   0.07  -0.01     0.00  -0.00   0.00     0.00  -0.00   0.00
  21   1    -0.01   0.02  -0.00     0.00   0.00   0.00    -0.00   0.00  -0.00
  22   1    -0.00  -0.00  -0.00    -0.00  -0.00  -0.00    -0.00  -0.00  -0.00
  23   1    -0.01   0.00   0.00    -0.00   0.00   0.00    -0.00   0.00   0.00
  24   1    -0.00   0.01  -0.00     0.00  -0.00   0.00    -0.00  -0.00   0.00
  25   1    -0.01   0.02  -0.00     0.00  -0.00   0.00    -0.00   0.00  -0.00
  26   1    -0.00   0.00  -0.00     0.00   0.00  -0.00    -0.00  -0.00   0.00
  27   1    -0.05  -0.06  -0.04    -0.02  -0.02  -0.01     0.01   0.01   0.00
  28   1    -0.05   0.15  -0.02    -0.00   0.00   0.00     0.00  -0.00   0.00
