 Entering Gaussian System
 *********************************************
 Gaussian 98:
 frequency output generated by the xtb code
 *********************************************
                         Standard orientation:
 --------------------------------------------------------------------
  Center     Atomic     Atomic              Coordinates (Angstroms)
  Number     Number      Type              X           Y           Z
 --------------------------------------------------------------------
    1          7             0        1.076960    0.599868    1.794425
    2          6             0        2.137405    1.642322    1.733510
    3          6             0        2.122955    2.453770    0.439638
    4          6             0        2.436886    1.637006   -0.834981
    5          6             0        1.208731    1.264991   -1.672757
    6          7             0        0.304538    0.306287   -1.016852
    7          6             0        0.432569   -1.167765   -1.279340
    8          6             0       -0.867191   -1.761707   -0.615754
    9          6             0       -0.605882   -2.627936    0.586397
   10          6             0        0.610838   -2.985862    0.984083
   11          6             0        1.801538   -2.568689    0.277488
   12          6             0        1.742168   -1.743741   -0.766063
   13          6             0       -0.972859    0.632624   -0.519278
   14          6             0       -1.694834   -0.539252   -0.262253
   15          6             0       -2.978572   -0.469924    0.239221
   16          6             0       -3.539925    0.771989    0.488731
   17          6             0       -2.827609    1.933125    0.233627
   18          6             0       -1.547431    1.877508   -0.272438
   19          1             0        1.241553   -0.152975    1.102556
   20          1             0        0.154291    1.005632    1.581778
   21          1             0        1.021530    0.157999    2.726006
   22          1             0        3.117853    1.169467    1.865467
   23          1             0        2.018861    2.313724    2.593889
   24          1             0        2.840549    3.280776    0.533204
   25          1             0        1.149907    2.943235    0.327461
   26          1             0        2.981442    0.729113   -0.556762
   27          1             0        3.136527    2.199901   -1.468435
   28          1             0        1.513495    0.826078   -2.628987
   29          1             0        0.638325    2.160493   -1.928556
   30          1             0        0.383145   -1.304666   -2.370559
   31          1             0       -1.415427   -2.356885   -1.361241
   32          1             0       -1.463652   -2.956621    1.154570
   33          1             0        0.726148   -3.615791    1.854124
   34          1             0        2.758327   -2.963354    0.599306
   35          1             0        2.645688   -1.479986   -1.287857
   36          1             0       -3.531816   -1.374151    0.425315
   37          1             0       -4.543143    0.835085    0.876654
   38          1             0       -3.285664    2.891578    0.423726
   39          1             0       -1.003287    2.779665   -0.488741
 --------------------------------------------------------------------
     1 basis functions        1 primitive gaussians
     1 alpha electrons        1 beta electrons

 Harmonic frequencies (cm**-1), IR intensities (km*mol⁻¹),
 Raman scattering activities (A**4/amu), Raman depolarization ratios,
 reduced masses (AMU), force constants (mDyne/A) and normal coordinates:
                      1                      2                      3
                        a                      a                      a 
 Frequencies --  -198.8189                17.8433                44.7312
 Red. masses --     2.5203                10.5919                10.2171
 Frc consts  --     0.0000                 0.0000                 0.0000
 IR Inten    --     4.8234                11.2944                 2.5670
 Raman Activ --     0.0000                 0.0000                 0.0000
 Depolar     --     0.0000                 0.0000                 0.0000
 Atom AN      X      Y      Z        X      Y      Z        X      Y      Z
   1   7    -0.07   0.19   0.02    -0.29   0.42   0.03     0.35   0.03  -0.08
   2   6     0.10  -0.02  -0.02    -0.20   0.32   0.02     0.22   0.12  -0.11
   3   6     0.03   0.03   0.01    -0.01   0.17  -0.08     0.08   0.14  -0.10
   4   6     0.01   0.04   0.00     0.03  -0.00   0.04    -0.00   0.16  -0.13
   5   6    -0.00  -0.01   0.05     0.07  -0.07   0.01    -0.07   0.07   0.01
   6   7     0.08  -0.02   0.18     0.06  -0.07   0.01     0.03   0.05   0.12
   7   6    -0.00  -0.02   0.01     0.02  -0.06  -0.01     0.08   0.05   0.12
   8   6    -0.01  -0.02   0.00    -0.01  -0.03  -0.03    -0.00   0.00  -0.09
   9   6     0.00   0.01   0.02    -0.04  -0.12  -0.09    -0.18  -0.18  -0.19
  10   6     0.01  -0.01  -0.01    -0.06  -0.28  -0.18    -0.24  -0.24  -0.06
  11   6    -0.00  -0.07  -0.05    -0.04  -0.27  -0.14    -0.14  -0.08   0.22
  12   6    -0.00  -0.07  -0.05    -0.00  -0.12  -0.03     0.02   0.07   0.32
  13   6    -0.02  -0.02  -0.00     0.07  -0.04   0.03    -0.01  -0.00   0.08
  14   6    -0.02  -0.01  -0.03     0.04  -0.02   0.02    -0.01  -0.02  -0.04
  15   6    -0.02  -0.01  -0.03     0.06   0.01   0.05    -0.05  -0.06  -0.12
  16   6    -0.02  -0.01  -0.03     0.11   0.03   0.11    -0.07  -0.08  -0.07
  17   6    -0.02  -0.01  -0.04     0.14   0.01   0.13    -0.06  -0.06   0.05
  18   6    -0.01  -0.02  -0.02     0.13  -0.02   0.09    -0.03  -0.02   0.13
  19   1    -0.34   0.33  -0.38    -0.05   0.08   0.06     0.11   0.01  -0.02
  20   1    -0.06   0.21   0.52    -0.06   0.11  -0.08     0.08  -0.02  -0.02
  21   1     0.28  -0.29  -0.14    -0.14   0.17   0.03     0.11   0.01  -0.02
  22   1     0.01  -0.06  -0.07    -0.07   0.08   0.06     0.08   0.06  -0.05
  23   1     0.10  -0.03   0.02    -0.08   0.13  -0.02     0.06   0.03  -0.03
  24   1     0.00   0.01  -0.00     0.02   0.03  -0.03     0.02   0.05  -0.04
  25   1     0.00   0.00   0.01     0.01   0.07  -0.06     0.02   0.03  -0.00
  26   1     0.01   0.01  -0.00    -0.00   0.00   0.05     0.03   0.06  -0.05
  27   1    -0.00   0.01  -0.00     0.02  -0.03   0.00    -0.03   0.06  -0.06
  28   1    -0.01  -0.01   0.01     0.03  -0.03   0.01    -0.04   0.02  -0.00
  29   1    -0.01  -0.01   0.01     0.02  -0.03  -0.02    -0.04   0.01   0.01
  30   1    -0.01   0.02  -0.00     0.01  -0.01  -0.00     0.08   0.02   0.03
  31   1     0.00  -0.01   0.00    -0.01   0.01  -0.02     0.02   0.03  -0.07
  32   1     0.00   0.01   0.01    -0.01  -0.02  -0.02    -0.08  -0.08  -0.11
  33   1     0.00   0.00   0.00    -0.02  -0.10  -0.07    -0.11  -0.11  -0.04
  34   1    -0.00  -0.02  -0.02    -0.02  -0.10  -0.05    -0.05  -0.02   0.10
  35   1    -0.00  -0.02  -0.02     0.00  -0.02   0.01     0.03   0.06   0.16
  36   1    -0.01  -0.00  -0.01     0.01   0.01   0.01    -0.02  -0.02  -0.06
  37   1    -0.01  -0.00  -0.01     0.04   0.01   0.04    -0.03  -0.03  -0.04
  38   1    -0.01  -0.00  -0.01     0.05   0.01   0.05    -0.02  -0.02   0.02
  39   1     0.00  -0.01  -0.00     0.04  -0.01   0.03    -0.01  -0.00   0.07
                      4                      5                      6
                        a                      a                      a 
 Frequencies --    65.7542                77.7125               113.6860
 Red. masses --     9.6873                10.2823                 9.5349
 Frc consts  --     0.0000                 0.0000                 0.0000
 IR Inten    --     2.6759                 3.2617                15.4797
 Raman Activ --     0.0000                 0.0000                 0.0000
 Depolar     --     0.0000                 0.0000                 0.0000
 Atom AN      X      Y      Z        X      Y      Z        X      Y      Z
   1   7     0.00   0.23   0.07    -0.24   0.00  -0.09    -0.41   0.07  -0.27
   2   6     0.15   0.06   0.00    -0.11  -0.11  -0.06    -0.01  -0.31  -0.14
   3   6     0.27  -0.01  -0.05    -0.04  -0.06  -0.03     0.28  -0.12  -0.02
   4   6     0.07  -0.13  -0.02    -0.00  -0.02  -0.05     0.08   0.01  -0.15
   5   6    -0.03  -0.02   0.09     0.03  -0.01  -0.10    -0.05   0.11   0.01
   6   7     0.00  -0.05   0.13     0.00  -0.03  -0.18     0.00   0.11   0.08
   7   6    -0.06  -0.02  -0.08     0.06  -0.03  -0.10     0.07   0.10   0.14
   8   6    -0.04  -0.05  -0.08     0.01  -0.03  -0.21     0.08   0.06   0.11
   9   6     0.00   0.13   0.04    -0.11  -0.04  -0.19     0.07  -0.02   0.06
  10   6     0.02   0.27   0.11    -0.14   0.22   0.13     0.07  -0.15  -0.03
  11   6    -0.00   0.12  -0.03    -0.06   0.30   0.31     0.07  -0.06   0.02
  12   6    -0.05  -0.08  -0.18     0.02   0.08   0.13     0.08   0.11   0.16
  13   6    -0.02  -0.06   0.10     0.04  -0.03  -0.09    -0.02   0.06   0.07
  14   6    -0.09  -0.07  -0.14     0.04  -0.03  -0.12     0.03   0.03   0.09
  15   6    -0.15  -0.10  -0.30     0.10  -0.05   0.03     0.00  -0.01   0.03
  16   6    -0.13  -0.11  -0.17     0.18  -0.06   0.25    -0.08  -0.03  -0.06
  17   6    -0.02  -0.10   0.17     0.18  -0.05   0.28    -0.12  -0.00  -0.04
  18   6     0.04  -0.08   0.31     0.10  -0.04   0.08    -0.08   0.05   0.05
  19   1     0.01  -0.00   0.10    -0.12   0.03  -0.08    -0.13  -0.02  -0.03
  20   1     0.03   0.08  -0.08    -0.06   0.04   0.04    -0.06   0.10  -0.16
  21   1    -0.07   0.14   0.05    -0.04  -0.05  -0.05    -0.21   0.05  -0.06
  22   1     0.03  -0.02   0.01    -0.05  -0.07  -0.03    -0.05  -0.19  -0.05
  23   1     0.07   0.04  -0.01    -0.01  -0.04  -0.01     0.06  -0.10  -0.02
  24   1     0.12  -0.04  -0.03    -0.00  -0.03   0.01     0.15  -0.10   0.04
  25   1     0.10   0.05  -0.01    -0.00  -0.01  -0.01     0.13   0.06   0.00
  26   1    -0.01  -0.05  -0.00     0.00  -0.00  -0.02     0.04  -0.00  -0.09
  27   1     0.03  -0.07  -0.03     0.00   0.00  -0.00    -0.00   0.02  -0.06
  28   1    -0.04   0.01   0.01     0.02   0.00  -0.03    -0.06   0.05  -0.02
  29   1    -0.01   0.01   0.06     0.01  -0.00  -0.03    -0.02   0.04   0.05
  30   1    -0.04   0.03  -0.03     0.06  -0.02  -0.03     0.03   0.02   0.04
  31   1     0.00  -0.05  -0.01     0.00   0.01  -0.08     0.03   0.02   0.02
  32   1     0.01   0.05   0.03    -0.05  -0.06  -0.11     0.02  -0.01   0.02
  33   1     0.02   0.13   0.07    -0.07   0.08   0.06     0.02  -0.07  -0.03
  34   1    -0.00   0.03  -0.01    -0.02   0.12   0.15     0.02  -0.02  -0.01
  35   1    -0.03  -0.07  -0.10     0.02   0.01   0.05     0.03   0.06   0.06
  36   1    -0.06  -0.03  -0.15     0.03  -0.01   0.00     0.01  -0.01   0.01
  37   1    -0.05  -0.04  -0.09     0.07  -0.02   0.12    -0.03  -0.02  -0.04
  38   1     0.01  -0.03   0.09     0.07  -0.02   0.13    -0.05  -0.01  -0.03
  39   1     0.04  -0.02   0.17     0.03  -0.01   0.03    -0.03   0.02   0.02
                      7                      8                      9
                        a                      a                      a 
 Frequencies --   119.9565               155.7054               183.9398
 Red. masses --     9.9355                 9.0545                 9.5463
 Frc consts  --     0.0000                 0.0000                 0.0000
 IR Inten    --    23.1484                13.4503                 2.0481
 Raman Activ --     0.0000                 0.0000                 0.0000
 Depolar     --     0.0000                 0.0000                 0.0000
 Atom AN      X      Y      Z        X      Y      Z        X      Y      Z
   1   7     0.02   0.27   0.39    -0.13   0.04   0.48     0.00  -0.01  -0.05
   2   6     0.26   0.01   0.09     0.10  -0.19  -0.10    -0.08   0.07   0.01
   3   6     0.20  -0.11   0.01    -0.27  -0.11  -0.05     0.02  -0.03  -0.05
   4   6     0.06  -0.22   0.04    -0.16   0.16  -0.20    -0.01  -0.17   0.03
   5   6     0.01   0.02   0.00    -0.12   0.01  -0.17    -0.03  -0.13   0.04
   6   7    -0.11   0.05  -0.13     0.01  -0.02  -0.05    -0.07  -0.09   0.04
   7   6    -0.02   0.04  -0.05     0.04  -0.02   0.03    -0.12  -0.05  -0.02
   8   6    -0.01   0.01  -0.07     0.03  -0.00   0.03    -0.08  -0.07   0.06
   9   6    -0.03  -0.11  -0.16     0.05  -0.02   0.03     0.09  -0.35  -0.18
  10   6    -0.03  -0.03  -0.09     0.05  -0.08  -0.02     0.16  -0.07  -0.13
  11   6    -0.02   0.12   0.02     0.05  -0.04   0.00     0.14   0.37   0.09
  12   6    -0.01   0.11   0.02     0.05   0.01   0.05    -0.02   0.19  -0.03
  13   6    -0.09   0.02  -0.12     0.07  -0.01   0.04     0.01  -0.05   0.18
  14   6    -0.00  -0.01   0.03     0.03   0.01   0.00    -0.02  -0.03   0.21
  15   6     0.06  -0.06   0.19    -0.03   0.07  -0.14    -0.09   0.12   0.03
  16   6    -0.01  -0.08   0.13     0.02   0.10  -0.15    -0.07   0.18  -0.20
  17   6    -0.15  -0.05  -0.14     0.13   0.07   0.03     0.05   0.14  -0.09
  18   6    -0.19  -0.00  -0.26     0.16   0.01   0.13     0.13   0.00   0.15
  19   1    -0.04   0.01   0.16    -0.11  -0.08   0.21    -0.00   0.03  -0.06
  20   1     0.03   0.12   0.09    -0.02   0.05   0.13    -0.02  -0.01   0.03
  21   1    -0.02   0.14   0.14    -0.02   0.11   0.18     0.04  -0.05  -0.03
  22   1     0.05  -0.06  -0.00     0.01  -0.11  -0.15    -0.02   0.04   0.04
  23   1     0.15   0.03   0.01     0.18  -0.05  -0.01    -0.06   0.03  -0.01
  24   1     0.07  -0.04  -0.03    -0.13   0.02  -0.01     0.02  -0.02  -0.03
  25   1     0.06  -0.02   0.02    -0.12  -0.10   0.03     0.02   0.01  -0.03
  26   1    -0.04  -0.09   0.02     0.00   0.06  -0.10    -0.02  -0.05   0.04
  27   1     0.06  -0.11   0.02    -0.09   0.11  -0.04     0.01  -0.08   0.00
  28   1    -0.01   0.03  -0.01    -0.03  -0.01  -0.04    -0.01  -0.05   0.02
  29   1     0.03   0.03   0.03    -0.07  -0.02  -0.06     0.01  -0.03   0.00
  30   1     0.01   0.00  -0.01     0.02  -0.02   0.01    -0.05  -0.01  -0.01
  31   1    -0.01   0.03  -0.04     0.01  -0.00   0.01    -0.06   0.02   0.01
  32   1    -0.01  -0.07  -0.07     0.02  -0.00   0.01     0.04  -0.23  -0.10
  33   1    -0.01  -0.03  -0.04     0.01  -0.03  -0.01     0.07  -0.07  -0.08
  34   1    -0.00   0.05   0.02     0.02  -0.01   0.00     0.06   0.19   0.06
  35   1    -0.00   0.04   0.02     0.02   0.03   0.03    -0.02   0.11  -0.01
  36   1     0.05  -0.03   0.10    -0.03   0.03  -0.07    -0.06   0.05   0.01
  37   1     0.01  -0.03   0.08    -0.01   0.04  -0.08    -0.04   0.08  -0.12
  38   1    -0.07  -0.02  -0.07     0.05   0.02   0.02     0.02   0.05  -0.06
  39   1    -0.08   0.00  -0.12     0.06  -0.00   0.06     0.07  -0.02   0.05
                     10                     11                     12
                        a                      a                      a 
 Frequencies --   198.2614               232.6399               269.2201
 Red. masses --     9.1731                10.6260                10.4559
 Frc consts  --     0.0000                 0.0000                 0.0000
 IR Inten    --     4.8327                 8.0307                 1.3404
 Raman Activ --     0.0000                 0.0000                 0.0000
 Depolar     --     0.0000                 0.0000                 0.0000
 Atom AN      X      Y      Z        X      Y      Z        X      Y      Z
   1   7    -0.04   0.08  -0.08    -0.07  -0.10   0.13     0.02   0.03  -0.03
   2   6     0.14  -0.10   0.01    -0.18   0.02  -0.12     0.01   0.04   0.07
   3   6     0.07   0.17   0.18    -0.12  -0.11  -0.21     0.03   0.03   0.06
   4   6    -0.08   0.38  -0.00     0.16  -0.07  -0.15    -0.11  -0.04   0.06
   5   6    -0.09   0.05   0.15     0.12  -0.09  -0.04    -0.10   0.24  -0.10
   6   7     0.10  -0.14   0.18     0.23   0.09   0.37    -0.11   0.04  -0.47
   7   6    -0.07  -0.12  -0.09     0.04   0.12   0.01     0.02  -0.03  -0.11
   8   6    -0.08  -0.11  -0.07     0.03   0.10  -0.10     0.05   0.03   0.02
   9   6    -0.07  -0.14  -0.10    -0.09   0.01  -0.17    -0.06   0.00   0.02
  10   6    -0.05   0.12   0.07    -0.10   0.17   0.02    -0.09   0.03   0.12
  11   6    -0.06   0.09   0.03    -0.07   0.04  -0.01    -0.12  -0.09   0.01
  12   6    -0.08  -0.20  -0.19    -0.01  -0.11  -0.13    -0.04  -0.11  -0.02
  13   6     0.05  -0.12   0.06     0.13   0.11   0.23     0.14   0.03   0.12
  14   6     0.01  -0.09   0.08     0.14   0.09   0.14     0.19   0.03   0.24
  15   6     0.05   0.01   0.18     0.15  -0.06   0.16     0.18  -0.06   0.19
  16   6     0.08   0.06   0.01    -0.04  -0.12  -0.02    -0.05  -0.09  -0.26
  17   6     0.05   0.02  -0.24    -0.16  -0.07  -0.14    -0.03  -0.07  -0.14
  18   6     0.08  -0.08  -0.15    -0.06   0.06   0.10     0.14   0.00   0.27
  19   1     0.02  -0.04   0.05    -0.02  -0.05   0.06    -0.02   0.05  -0.06
  20   1     0.03   0.05  -0.14    -0.04  -0.07   0.04    -0.01   0.02   0.05
  21   1    -0.11   0.09   0.00     0.03   0.01   0.06     0.04  -0.06  -0.04
  22   1     0.02  -0.08  -0.06    -0.04   0.04  -0.00     0.00   0.01   0.03
  23   1     0.10  -0.07   0.05    -0.07   0.04  -0.07    -0.01   0.00   0.02
  24   1     0.05   0.02   0.07    -0.07   0.00  -0.04     0.03  -0.01   0.00
  25   1     0.03   0.08   0.11    -0.05  -0.08  -0.11     0.02   0.04   0.03
  26   1     0.08   0.15  -0.06     0.05  -0.01  -0.04    -0.11  -0.06   0.02
  27   1    -0.12   0.19  -0.03     0.04  -0.01  -0.03     0.03  -0.06   0.04
  28   1    -0.01   0.04   0.04    -0.01  -0.08   0.00    -0.02   0.15  -0.07
  29   1    -0.09  -0.02   0.05     0.05  -0.02  -0.03    -0.04   0.09   0.05
  30   1    -0.05   0.01  -0.03    -0.00   0.11  -0.01     0.01  -0.06  -0.03
  31   1    -0.04  -0.01  -0.02    -0.01   0.08  -0.05    -0.03   0.04   0.01
  32   1    -0.02  -0.08  -0.05    -0.04  -0.02  -0.08    -0.03   0.03  -0.00
  33   1    -0.01   0.06   0.04    -0.04   0.06   0.02    -0.03   0.03   0.05
  34   1    -0.01   0.04   0.03    -0.03  -0.02  -0.01    -0.04  -0.05  -0.01
  35   1    -0.03  -0.09  -0.08    -0.00  -0.09  -0.07    -0.00  -0.09  -0.02
  36   1     0.01   0.02   0.09     0.08  -0.04   0.05     0.08  -0.03   0.08
  37   1     0.03   0.04   0.01    -0.02  -0.06  -0.03    -0.05  -0.03  -0.17
  38   1     0.01   0.02  -0.13    -0.09  -0.03  -0.10    -0.04  -0.03  -0.10
  39   1     0.03  -0.04  -0.07    -0.05   0.03   0.03     0.04   0.01   0.12
                     13                     14                     15
                        a                      a                      a 
 Frequencies --   283.5134               318.2475               357.9674
 Red. masses --     8.0314                 7.5847                 9.3761
 Frc consts  --     0.0000                 0.0000                 0.0000
 IR Inten    --     1.2738                11.5623                 0.2296
 Raman Activ --     0.0000                 0.0000                 0.0000
 Depolar     --     0.0000                 0.0000                 0.0000
 Atom AN      X      Y      Z        X      Y      Z        X      Y      Z
   1   7     0.00  -0.13   0.14    -0.03  -0.18   0.27    -0.00   0.01   0.00
   2   6    -0.20   0.10   0.05    -0.23   0.07   0.07    -0.00   0.01  -0.01
   3   6     0.14  -0.09  -0.09     0.34   0.04  -0.01    -0.01   0.01  -0.01
   4   6    -0.15  -0.13  -0.14     0.17   0.27  -0.21     0.05   0.03  -0.01
   5   6    -0.38   0.27   0.08     0.11  -0.04  -0.07     0.03   0.18  -0.04
   6   7     0.02  -0.00   0.19    -0.02  -0.02  -0.17     0.05   0.11  -0.08
   7   6     0.13   0.03   0.04    -0.11  -0.06  -0.05    -0.02  -0.01   0.01
   8   6     0.07  -0.04  -0.10    -0.06  -0.02   0.09     0.05   0.03   0.18
   9   6     0.04  -0.01  -0.07    -0.03   0.00   0.11     0.05  -0.33  -0.02
  10   6     0.02   0.05   0.04    -0.01  -0.08  -0.02     0.06  -0.07   0.19
  11   6     0.06  -0.09   0.02    -0.06   0.08  -0.01    -0.00   0.04   0.14
  12   6     0.11  -0.08   0.03    -0.11   0.06  -0.02    -0.09  -0.32  -0.16
  13   6    -0.05  -0.08  -0.01     0.02   0.00  -0.07     0.05   0.14  -0.01
  14   6    -0.05  -0.08  -0.09     0.00   0.02   0.01     0.14   0.11   0.17
  15   6    -0.02   0.05  -0.00    -0.00  -0.04  -0.01    -0.04   0.05  -0.32
  16   6     0.12   0.12   0.05    -0.04  -0.06  -0.01    -0.03  -0.02   0.04
  17   6     0.11   0.10  -0.07    -0.01  -0.07   0.03    -0.01   0.01   0.25
  18   6     0.06  -0.02  -0.13    -0.01  -0.02  -0.00    -0.18   0.11  -0.22
  19   1     0.02  -0.01   0.02    -0.02  -0.03   0.05    -0.00  -0.00   0.00
  20   1    -0.03  -0.09   0.09    -0.06  -0.11   0.18    -0.00  -0.00   0.00
  21   1     0.07  -0.04   0.04     0.12  -0.06   0.07     0.00   0.00   0.00
  22   1    -0.05   0.08   0.12    -0.06   0.06   0.14    -0.00   0.00  -0.00
  23   1    -0.15   0.08  -0.04    -0.16   0.07  -0.03    -0.00   0.00  -0.00
  24   1     0.13  -0.10  -0.02     0.22  -0.11   0.08    -0.02   0.02   0.00
  25   1     0.10   0.08  -0.04     0.18   0.17  -0.04    -0.01  -0.02  -0.01
  26   1    -0.11  -0.09  -0.07     0.19   0.14  -0.14    -0.03  -0.02  -0.00
  27   1    -0.01  -0.08  -0.04    -0.08   0.19  -0.10     0.05  -0.01   0.02
  28   1    -0.22   0.21  -0.08     0.06  -0.04  -0.00    -0.01   0.09  -0.04
  29   1    -0.15   0.10   0.21     0.02  -0.03  -0.06     0.00   0.06   0.04
  30   1     0.06   0.04   0.01    -0.05  -0.04  -0.01    -0.05   0.00   0.00
  31   1     0.05  -0.02  -0.04    -0.03  -0.02   0.05    -0.03   0.05   0.05
  32   1     0.01   0.00  -0.03    -0.00   0.00   0.04     0.00  -0.21  -0.09
  33   1    -0.01   0.03   0.03     0.02  -0.04  -0.02     0.03  -0.07   0.02
  34   1     0.01  -0.06  -0.00    -0.00   0.06   0.01     0.01   0.00   0.01
  35   1     0.03  -0.06  -0.01    -0.03   0.07   0.02    -0.04  -0.20  -0.12
  36   1    -0.03   0.04   0.02     0.01  -0.02  -0.00    -0.03   0.00  -0.20
  37   1     0.05   0.05   0.05    -0.01  -0.02  -0.01    -0.01  -0.03   0.01
  38   1     0.05   0.04  -0.02     0.00  -0.02   0.02     0.01  -0.00   0.14
  39   1     0.04  -0.02  -0.04    -0.00  -0.00   0.02    -0.11   0.05  -0.14
                     16                     17                     18
                        a                      a                      a 
 Frequencies --   385.8185               420.3535               437.5244
 Red. masses --     9.7487                 9.0520                 9.0811
 Frc consts  --     0.0000                 0.0000                 0.0000
 IR Inten    --     1.5236                 1.3029                 7.8461
 Raman Activ --     0.0000                 0.0000                 0.0000
 Depolar     --     0.0000                 0.0000                 0.0000
 Atom AN      X      Y      Z        X      Y      Z        X      Y      Z
   1   7    -0.00   0.02  -0.03     0.01   0.03  -0.02    -0.06  -0.12   0.07
   2   6     0.01  -0.00  -0.03     0.02   0.01   0.13    -0.07  -0.05  -0.37
   3   6    -0.07  -0.04  -0.04     0.08  -0.02   0.09    -0.02   0.25  -0.15
   4   6     0.00  -0.08   0.01    -0.25  -0.02  -0.02     0.25   0.02   0.15
   5   6    -0.08   0.15   0.08    -0.12  -0.22  -0.13     0.15   0.13   0.25
   6   7     0.14  -0.01   0.16    -0.07  -0.06  -0.02    -0.09   0.01  -0.17
   7   6    -0.17   0.02  -0.09     0.03   0.03   0.04     0.01   0.03   0.00
   8   6    -0.02   0.00   0.15    -0.00   0.05  -0.07    -0.04  -0.07  -0.04
   9   6    -0.11   0.12   0.27    -0.06   0.09  -0.10    -0.04  -0.03  -0.03
  10   6    -0.10  -0.21  -0.11    -0.06   0.17  -0.05    -0.02   0.12   0.04
  11   6    -0.21   0.24  -0.04    -0.01  -0.08  -0.13    -0.03  -0.10  -0.12
  12   6    -0.22   0.20  -0.06     0.09   0.17   0.08     0.02   0.14   0.07
  13   6     0.15  -0.01   0.06     0.13  -0.00   0.36     0.03  -0.15   0.17
  14   6     0.13   0.01  -0.00     0.14   0.00   0.34    -0.03  -0.12   0.20
  15   6     0.12  -0.15  -0.14    -0.06  -0.06  -0.22    -0.14   0.00  -0.04
  16   6     0.21  -0.16  -0.01     0.09  -0.05   0.06    -0.02   0.05   0.04
  17   6     0.18  -0.15  -0.06     0.08  -0.04   0.05     0.06  -0.01   0.01
  18   6     0.14  -0.01  -0.15    -0.03   0.03  -0.22     0.00  -0.13  -0.10
  19   1     0.00   0.00  -0.01     0.02   0.04  -0.03    -0.07  -0.10   0.08
  20   1     0.00   0.01  -0.03     0.01   0.02  -0.01    -0.05  -0.08   0.10
  21   1    -0.02   0.01  -0.01    -0.02  -0.03  -0.03     0.10   0.04   0.06
  22   1     0.00   0.00  -0.01     0.00   0.00   0.07    -0.02  -0.04  -0.22
  23   1     0.01   0.00  -0.01    -0.02   0.01   0.03     0.07  -0.07  -0.05
  24   1    -0.06   0.02  -0.02     0.11  -0.07   0.00    -0.01   0.07   0.02
  25   1    -0.04  -0.06  -0.01     0.06   0.09   0.07    -0.00   0.06  -0.10
  26   1    -0.05  -0.05   0.02    -0.05   0.00  -0.02     0.03   0.01   0.13
  27   1     0.04  -0.06   0.02    -0.09   0.00  -0.02     0.11  -0.07   0.02
  28   1    -0.09   0.12  -0.04     0.04  -0.16   0.03     0.01   0.11   0.03
  29   1    -0.05   0.06   0.14    -0.03  -0.09  -0.17     0.07   0.08   0.15
  30   1    -0.11   0.03  -0.02     0.04  -0.01   0.01     0.03  -0.02   0.00
  31   1    -0.02  -0.04   0.08    -0.04   0.07  -0.04    -0.01   0.00  -0.03
  32   1    -0.03   0.06   0.09    -0.01   0.08   0.01    -0.00   0.04   0.03
  33   1     0.02  -0.11  -0.08    -0.02   0.11   0.03     0.01   0.10   0.05
  34   1    -0.03   0.17   0.03    -0.02  -0.07  -0.04    -0.02  -0.06  -0.06
  35   1    -0.05   0.16   0.06     0.02   0.06   0.03     0.01   0.05   0.03
  36   1     0.04  -0.05  -0.09    -0.07  -0.02  -0.22    -0.09   0.02  -0.07
  37   1     0.07  -0.03   0.01     0.02  -0.01  -0.01    -0.01   0.04  -0.01
  38   1     0.03  -0.05  -0.02    -0.00  -0.02  -0.02     0.03   0.01  -0.03
  39   1     0.01   0.01  -0.08    -0.06   0.00  -0.22    -0.01  -0.05  -0.11
                     19                     20                     21
                        a                      a                      a 
 Frequencies --   451.0989               462.3785               502.8743
 Red. masses --     7.0763                10.2585                10.3046
 Frc consts  --     0.0000                 0.0000                 0.0000
 IR Inten    --     6.1714                 1.6627                 0.8805
 Raman Activ --     0.0000                 0.0000                 0.0000
 Depolar     --     0.0000                 0.0000                 0.0000
 Atom AN      X      Y      Z        X      Y      Z        X      Y      Z
   1   7     0.03   0.16  -0.08     0.01   0.02  -0.01    -0.00   0.01  -0.00
   2   6     0.06   0.06   0.25     0.01   0.00   0.05     0.00  -0.00   0.02
   3   6    -0.09  -0.36   0.00     0.01  -0.04   0.02     0.01  -0.00   0.01
   4   6     0.31   0.05  -0.19     0.00   0.01  -0.03     0.01   0.01  -0.01
   5   6     0.07   0.13   0.04     0.04   0.01  -0.08     0.05   0.05  -0.10
   6   7     0.01  -0.01  -0.12    -0.08   0.23   0.12    -0.08   0.14  -0.10
   7   6     0.01  -0.02  -0.02    -0.06   0.26   0.17    -0.10   0.08  -0.05
   8   6    -0.05  -0.05  -0.03     0.06  -0.14   0.08     0.04  -0.13  -0.09
   9   6    -0.02  -0.01  -0.02    -0.07  -0.35   0.02     0.14  -0.10   0.03
  10   6    -0.01   0.07   0.01     0.00   0.16   0.24     0.10  -0.11   0.19
  11   6    -0.01  -0.06  -0.06    -0.19  -0.08  -0.24    -0.03  -0.05   0.03
  12   6     0.03   0.07   0.05    -0.13   0.25   0.03    -0.21  -0.01   0.06
  13   6     0.03  -0.13   0.10    -0.17  -0.03  -0.19     0.08   0.01   0.34
  14   6    -0.05  -0.08   0.13     0.03  -0.15  -0.02    -0.04  -0.09  -0.26
  15   6    -0.13   0.04   0.01     0.08  -0.11   0.05    -0.01   0.03  -0.22
  16   6    -0.08   0.07   0.05     0.15  -0.03  -0.20     0.19   0.03   0.34
  17   6     0.01   0.00   0.02     0.16   0.02   0.04    -0.19   0.11  -0.33
  18   6    -0.02  -0.14  -0.03     0.10   0.02  -0.03     0.02   0.04   0.20
  19   1     0.04   0.10  -0.08     0.01   0.01  -0.01    -0.00   0.01  -0.01
  20   1     0.03   0.09  -0.06     0.01   0.01  -0.01    -0.00   0.00   0.01
  21   1    -0.08  -0.04  -0.06    -0.02  -0.01  -0.01     0.00  -0.01  -0.01
  22   1     0.02   0.05   0.19     0.00   0.01   0.03    -0.00  -0.00   0.01
  23   1    -0.08   0.09   0.00    -0.01   0.01   0.01    -0.00   0.00   0.00
  24   1    -0.21   0.06  -0.02    -0.01  -0.00   0.00     0.00  -0.00   0.00
  25   1    -0.13  -0.31  -0.02    -0.00  -0.02   0.01     0.00  -0.00   0.00
  26   1     0.22   0.06  -0.18    -0.00  -0.00  -0.02    -0.02  -0.01  -0.00
  27   1    -0.03   0.17  -0.04     0.01   0.01   0.00     0.03  -0.01   0.01
  28   1    -0.07   0.14  -0.06     0.03  -0.09   0.03     0.04  -0.04   0.01
  29   1     0.02   0.08   0.15     0.05   0.00  -0.12     0.04   0.02  -0.09
  30   1     0.02  -0.03  -0.00    -0.03   0.08   0.05    -0.01   0.04  -0.02
  31   1    -0.01  -0.00  -0.02     0.06  -0.02  -0.02     0.05  -0.09  -0.01
  32   1     0.00   0.04   0.03    -0.02  -0.13  -0.02     0.03  -0.02  -0.01
  33   1     0.00   0.06   0.03     0.07   0.10   0.10     0.03  -0.02   0.06
  34   1    -0.01  -0.02  -0.02    -0.06  -0.12  -0.18     0.02   0.01  -0.05
  35   1     0.01   0.05   0.03    -0.04  -0.01  -0.05    -0.06  -0.01   0.01
  36   1    -0.07   0.02  -0.03     0.02  -0.01   0.08    -0.04   0.02  -0.11
  37   1    -0.03   0.04  -0.00     0.04   0.00  -0.07     0.09  -0.02   0.19
  38   1     0.03   0.02  -0.02     0.05  -0.01   0.08    -0.11   0.03  -0.22
  39   1    -0.02  -0.04  -0.06     0.08  -0.02   0.03     0.01  -0.01   0.02
                     22                     23                     24
                        a                      a                      a 
 Frequencies --   524.7472               545.5224               558.9454
 Red. masses --     9.9147                10.5117                10.8589
 Frc consts  --     0.0000                 0.0000                 0.0000
 IR Inten    --     1.5274                 2.0915                 0.5324
 Raman Activ --     0.0000                 0.0000                 0.0000
 Depolar     --     0.0000                 0.0000                 0.0000
 Atom AN      X      Y      Z        X      Y      Z        X      Y      Z
   1   7     0.00  -0.01   0.01     0.00  -0.00  -0.00    -0.00   0.01  -0.01
   2   6     0.01  -0.01   0.05     0.00  -0.00   0.01     0.00   0.00   0.00
   3   6     0.03   0.03   0.05    -0.00   0.02   0.01    -0.00  -0.01  -0.00
   4   6    -0.06   0.02  -0.01    -0.03   0.00   0.00     0.05   0.02  -0.01
   5   6     0.11   0.16  -0.34     0.00   0.05  -0.06     0.03   0.06  -0.02
   6   7     0.19   0.17   0.04     0.11  -0.08  -0.08    -0.09   0.10  -0.04
   7   6     0.17   0.19  -0.04     0.07  -0.15   0.28    -0.13   0.11   0.18
   8   6     0.14   0.06   0.08    -0.18  -0.02   0.26    -0.18   0.26   0.05
   9   6    -0.07   0.07   0.11    -0.32  -0.24   0.12     0.12   0.12  -0.17
  10   6    -0.09  -0.10  -0.04    -0.08   0.25  -0.15     0.08   0.05  -0.04
  11   6    -0.12   0.16   0.04     0.06   0.04  -0.15     0.19  -0.06   0.14
  12   6     0.09  -0.06  -0.16     0.32   0.12  -0.07    -0.14  -0.14   0.09
  13   6     0.03  -0.26   0.05     0.15   0.05  -0.06    -0.03   0.02  -0.01
  14   6    -0.15  -0.14   0.09    -0.05   0.15  -0.15    -0.25   0.13   0.05
  15   6    -0.24   0.05   0.09    -0.03   0.04  -0.12    -0.27  -0.27   0.05
  16   6    -0.18   0.10   0.08    -0.02  -0.04   0.21     0.07  -0.15   0.03
  17   6     0.04  -0.06  -0.01    -0.07  -0.11  -0.18     0.26  -0.27  -0.17
  18   6     0.01  -0.32  -0.02     0.07  -0.01   0.12     0.29   0.08  -0.05
  19   1     0.00   0.00  -0.00    -0.00   0.00  -0.00    -0.00   0.00  -0.00
  20   1     0.00   0.00  -0.01    -0.00  -0.00   0.00    -0.00   0.00   0.01
  21   1    -0.01  -0.01  -0.00     0.00  -0.00  -0.00     0.00  -0.00  -0.00
  22   1     0.00  -0.01   0.01     0.00  -0.00  -0.00    -0.00   0.00   0.01
  23   1     0.00  -0.01   0.02     0.00  -0.00   0.01    -0.00   0.00  -0.00
  24   1     0.04  -0.02   0.01     0.01  -0.00   0.00    -0.02   0.01   0.00
  25   1     0.03   0.05   0.03     0.00   0.02   0.01    -0.01  -0.02  -0.01
  26   1    -0.15  -0.06   0.03    -0.04  -0.02   0.01     0.01   0.00  -0.01
  27   1     0.11  -0.07   0.07     0.02  -0.02   0.02     0.02   0.01   0.00
  28   1     0.09  -0.06  -0.03    -0.01   0.07  -0.05     0.01  -0.01   0.01
  29   1     0.05   0.02  -0.21    -0.04   0.01   0.04     0.03   0.02  -0.03
  30   1    -0.01   0.07  -0.01    -0.03  -0.11   0.09    -0.01   0.01   0.05
  31   1     0.10  -0.02   0.01    -0.03   0.03   0.03    -0.06   0.08   0.01
  32   1    -0.04  -0.00  -0.02    -0.04  -0.18   0.05     0.05  -0.06  -0.08
  33   1    -0.00  -0.09  -0.06     0.05   0.04  -0.07    -0.06  -0.06  -0.05
  34   1    -0.04   0.04   0.04    -0.04  -0.09  -0.02     0.06  -0.06  -0.02
  35   1     0.06  -0.07  -0.02     0.06  -0.01  -0.09    -0.08  -0.10  -0.08
  36   1    -0.10   0.03   0.02     0.04  -0.02  -0.03    -0.05  -0.09   0.01
  37   1    -0.05   0.07   0.02     0.02  -0.01   0.12     0.04   0.08   0.03
  38   1     0.08   0.02  -0.04    -0.02  -0.02  -0.08     0.05  -0.09  -0.05
  39   1     0.03  -0.12  -0.03    -0.01   0.03   0.08     0.07   0.03  -0.00
                     25                     26                     27
                        a                      a                      a 
 Frequencies --   565.4967               637.8291               672.9311
 Red. masses --    10.1914                10.6957                10.4719
 Frc consts  --     0.0000                 0.0000                 0.0000
 IR Inten    --     5.1617                 1.4485                 5.1469
 Raman Activ --     0.0000                 0.0000                 0.0000
 Depolar     --     0.0000                 0.0000                 0.0000
 Atom AN      X      Y      Z        X      Y      Z        X      Y      Z
   1   7    -0.00   0.02  -0.01     0.01   0.01  -0.01    -0.00   0.02  -0.01
   2   6    -0.00   0.01  -0.03    -0.00   0.01  -0.02    -0.00   0.01  -0.01
   3   6    -0.01  -0.04  -0.04    -0.03  -0.02  -0.01    -0.01  -0.01  -0.00
   4   6     0.06  -0.02   0.01    -0.08  -0.06   0.03    -0.04  -0.03   0.01
   5   6    -0.06  -0.17   0.25    -0.07  -0.19   0.17    -0.03  -0.08   0.07
   6   7    -0.35   0.02  -0.13     0.09  -0.19  -0.01    -0.00  -0.07  -0.13
   7   6     0.21   0.12   0.01     0.08   0.11  -0.23     0.00   0.08   0.03
   8   6     0.27   0.08   0.12     0.24   0.25   0.09     0.03   0.07   0.03
   9   6    -0.12   0.07   0.13     0.15  -0.04  -0.09     0.04  -0.00   0.04
  10   6    -0.13  -0.07  -0.06     0.03  -0.02   0.27     0.03   0.02   0.11
  11   6    -0.12   0.19   0.04    -0.21  -0.04  -0.11    -0.05   0.02  -0.03
  12   6     0.26  -0.11  -0.23    -0.08   0.18   0.04    -0.04   0.10   0.04
  13   6    -0.20   0.01   0.11     0.07  -0.01  -0.28     0.30   0.00   0.43
  14   6    -0.04  -0.11   0.01     0.03   0.17   0.13    -0.16   0.10  -0.46
  15   6    -0.04  -0.14  -0.04    -0.12   0.12  -0.12     0.09   0.07   0.22
  16   6     0.21  -0.02  -0.01    -0.18   0.02   0.22    -0.20   0.01  -0.16
  17   6     0.02   0.10  -0.07    -0.01  -0.17  -0.16     0.10  -0.10   0.19
  18   6     0.04   0.14   0.04     0.11  -0.12   0.09    -0.06  -0.05  -0.25
  19   1    -0.01   0.00  -0.00     0.01  -0.00   0.00     0.01   0.01  -0.01
  20   1    -0.01   0.00   0.02     0.00   0.00   0.00    -0.01  -0.00   0.01
  21   1     0.02  -0.00  -0.00     0.00   0.01   0.00     0.01  -0.01  -0.01
  22   1    -0.00   0.01  -0.00     0.00   0.00  -0.02    -0.00  -0.00  -0.01
  23   1    -0.01   0.01  -0.02     0.01   0.00  -0.00     0.01  -0.00   0.00
  24   1    -0.03   0.01  -0.01     0.02  -0.03  -0.02     0.01  -0.02  -0.01
  25   1    -0.02  -0.05  -0.03     0.01   0.03   0.00     0.00   0.01  -0.00
  26   1     0.15   0.06  -0.04     0.07   0.03  -0.01     0.04   0.02  -0.02
  27   1    -0.11   0.08  -0.06    -0.11   0.04  -0.04    -0.06   0.02  -0.02
  28   1    -0.02  -0.07   0.08    -0.03   0.02   0.01    -0.01   0.01   0.01
  29   1     0.04  -0.02   0.04    -0.05  -0.05   0.11    -0.02  -0.02   0.05
  30   1     0.02   0.03   0.00     0.02   0.01  -0.06     0.01  -0.01   0.01
  31   1     0.12  -0.01   0.02     0.03   0.09   0.04     0.07  -0.05   0.02
  32   1    -0.07  -0.06  -0.07    -0.01  -0.06  -0.14    -0.01  -0.17  -0.12
  33   1    -0.00  -0.13  -0.10     0.01  -0.06   0.03     0.01  -0.13  -0.07
  34   1    -0.07  -0.02   0.03    -0.04  -0.03  -0.10    -0.02  -0.09  -0.11
  35   1     0.10  -0.17  -0.09     0.01  -0.02   0.03    -0.03  -0.10  -0.08
  36   1    -0.06  -0.01  -0.01     0.02   0.00  -0.02     0.06   0.00   0.08
  37   1     0.06   0.01   0.01    -0.03   0.03   0.11    -0.05   0.01  -0.03
  38   1    -0.04   0.00  -0.02     0.06  -0.02  -0.04     0.05  -0.01   0.03
  39   1     0.04   0.01  -0.02     0.00   0.00   0.09    -0.04   0.01  -0.04
                     28                     29                     30
                        a                      a                      a 
 Frequencies --   700.9921               757.6089               764.6176
 Red. masses --     9.4739                 7.0941                 3.9270
 Frc consts  --     0.0000                 0.0000                 0.0000
 IR Inten    --    11.7653                49.2406                22.8305
 Raman Activ --     0.0000                 0.0000                 0.0000
 Depolar     --     0.0000                 0.0000                 0.0000
 Atom AN      X      Y      Z        X      Y      Z        X      Y      Z
   1   7     0.00   0.01  -0.02     0.03   0.04  -0.04    -0.02  -0.00   0.01
   2   6    -0.00   0.01  -0.02    -0.01   0.01  -0.07     0.00   0.00   0.02
   3   6    -0.01  -0.02  -0.00    -0.04  -0.11  -0.02     0.01   0.02   0.00
   4   6    -0.03  -0.03   0.02    -0.11  -0.07   0.07     0.04   0.02  -0.02
   5   6    -0.03  -0.06   0.09    -0.04  -0.04   0.17     0.00   0.02  -0.05
   6   7    -0.08   0.07  -0.05    -0.14   0.21  -0.09     0.01  -0.05  -0.03
   7   6    -0.13   0.12   0.32     0.02   0.20   0.20    -0.02  -0.05  -0.02
   8   6    -0.04   0.04   0.01     0.01  -0.01   0.00     0.04   0.08   0.08
   9   6     0.00   0.24  -0.04    -0.05  -0.21  -0.05     0.01   0.05  -0.06
  10   6    -0.02   0.07  -0.17     0.00  -0.11  -0.08    -0.02   0.06  -0.03
  11   6     0.11   0.08   0.10     0.04   0.02   0.03     0.00  -0.03  -0.01
  12   6    -0.20  -0.01   0.07    -0.02  -0.23  -0.17    -0.03   0.01   0.03
  13   6     0.03  -0.17  -0.15     0.12   0.01   0.03     0.03  -0.05   0.19
  14   6     0.23  -0.09   0.06     0.04   0.07  -0.07     0.03  -0.05   0.11
  15   6     0.28   0.20  -0.15     0.07   0.16  -0.04    -0.05  -0.05  -0.17
  16   6     0.05   0.05   0.03    -0.18   0.02   0.03     0.07  -0.00  -0.16
  17   6    -0.07   0.04  -0.01     0.08  -0.19  -0.06    -0.10   0.11  -0.14
  18   6    -0.07  -0.39   0.08     0.06  -0.11  -0.09    -0.15  -0.05  -0.20
  19   1     0.01   0.00   0.00    -0.01  -0.00   0.01     0.01   0.01  -0.00
  20   1    -0.00   0.00   0.01     0.00   0.01   0.02    -0.01  -0.02  -0.00
  21   1     0.01  -0.00  -0.00     0.03   0.02  -0.00    -0.00  -0.01  -0.00
  22   1    -0.00  -0.00  -0.01     0.00   0.01  -0.01    -0.00  -0.01  -0.00
  23   1     0.00   0.00  -0.00    -0.01   0.02  -0.03     0.01  -0.01   0.01
  24   1     0.01  -0.01  -0.01     0.04  -0.07  -0.02    -0.03   0.03   0.00
  25   1     0.00   0.01  -0.00     0.02   0.02  -0.01    -0.01  -0.02  -0.00
  26   1     0.05   0.02  -0.02     0.09   0.04  -0.04    -0.03  -0.01   0.01
  27   1    -0.06   0.03  -0.02    -0.14   0.07  -0.02     0.05  -0.02   0.01
  28   1    -0.01  -0.01   0.02     0.02  -0.06   0.08    -0.00  -0.00  -0.01
  29   1     0.01  -0.01   0.03     0.05   0.01  -0.02    -0.02  -0.01  -0.01
  30   1    -0.01   0.01   0.09    -0.03   0.10   0.05    -0.01  -0.04  -0.00
  31   1     0.00  -0.00   0.00     0.05   0.06  -0.08    -0.03   0.05   0.03
  32   1     0.00  -0.08  -0.10     0.02   0.27   0.23    -0.00  -0.01  -0.04
  33   1    -0.07  -0.12  -0.15     0.04   0.27   0.19    -0.03  -0.01  -0.02
  34   1     0.01  -0.13  -0.11     0.04   0.18   0.14    -0.00  -0.00   0.01
  35   1    -0.13  -0.16  -0.19     0.02   0.17   0.12    -0.01   0.02   0.01
  36   1     0.08   0.05  -0.07     0.09   0.01   0.04     0.09  -0.01   0.30
  37   1    -0.00  -0.08  -0.02    -0.01   0.01   0.10     0.19  -0.03   0.41
  38   1     0.05   0.05  -0.04     0.11  -0.02   0.04     0.12   0.02   0.39
  39   1     0.01  -0.14  -0.03     0.03  -0.01   0.08     0.20  -0.03   0.46
                     31                     32                     33
                        a                      a                      a 
 Frequencies --   795.3940               809.1915               817.4565
 Red. masses --     4.2918                 8.0852                 7.2313
 Frc consts  --     0.0000                 0.0000                 0.0000
 IR Inten    --     6.8510                12.5632                 5.5383
 Raman Activ --     0.0000                 0.0000                 0.0000
 Depolar     --     0.0000                 0.0000                 0.0000
 Atom AN      X      Y      Z        X      Y      Z        X      Y      Z
   1   7     0.07   0.12   0.04     0.05   0.07  -0.02    -0.17  -0.13   0.08
   2   6    -0.15   0.10   0.06    -0.04   0.01  -0.07     0.04   0.07   0.28
   3   6    -0.25  -0.09   0.06    -0.05  -0.14  -0.01     0.11   0.35   0.02
   4   6    -0.02  -0.18   0.03    -0.07  -0.01   0.06     0.21  -0.02  -0.21
   5   6     0.16  -0.06  -0.16     0.04   0.08   0.07    -0.13  -0.17  -0.11
   6   7     0.13   0.00  -0.02    -0.02   0.10   0.06    -0.09  -0.06  -0.01
   7   6     0.00   0.04   0.06     0.04   0.02  -0.16     0.02   0.06   0.14
   8   6     0.02   0.01   0.02    -0.25  -0.32  -0.27     0.04  -0.07  -0.09
   9   6    -0.00  -0.01  -0.02    -0.01   0.04   0.20     0.03  -0.03  -0.02
  10   6    -0.00   0.01  -0.02     0.02  -0.19  -0.01    -0.00  -0.15  -0.03
  11   6     0.00   0.01   0.00     0.01   0.13   0.11    -0.05   0.13   0.04
  12   6    -0.04  -0.02  -0.01     0.15   0.17   0.10    -0.01   0.04  -0.03
  13   6    -0.02  -0.01   0.01     0.03   0.09  -0.03     0.01   0.04  -0.01
  14   6    -0.05  -0.05   0.01     0.08   0.01   0.15     0.04   0.02   0.01
  15   6    -0.07  -0.10   0.03    -0.04   0.08  -0.02     0.02   0.07  -0.00
  16   6     0.09  -0.00  -0.03    -0.17   0.00   0.04    -0.11   0.01   0.04
  17   6    -0.04   0.10   0.02     0.05  -0.15  -0.09     0.04  -0.10  -0.03
  18   6    -0.04   0.03   0.02     0.07   0.14  -0.07     0.05   0.06  -0.02
  19   1     0.25   0.15  -0.06     0.03   0.02  -0.00     0.14   0.07  -0.04
  20   1    -0.04  -0.14  -0.08    -0.00  -0.01  -0.00    -0.08  -0.15  -0.04
  21   1     0.00  -0.08  -0.05     0.04   0.02  -0.00    -0.08  -0.16  -0.04
  22   1    -0.05  -0.09  -0.32    -0.01   0.00  -0.04    -0.03  -0.12  -0.09
  23   1     0.28  -0.06   0.13     0.01   0.02  -0.03     0.18  -0.09   0.18
  24   1     0.19  -0.24   0.03     0.05  -0.10   0.01    -0.12   0.23  -0.03
  25   1     0.09   0.27  -0.04     0.03   0.04  -0.01    -0.06  -0.08  -0.02
  26   1     0.20   0.05  -0.06     0.02   0.00  -0.05    -0.02  -0.03   0.03
  27   1    -0.13   0.15   0.04    -0.06   0.06   0.02     0.12  -0.12  -0.09
  28   1    -0.08   0.15  -0.16     0.06  -0.03   0.06    -0.15  -0.00  -0.09
  29   1     0.06   0.06   0.19     0.04   0.02  -0.06    -0.06  -0.03   0.08
  30   1    -0.01  -0.01   0.02     0.10   0.06  -0.05     0.03   0.02   0.03
  31   1     0.03   0.00  -0.01    -0.10  -0.09  -0.04     0.04   0.00  -0.06
  32   1     0.00   0.02   0.01     0.02  -0.01   0.08     0.01   0.16   0.09
  33   1    -0.00   0.02   0.01     0.04  -0.04   0.01     0.02   0.10   0.09
  34   1     0.00   0.01   0.00    -0.03  -0.17  -0.13    -0.02  -0.03  -0.06
  35   1    -0.02   0.02   0.00     0.02  -0.35  -0.22    -0.02  -0.13  -0.12
  36   1    -0.06  -0.01   0.01     0.03   0.00   0.03     0.02   0.01  -0.01
  37   1     0.02   0.00  -0.02    -0.01   0.04   0.10    -0.03   0.02   0.02
  38   1    -0.04   0.02   0.01     0.06  -0.04   0.10     0.03  -0.02   0.01
  39   1     0.00  -0.00   0.00     0.02   0.07   0.12    -0.01   0.04   0.02
                     34                     35                     36
                        a                      a                      a 
 Frequencies --   843.8457               852.3735               868.5529
 Red. masses --     5.7656                 3.2541                 5.7772
 Frc consts  --     0.0000                 0.0000                 0.0000
 IR Inten    --    31.9019                 0.7302                 7.7621
 Raman Activ --     0.0000                 0.0000                 0.0000
 Depolar     --     0.0000                 0.0000                 0.0000
 Atom AN      X      Y      Z        X      Y      Z        X      Y      Z
   1   7     0.07  -0.02  -0.05     0.01  -0.02   0.01     0.05  -0.11   0.01
   2   6     0.05  -0.09  -0.09     0.00  -0.01   0.00     0.06  -0.04   0.06
   3   6    -0.05   0.01   0.04    -0.02   0.02   0.00    -0.11   0.16   0.02
   4   6    -0.05   0.03   0.05    -0.00  -0.01  -0.01     0.04  -0.08  -0.04
   5   6     0.10  -0.10  -0.11     0.01  -0.02  -0.02     0.04  -0.15  -0.15
   6   7     0.16  -0.18  -0.08     0.01  -0.00   0.01    -0.05   0.08  -0.01
   7   6     0.03  -0.01   0.26     0.00  -0.00   0.02     0.00   0.07   0.11
   8   6     0.13   0.03  -0.02     0.01  -0.03  -0.01     0.04  -0.23  -0.17
   9   6     0.05  -0.06  -0.12     0.01   0.02  -0.00    -0.02   0.15   0.14
  10   6    -0.01  -0.18  -0.07    -0.00  -0.01  -0.01    -0.00   0.10   0.02
  11   6    -0.09   0.21   0.03    -0.01   0.01   0.00     0.03  -0.04  -0.03
  12   6    -0.12   0.10   0.00    -0.00   0.00  -0.00    -0.05  -0.14  -0.09
  13   6     0.04   0.01   0.00     0.00   0.01   0.01    -0.02   0.07   0.01
  14   6    -0.06  -0.02   0.00     0.01  -0.01   0.01     0.08  -0.08   0.10
  15   6    -0.11  -0.12   0.06    -0.06   0.01  -0.15    -0.01   0.07   0.02
  16   6     0.06   0.00  -0.01    -0.11   0.01  -0.24    -0.15   0.02   0.07
  17   6    -0.06   0.12   0.03    -0.00  -0.01   0.01     0.04  -0.13  -0.08
  18   6    -0.05   0.08  -0.01     0.13   0.02   0.30     0.07   0.15  -0.06
  19   1    -0.22  -0.11   0.04    -0.03  -0.01  -0.00    -0.20  -0.08   0.01
  20   1     0.10   0.21   0.05     0.03   0.05  -0.00     0.13   0.24   0.00
  21   1    -0.01   0.10   0.04    -0.02  -0.00   0.00    -0.13   0.01   0.01
  22   1     0.06   0.13   0.14     0.01   0.02   0.01     0.08   0.13   0.05
  23   1    -0.20   0.01  -0.08    -0.02  -0.01  -0.00    -0.11  -0.05   0.03
  24   1     0.03  -0.04   0.02     0.02  -0.02   0.00     0.05  -0.02   0.00
  25   1     0.01   0.06   0.06     0.01   0.03   0.00     0.01   0.13   0.02
  26   1     0.00   0.03   0.06     0.01   0.01   0.01     0.09   0.06   0.08
  27   1    -0.00   0.02   0.04    -0.00   0.00  -0.00    -0.02   0.01  -0.02
  28   1    -0.02   0.14  -0.12    -0.02   0.02  -0.03    -0.14   0.09  -0.15
  29   1    -0.05  -0.02   0.16     0.01   0.01   0.03     0.03   0.03   0.17
  30   1     0.03  -0.08   0.08     0.00   0.00   0.00     0.03   0.08   0.02
  31   1     0.09   0.04  -0.07     0.00  -0.01  -0.01     0.08  -0.13  -0.05
  32   1     0.01   0.27   0.12     0.00  -0.00  -0.00    -0.03  -0.25  -0.17
  33   1     0.02   0.16   0.13    -0.00   0.01   0.01    -0.00  -0.12  -0.10
  34   1    -0.03  -0.06  -0.15    -0.00  -0.01  -0.01     0.01  -0.00   0.01
  35   1    -0.09  -0.19  -0.21    -0.00  -0.00  -0.01     0.01   0.25   0.16
  36   1    -0.07  -0.01  -0.01     0.14  -0.01   0.38    -0.02   0.02  -0.05
  37   1     0.01   0.01  -0.02     0.15  -0.01   0.40    -0.04   0.04   0.02
  38   1    -0.05   0.02   0.01     0.03  -0.00   0.08     0.05  -0.03   0.08
  39   1    -0.00   0.03   0.06    -0.24   0.00  -0.61     0.02   0.07   0.10
                     37                     38                     39
                        a                      a                      a 
 Frequencies --   875.8405               900.5931               904.8910
 Red. masses --     8.8308                 5.7217                 3.9996
 Frc consts  --     0.0000                 0.0000                 0.0000
 IR Inten    --     6.4462                13.1672                 2.2258
 Raman Activ --     0.0000                 0.0000                 0.0000
 Depolar     --     0.0000                 0.0000                 0.0000
 Atom AN      X      Y      Z        X      Y      Z        X      Y      Z
   1   7    -0.00  -0.13   0.03     0.10  -0.10   0.15     0.02  -0.03   0.05
   2   6     0.07  -0.01   0.09    -0.02  -0.04   0.10    -0.00  -0.01   0.03
   3   6    -0.07   0.18  -0.02    -0.22  -0.02  -0.16    -0.05  -0.01  -0.06
   4   6     0.02  -0.09  -0.06     0.12   0.08  -0.12     0.02   0.03  -0.03
   5   6     0.00  -0.15  -0.04     0.02   0.14   0.13     0.00   0.05   0.06
   6   7     0.02   0.05  -0.00    -0.16   0.05   0.06    -0.03   0.00   0.01
   7   6    -0.00   0.34  -0.32    -0.06  -0.25   0.02    -0.02  -0.06  -0.00
   8   6    -0.36   0.18   0.06     0.11   0.02   0.08     0.03   0.05   0.04
   9   6    -0.06  -0.14   0.10     0.06   0.02  -0.14     0.01  -0.04  -0.05
  10   6     0.03  -0.06   0.05    -0.02  -0.00   0.01     0.00   0.02   0.03
  11   6     0.11  -0.07   0.08    -0.08  -0.03  -0.05    -0.01  -0.02  -0.02
  12   6     0.18   0.01   0.06     0.06   0.09   0.03     0.02   0.03   0.02
  13   6     0.00  -0.07   0.01    -0.06  -0.00   0.05    -0.02  -0.01  -0.03
  14   6    -0.05   0.08  -0.04     0.02   0.01  -0.04    -0.02   0.02  -0.06
  15   6     0.06  -0.04  -0.02     0.03   0.08  -0.11     0.15  -0.00   0.34
  16   6     0.18  -0.03  -0.08    -0.03   0.00   0.07    -0.06   0.01  -0.15
  17   6    -0.03   0.09   0.04     0.07  -0.08   0.05    -0.08   0.00  -0.22
  18   6    -0.08  -0.21   0.02     0.01  -0.02  -0.05     0.04  -0.02   0.10
  19   1    -0.15  -0.06  -0.00    -0.03   0.08  -0.09     0.00   0.03  -0.03
  20   1     0.10   0.18  -0.01     0.19   0.27  -0.11     0.05   0.07  -0.04
  21   1    -0.14  -0.03   0.00    -0.31  -0.17  -0.05    -0.09  -0.06  -0.02
  22   1     0.06   0.09   0.02     0.07   0.12  -0.09     0.02   0.03  -0.03
  23   1    -0.06  -0.05   0.05     0.02  -0.02   0.04     0.01   0.00   0.01
  24   1     0.02   0.02  -0.03     0.11  -0.16   0.04     0.03  -0.04   0.01
  25   1     0.00   0.09  -0.00     0.06   0.21  -0.12     0.02   0.05  -0.04
  26   1     0.08   0.04   0.04    -0.07  -0.03   0.03    -0.03  -0.01   0.00
  27   1    -0.05  -0.00  -0.06     0.12  -0.06  -0.01     0.03  -0.02  -0.01
  28   1    -0.10   0.03  -0.07     0.02  -0.09   0.10     0.02  -0.03   0.04
  29   1     0.04   0.02   0.11     0.04   0.02  -0.10     0.01   0.00  -0.04
  30   1     0.00   0.11  -0.09    -0.06  -0.07   0.01    -0.02  -0.02   0.00
  31   1    -0.17   0.09   0.04    -0.02   0.01   0.05     0.01   0.01   0.01
  32   1     0.04   0.01   0.14    -0.00   0.11  -0.01    -0.00   0.08   0.03
  33   1     0.02   0.02   0.04    -0.03  -0.01   0.00    -0.01  -0.05  -0.03
  34   1     0.02  -0.02   0.05    -0.01   0.09   0.08     0.00   0.04   0.03
  35   1     0.09  -0.13   0.01    -0.01  -0.12  -0.10    -0.01  -0.04  -0.04
  36   1     0.03  -0.01  -0.01     0.09   0.01   0.15    -0.22   0.02  -0.60
  37   1     0.05  -0.05  -0.02    -0.05  -0.00  -0.09     0.11  -0.01   0.28
  38   1    -0.02   0.03  -0.04    -0.02  -0.01  -0.13     0.15  -0.00   0.37
  39   1     0.03  -0.09  -0.00     0.04  -0.01   0.04    -0.04  -0.01  -0.12
                     40                     41                     42
                        a                      a                      a 
 Frequencies --   911.5336               923.1037               923.5488
 Red. masses --    10.4911                 3.4941                 3.1708
 Frc consts  --     0.0000                 0.0000                 0.0000
 IR Inten    --     2.8385                 1.8838                 0.7315
 Raman Activ --     0.0000                 0.0000                 0.0000
 Depolar     --     0.0000                 0.0000                 0.0000
 Atom AN      X      Y      Z        X      Y      Z        X      Y      Z
   1   7     0.03   0.06  -0.05    -0.03  -0.04   0.04     0.00   0.01  -0.02
   2   6    -0.04  -0.02  -0.03     0.03   0.01   0.02    -0.01  -0.00  -0.01
   3   6     0.00  -0.01   0.08    -0.00  -0.01  -0.07     0.01   0.01   0.03
   4   6     0.05  -0.01   0.02    -0.04   0.03  -0.01     0.01  -0.02   0.00
   5   6    -0.01  -0.00  -0.09     0.02   0.03   0.08    -0.01  -0.01  -0.03
   6   7    -0.08   0.04   0.02     0.04  -0.03  -0.04    -0.00   0.01   0.01
   7   6    -0.04  -0.09   0.30     0.02   0.03   0.04    -0.01   0.00  -0.03
   8   6    -0.33  -0.00  -0.08    -0.05   0.03   0.01     0.01  -0.01  -0.01
   9   6     0.30   0.16  -0.18     0.04   0.17   0.10    -0.03  -0.15  -0.09
  10   6     0.03  -0.18   0.33    -0.00  -0.21  -0.12     0.01   0.16   0.11
  11   6    -0.33   0.08  -0.11    -0.04  -0.02  -0.03     0.02   0.02   0.03
  12   6     0.34   0.02  -0.22     0.00   0.01  -0.00    -0.00  -0.01  -0.00
  13   6     0.01  -0.02  -0.01     0.06  -0.01   0.03     0.01  -0.00   0.07
  14   6    -0.02   0.07   0.01    -0.04   0.04  -0.04    -0.01  -0.02  -0.05
  15   6     0.06   0.01  -0.02    -0.03  -0.04  -0.01    -0.02   0.02  -0.07
  16   6     0.08  -0.02  -0.04     0.11  -0.01   0.14     0.06  -0.00   0.21
  17   6    -0.00   0.01  -0.00    -0.10   0.05  -0.18    -0.08  -0.01  -0.22
  18   6    -0.03  -0.10   0.01    -0.01  -0.04   0.05     0.02   0.02   0.04
  19   1    -0.00  -0.03   0.03     0.02   0.03  -0.03    -0.01  -0.01   0.01
  20   1    -0.02  -0.03   0.03     0.01   0.01  -0.03    -0.01  -0.01   0.01
  21   1     0.08   0.07   0.02    -0.06  -0.06  -0.02     0.03   0.02   0.01
  22   1    -0.02  -0.01  -0.00     0.01   0.00   0.00    -0.00  -0.00   0.00
  23   1    -0.02  -0.01  -0.00     0.02   0.02  -0.01    -0.01  -0.01   0.00
  24   1    -0.00  -0.00   0.04     0.01  -0.01  -0.03    -0.00   0.01   0.01
  25   1    -0.00  -0.01   0.02     0.00   0.01  -0.02    -0.00  -0.01   0.01
  26   1     0.02   0.00   0.01    -0.03  -0.01   0.00     0.02   0.00  -0.00
  27   1     0.02   0.02   0.03    -0.00  -0.02  -0.01    -0.01   0.01   0.00
  28   1    -0.05   0.01  -0.04     0.05  -0.00   0.04    -0.02   0.00  -0.02
  29   1     0.00   0.01   0.02    -0.01  -0.01  -0.02     0.01   0.01   0.01
  30   1    -0.06  -0.02   0.08     0.01  -0.00   0.01    -0.01   0.00  -0.01
  31   1    -0.15   0.01   0.01    -0.01   0.01   0.00     0.01  -0.01  -0.01
  32   1     0.05   0.03  -0.10    -0.01  -0.35  -0.23     0.02   0.29   0.21
  33   1    -0.02  -0.13   0.03     0.04   0.41   0.30    -0.03  -0.34  -0.25
  34   1    -0.09   0.06   0.04    -0.00   0.05   0.03    -0.00  -0.04  -0.03
  35   1     0.14   0.08   0.07     0.01  -0.01  -0.00     0.00   0.01   0.01
  36   1     0.03  -0.01  -0.02     0.02  -0.01   0.08     0.07  -0.00   0.19
  37   1     0.03  -0.03  -0.00    -0.10   0.00  -0.31    -0.16   0.01  -0.40
  38   1     0.01   0.00   0.01     0.14   0.01   0.40     0.17  -0.01   0.45
  39   1     0.01  -0.04  -0.00    -0.05  -0.01  -0.13    -0.05   0.00  -0.14
                     43                     44                     45
                        a                      a                      a 
 Frequencies --   925.9307               936.7018               954.8690
 Red. masses --     5.5713                 6.9587                 7.1265
 Frc consts  --     0.0000                 0.0000                 0.0000
 IR Inten    --     8.2533                 7.4485                 5.0656
 Raman Activ --     0.0000                 0.0000                 0.0000
 Depolar     --     0.0000                 0.0000                 0.0000
 Atom AN      X      Y      Z        X      Y      Z        X      Y      Z
   1   7     0.09   0.11  -0.12    -0.21  -0.21   0.06     0.11   0.15   0.05
   2   6    -0.10  -0.04  -0.05     0.23   0.13   0.03    -0.10  -0.15  -0.04
   3   6    -0.00   0.04   0.22     0.11   0.08  -0.19    -0.07  -0.13  -0.02
   4   6     0.13  -0.07   0.01    -0.27  -0.11   0.09     0.08   0.27  -0.11
   5   6    -0.06  -0.07  -0.20     0.13   0.05   0.09    -0.02  -0.14   0.12
   6   7    -0.11   0.06   0.10     0.16   0.09  -0.07     0.03  -0.20  -0.15
   7   6    -0.10  -0.05  -0.08     0.02  -0.02   0.15     0.09   0.33   0.13
   8   6     0.13   0.00   0.09    -0.04  -0.10  -0.07    -0.14  -0.01  -0.16
   9   6    -0.02   0.03  -0.03     0.04   0.03  -0.02    -0.04  -0.02   0.13
  10   6    -0.03   0.01  -0.07     0.02   0.06   0.05     0.05   0.04   0.06
  11   6     0.03  -0.24  -0.12    -0.09  -0.14  -0.15    -0.01  -0.11  -0.10
  12   6     0.06   0.14   0.14    -0.01   0.07   0.04    -0.07  -0.03  -0.01
  13   6    -0.07   0.00   0.05     0.09   0.02  -0.05     0.05   0.00  -0.05
  14   6     0.02  -0.03  -0.04    -0.00  -0.03   0.05     0.01  -0.00   0.06
  15   6     0.06   0.08  -0.02    -0.10  -0.08   0.02    -0.03  -0.03  -0.01
  16   6    -0.06   0.01   0.04     0.02   0.01  -0.01     0.02  -0.00  -0.01
  17   6     0.04  -0.09  -0.04    -0.03   0.07   0.03    -0.03   0.05   0.03
  18   6     0.04   0.01  -0.01    -0.02   0.03  -0.00    -0.01   0.03  -0.00
  19   1    -0.07  -0.09   0.08    -0.01   0.00  -0.03     0.14   0.11  -0.04
  20   1    -0.02  -0.02   0.08    -0.04  -0.04  -0.02     0.01  -0.02  -0.04
  21   1     0.19   0.19   0.05    -0.12  -0.13  -0.02    -0.01  -0.05  -0.03
  22   1    -0.02  -0.00  -0.02     0.04   0.00   0.07    -0.03  -0.04   0.04
  23   1    -0.06  -0.07   0.03     0.03   0.06  -0.02    -0.00   0.06  -0.08
  24   1    -0.02   0.02   0.10    -0.02   0.08  -0.22     0.03  -0.09   0.12
  25   1    -0.01  -0.01   0.05    -0.02  -0.06   0.01     0.02   0.04   0.03
  26   1     0.08  -0.00  -0.02     0.08   0.04  -0.05    -0.22  -0.03   0.12
  27   1     0.01   0.05   0.04    -0.22   0.06  -0.07     0.24  -0.14   0.02
  28   1    -0.14   0.00  -0.10     0.11   0.06   0.03     0.02   0.03   0.01
  29   1     0.02   0.03   0.05     0.06   0.03   0.03    -0.16  -0.13   0.07
  30   1    -0.08   0.02  -0.02     0.00   0.01   0.04     0.10   0.08   0.02
  31   1     0.01  -0.03   0.06     0.03  -0.05  -0.03     0.05   0.00  -0.11
  32   1    -0.02  -0.03  -0.06     0.02   0.02   0.01     0.02  -0.05   0.06
  33   1    -0.03   0.09   0.04     0.00  -0.14  -0.10     0.05  -0.13  -0.09
  34   1     0.06   0.36   0.35     0.03   0.35   0.26     0.06   0.29   0.18
  35   1    -0.04  -0.30  -0.22    -0.03  -0.17  -0.14    -0.02  -0.07  -0.04
  36   1     0.02   0.02  -0.01    -0.04  -0.01   0.04     0.00  -0.01   0.03
  37   1    -0.03   0.00  -0.03     0.01   0.02   0.02     0.01  -0.01   0.01
  38   1     0.05  -0.02   0.04    -0.04   0.01  -0.02    -0.03   0.01  -0.01
  39   1     0.01  -0.01  -0.02    -0.01   0.02   0.03    -0.03   0.03   0.02
                     46                     47                     48
                        a                      a                      a 
 Frequencies --   983.1396              1006.9003              1014.9915
 Red. masses --     6.3670                 8.5903                 7.0482
 Frc consts  --     0.0000                 0.0000                 0.0000
 IR Inten    --     1.6823                 1.5647                 6.4137
 Raman Activ --     0.0000                 0.0000                 0.0000
 Depolar     --     0.0000                 0.0000                 0.0000
 Atom AN      X      Y      Z        X      Y      Z        X      Y      Z
   1   7    -0.12   0.02   0.09     0.01   0.01   0.01    -0.07   0.04   0.06
   2   6     0.16  -0.08  -0.11    -0.01  -0.03  -0.01     0.12  -0.08  -0.10
   3   6    -0.02  -0.06  -0.11    -0.00   0.02   0.01    -0.06   0.03  -0.01
   4   6    -0.12   0.18   0.04    -0.00   0.00  -0.01    -0.01   0.04   0.03
   5   6     0.21  -0.11  -0.06     0.01  -0.02   0.00     0.05  -0.06  -0.10
   6   7    -0.06  -0.01   0.04     0.00  -0.00  -0.01    -0.17   0.18   0.12
   7   6    -0.27   0.13  -0.10     0.16   0.08  -0.04     0.28  -0.36  -0.00
   8   6     0.06  -0.06   0.16    -0.09  -0.13   0.23    -0.00   0.19  -0.14
   9   6     0.03   0.03  -0.14     0.23   0.02  -0.14    -0.06  -0.05   0.15
  10   6    -0.08  -0.03   0.00     0.18   0.24  -0.37     0.08  -0.00   0.00
  11   6     0.08  -0.02   0.08    -0.45   0.01   0.08    -0.07   0.04  -0.06
  12   6     0.21   0.03  -0.00    -0.13  -0.12   0.13    -0.18  -0.01   0.02
  13   6    -0.10   0.00   0.05    -0.03  -0.01   0.02    -0.13  -0.02   0.07
  14   6     0.02  -0.11  -0.03    -0.00  -0.06  -0.03    -0.01   0.11  -0.03
  15   6     0.08   0.10  -0.03     0.04   0.04  -0.00     0.04   0.03  -0.01
  16   6    -0.06   0.00   0.03    -0.03  -0.01   0.01     0.02  -0.01  -0.01
  17   6     0.04  -0.09  -0.02     0.00  -0.02  -0.00     0.05  -0.04  -0.02
  18   6     0.04   0.06  -0.02     0.02   0.07  -0.01    -0.02  -0.11   0.01
  19   1     0.16   0.12  -0.05     0.01   0.01  -0.00     0.11   0.08  -0.03
  20   1    -0.08  -0.14  -0.05     0.00  -0.00  -0.00    -0.06  -0.11  -0.03
  21   1    -0.03  -0.12  -0.04     0.00   0.00   0.00     0.00  -0.06  -0.02
  22   1    -0.01  -0.07   0.21    -0.00  -0.00   0.02    -0.01  -0.04   0.17
  23   1    -0.03   0.18  -0.20    -0.02   0.00  -0.01    -0.05   0.12  -0.15
  24   1     0.04  -0.05  -0.07    -0.00   0.00   0.01     0.03  -0.03  -0.02
  25   1    -0.01   0.03   0.20    -0.00   0.00   0.02    -0.01   0.06   0.19
  26   1    -0.06   0.08   0.19    -0.00   0.00   0.01     0.06   0.09   0.16
  27   1     0.06  -0.04   0.03     0.00  -0.01  -0.01     0.01  -0.01   0.01
  28   1    -0.05   0.12  -0.11    -0.01   0.00  -0.01    -0.15  -0.01  -0.08
  29   1     0.03   0.02   0.19     0.00  -0.00   0.02     0.15   0.10   0.08
  30   1    -0.23   0.03  -0.02     0.06   0.01  -0.01     0.27  -0.03  -0.01
  31   1     0.01  -0.09   0.11    -0.06  -0.09   0.13    -0.11   0.21  -0.08
  32   1    -0.04   0.08  -0.07     0.23  -0.08   0.15     0.02  -0.07   0.07
  33   1    -0.12   0.05   0.05     0.11   0.09  -0.10     0.15  -0.01  -0.02
  34   1    -0.03  -0.13   0.03    -0.18  -0.07   0.09     0.02   0.08  -0.07
  35   1     0.06  -0.01  -0.00     0.13  -0.19   0.25    -0.07   0.00  -0.03
  36   1     0.01   0.03  -0.01     0.01   0.01  -0.03     0.05  -0.02  -0.02
  37   1    -0.02  -0.02   0.00    -0.01  -0.02   0.00     0.01   0.01  -0.01
  38   1     0.00  -0.03  -0.01    -0.02  -0.02   0.01     0.05   0.01  -0.01
  39   1     0.01   0.02   0.00    -0.00   0.02  -0.00     0.07  -0.09  -0.03
                     49                     50                     51
                        a                      a                      a 
 Frequencies --  1030.1496              1037.7237              1064.2437
 Red. masses --     7.6738                 9.2631                 9.6053
 Frc consts  --     0.0000                 0.0000                 0.0000
 IR Inten    --    37.0412                26.6678                 5.8022
 Raman Activ --     0.0000                 0.0000                 0.0000
 Depolar     --     0.0000                 0.0000                 0.0000
 Atom AN      X      Y      Z        X      Y      Z        X      Y      Z
   1   7    -0.01   0.08  -0.19    -0.25  -0.22  -0.16     0.15   0.09  -0.00
   2   6     0.04  -0.06   0.27     0.31   0.44   0.04    -0.20  -0.20   0.15
   3   6    -0.21   0.05  -0.01    -0.13  -0.23   0.06     0.08   0.12  -0.14
   4   6    -0.10   0.01  -0.43     0.09   0.11  -0.03    -0.22  -0.07  -0.08
   5   6     0.21  -0.03   0.30     0.08   0.07  -0.03     0.31   0.15  -0.00
   6   7     0.02   0.18  -0.04    -0.10  -0.24   0.04    -0.02  -0.24   0.04
   7   6    -0.02  -0.11  -0.02     0.05   0.09   0.02     0.11   0.08   0.02
   8   6     0.05  -0.07   0.01    -0.05   0.10  -0.01    -0.12   0.16   0.04
   9   6     0.01   0.01  -0.02    -0.01  -0.01   0.03    -0.01   0.00   0.01
  10   6    -0.01   0.01  -0.01     0.02  -0.01   0.01    -0.01  -0.04   0.06
  11   6     0.00  -0.00   0.01    -0.01   0.01  -0.02     0.03   0.02  -0.05
  12   6     0.01   0.01   0.01    -0.03  -0.02  -0.01    -0.05  -0.00  -0.03
  13   6     0.12   0.04  -0.05    -0.17  -0.05   0.07    -0.29  -0.11   0.13
  14   6    -0.00   0.05   0.01     0.00  -0.06  -0.01    -0.01  -0.18  -0.02
  15   6    -0.08  -0.09   0.03     0.11   0.12  -0.04     0.17   0.24  -0.06
  16   6     0.02   0.01  -0.01    -0.04  -0.02   0.01    -0.03  -0.04   0.01
  17   6    -0.01   0.06   0.01     0.02  -0.07  -0.01     0.03  -0.15  -0.01
  18   6    -0.03  -0.06   0.01     0.04   0.07  -0.01     0.06   0.16  -0.03
  19   1    -0.06  -0.13   0.10    -0.17  -0.17   0.07    -0.00   0.00   0.01
  20   1    -0.09  -0.10   0.11    -0.10  -0.09   0.08     0.05   0.05   0.00
  21   1     0.23   0.18   0.04     0.07   0.07   0.03     0.04   0.06   0.02
  22   1    -0.02  -0.08   0.09     0.09   0.10  -0.10    -0.06  -0.09   0.02
  23   1    -0.02  -0.10   0.14     0.10   0.04   0.07    -0.02  -0.12   0.10
  24   1     0.08  -0.09  -0.14     0.09  -0.16  -0.07    -0.03   0.09  -0.13
  25   1    -0.01   0.14   0.20     0.04   0.09   0.05    -0.02  -0.06  -0.06
  26   1    -0.14  -0.02   0.05    -0.09  -0.05  -0.05    -0.02  -0.01  -0.08
  27   1     0.05  -0.17  -0.18     0.14   0.06   0.15    -0.11  -0.01  -0.08
  28   1    -0.01  -0.04   0.07     0.04   0.02  -0.00     0.16   0.11  -0.01
  29   1     0.12   0.03   0.07    -0.07  -0.05  -0.01     0.06   0.03   0.03
  30   1    -0.03   0.01  -0.01     0.07  -0.02   0.00     0.10  -0.08   0.01
  31   1    -0.00  -0.04   0.03    -0.01   0.06  -0.03    -0.05   0.10  -0.02
  32   1    -0.00   0.01  -0.01     0.01  -0.02   0.02    -0.01  -0.00  -0.01
  33   1    -0.02   0.00  -0.00     0.03  -0.00   0.00    -0.01  -0.00   0.02
  34   1    -0.01  -0.03  -0.00     0.01   0.04  -0.00     0.05   0.07  -0.04
  35   1     0.00   0.00   0.00    -0.00   0.00   0.01    -0.03   0.03  -0.02
  36   1    -0.03  -0.02   0.01     0.04   0.02  -0.02    -0.01   0.10  -0.00
  37   1     0.01   0.04  -0.00    -0.01  -0.07   0.00    -0.01  -0.12   0.00
  38   1     0.02   0.03  -0.01    -0.02  -0.03   0.01    -0.09  -0.09   0.03
  39   1     0.00  -0.02  -0.00     0.04  -0.01  -0.02     0.05   0.02  -0.01
                     52                     53                     54
                        a                      a                      a 
 Frequencies --  1081.9608              1097.9891              1115.7427
 Red. masses --     5.9347                 7.6655                 7.6558
 Frc consts  --     0.0000                 0.0000                 0.0000
 IR Inten    --     0.2470                 2.1568                 4.2336
 Raman Activ --     0.0000                 0.0000                 0.0000
 Depolar     --     0.0000                 0.0000                 0.0000
 Atom AN      X      Y      Z        X      Y      Z        X      Y      Z
   1   7    -0.02  -0.01  -0.01    -0.04   0.01   0.02     0.08  -0.02  -0.10
   2   6     0.02   0.03  -0.00     0.07  -0.00  -0.07    -0.11   0.01   0.25
   3   6    -0.01  -0.03   0.01    -0.08   0.03   0.09     0.15  -0.19  -0.35
   4   6     0.01   0.03   0.01     0.10  -0.07  -0.04    -0.09   0.31   0.25
   5   6    -0.03  -0.05   0.00    -0.15  -0.02   0.05    -0.00  -0.18  -0.10
   6   7     0.01   0.08  -0.01     0.11   0.08  -0.07    -0.08   0.16   0.03
   7   6     0.06  -0.05  -0.02     0.39   0.05  -0.03     0.13  -0.07  -0.03
   8   6    -0.00  -0.01   0.03    -0.20  -0.19   0.32     0.01  -0.12   0.10
   9   6    -0.00   0.00  -0.01     0.00   0.08  -0.18     0.00   0.02  -0.05
  10   6    -0.00   0.00  -0.00    -0.14  -0.05   0.09    -0.04   0.00  -0.00
  11   6     0.01   0.00  -0.01     0.14   0.02  -0.08     0.03   0.00  -0.01
  12   6    -0.03   0.00  -0.00    -0.14   0.04  -0.07    -0.05   0.02  -0.01
  13   6     0.05   0.06  -0.02     0.05  -0.06  -0.02    -0.02   0.05   0.02
  14   6    -0.05  -0.03   0.01     0.00  -0.11  -0.03     0.01   0.07  -0.03
  15   6    -0.03   0.24   0.02     0.00   0.01   0.00    -0.02  -0.08   0.01
  16   6     0.37   0.07  -0.15    -0.07  -0.04   0.03    -0.01   0.02   0.01
  17   6     0.05  -0.37  -0.03    -0.03   0.05   0.02     0.04   0.02  -0.01
  18   6    -0.20  -0.10   0.08     0.07   0.13  -0.02    -0.04  -0.07   0.02
  19   1    -0.00  -0.01   0.00     0.03   0.02  -0.01    -0.08  -0.09   0.04
  20   1    -0.01  -0.01   0.01    -0.02  -0.03  -0.01     0.03   0.06   0.06
  21   1     0.01   0.00   0.00    -0.00  -0.03  -0.01     0.04   0.09   0.02
  22   1     0.01   0.00  -0.00     0.02   0.03   0.04    -0.06  -0.10  -0.07
  23   1     0.01   0.01  -0.00    -0.03   0.04  -0.06     0.11  -0.07   0.14
  24   1     0.01  -0.02   0.02     0.01  -0.02   0.06     0.00  -0.01  -0.17
  25   1     0.01   0.00  -0.01    -0.00   0.05   0.08     0.04  -0.09  -0.25
  26   1    -0.01   0.00   0.02     0.05   0.01   0.03    -0.06   0.09   0.17
  27   1     0.02  -0.01   0.01    -0.00  -0.02  -0.04     0.07   0.03   0.12
  28   1    -0.01  -0.02   0.00    -0.05  -0.08   0.04    -0.02   0.10  -0.10
  29   1    -0.03  -0.02   0.01     0.02   0.01  -0.07    -0.10  -0.06   0.12
  30   1     0.04   0.01  -0.01     0.19   0.00  -0.01     0.10   0.12  -0.03
  31   1    -0.02  -0.02   0.03    -0.15  -0.13   0.21    -0.13  -0.03   0.12
  32   1    -0.02   0.02  -0.02    -0.05   0.08  -0.08    -0.01   0.03  -0.02
  33   1    -0.01   0.00   0.00    -0.32   0.00   0.07    -0.10   0.00   0.01
  34   1     0.01   0.01  -0.02     0.15   0.16  -0.17     0.03   0.04  -0.04
  35   1    -0.01   0.00  -0.01    -0.08   0.06  -0.07    -0.03   0.01  -0.03
  36   1    -0.37   0.32   0.14    -0.02   0.01  -0.00     0.07  -0.07  -0.03
  37   1     0.12   0.14  -0.04    -0.03  -0.09   0.00     0.00   0.10  -0.00
  38   1    -0.10  -0.18   0.04    -0.08  -0.02   0.03     0.10   0.06  -0.04
  39   1    -0.39   0.19   0.14     0.06   0.01  -0.02    -0.01  -0.02  -0.00
                     55                     56                     57
                        a                      a                      a 
 Frequencies --  1126.3965              1146.8219              1174.8910
 Red. masses --     7.6083                 7.4584                 2.2411
 Frc consts  --     0.0000                 0.0000                 0.0000
 IR Inten    --     2.2309                30.1566                 1.0497
 Raman Activ --     0.0000                 0.0000                 0.0000
 Depolar     --     0.0000                 0.0000                 0.0000
 Atom AN      X      Y      Z        X      Y      Z        X      Y      Z
   1   7    -0.03   0.09  -0.07    -0.02   0.03   0.02    -0.03   0.03   0.01
   2   6     0.14  -0.24   0.22     0.04  -0.08  -0.02     0.06  -0.05  -0.00
   3   6    -0.20   0.10  -0.33    -0.06   0.12   0.02    -0.05   0.06   0.01
   4   6     0.24  -0.04   0.23     0.00  -0.12  -0.04     0.03  -0.05  -0.01
   5   6    -0.29   0.18  -0.09     0.17   0.21  -0.09     0.02   0.03  -0.01
   6   7     0.05  -0.16   0.00    -0.27  -0.35   0.13    -0.03  -0.02   0.00
   7   6    -0.06   0.08   0.01     0.07   0.13   0.02    -0.05   0.06   0.04
   8   6    -0.02   0.05  -0.04     0.03  -0.17   0.06     0.09  -0.02   0.00
   9   6     0.01  -0.01   0.01    -0.00   0.01  -0.05     0.00   0.00   0.03
  10   6     0.01   0.00  -0.01    -0.04   0.01  -0.01     0.03   0.00  -0.01
  11   6    -0.02  -0.01   0.01     0.04   0.01  -0.02    -0.01  -0.01   0.01
  12   6     0.02  -0.01   0.01    -0.04  -0.01  -0.02     0.02  -0.02  -0.00
  13   6     0.06  -0.03  -0.04    -0.03   0.09   0.02     0.03   0.04  -0.01
  14   6    -0.01  -0.02   0.03    -0.01   0.22   0.02     0.03  -0.15  -0.09
  15   6     0.00   0.03  -0.00     0.01  -0.10  -0.01     0.01  -0.14   0.00
  16   6     0.01  -0.01  -0.00     0.10   0.09  -0.04    -0.10  -0.02   0.04
  17   6    -0.03   0.02   0.01     0.06  -0.02  -0.03     0.03   0.08  -0.01
  18   6     0.03   0.05  -0.01    -0.17  -0.16   0.07     0.04   0.04  -0.01
  19   1     0.04  -0.02   0.04     0.04   0.03  -0.00     0.03   0.01   0.00
  20   1    -0.08  -0.10   0.05    -0.02  -0.03  -0.01    -0.02  -0.03  -0.00
  21   1     0.13   0.07   0.01     0.01  -0.02  -0.01     0.02  -0.01  -0.00
  22   1    -0.00  -0.10   0.23     0.01  -0.00   0.07     0.03   0.03   0.04
  23   1    -0.05  -0.03   0.02    -0.05  -0.00  -0.03    -0.05  -0.02  -0.01
  24   1     0.09  -0.09  -0.20     0.02   0.01  -0.04     0.01  -0.01   0.01
  25   1     0.02   0.17  -0.06    -0.01   0.05   0.03     0.00   0.03  -0.04
  26   1     0.23   0.12   0.16     0.03  -0.05  -0.13     0.00  -0.04  -0.07
  27   1    -0.00   0.07   0.05    -0.01   0.06   0.05    -0.00   0.02   0.02
  28   1    -0.04  -0.12   0.06     0.07   0.00   0.01     0.07   0.02   0.01
  29   1    -0.01   0.04  -0.19     0.01   0.02  -0.04    -0.09  -0.06  -0.01
  30   1    -0.05  -0.08   0.01     0.12   0.08  -0.01     0.13   0.08  -0.01
  31   1     0.11  -0.03  -0.06     0.03  -0.13   0.06    -0.39   0.19   0.14
  32   1     0.02  -0.02   0.02    -0.01   0.03  -0.01    -0.11   0.09  -0.11
  33   1     0.04   0.00  -0.00    -0.11  -0.00   0.01     0.18  -0.01  -0.03
  34   1    -0.02  -0.02   0.04     0.05   0.06  -0.05    -0.08  -0.08   0.12
  35   1    -0.01  -0.01  -0.02     0.01  -0.01   0.03    -0.06   0.08  -0.07
  36   1    -0.03   0.03   0.01     0.24  -0.20  -0.10    -0.21   0.10   0.07
  37   1    -0.00  -0.07   0.00     0.05   0.33  -0.01    -0.05  -0.32   0.01
  38   1    -0.07  -0.03   0.03     0.20   0.09  -0.07     0.42   0.25  -0.16
  39   1    -0.02   0.03   0.01    -0.22   0.07   0.08    -0.22   0.17   0.08
                     58                     59                     60
                        a                      a                      a 
 Frequencies --  1179.5325              1182.9387              1189.0914
 Red. masses --     2.3442                 4.4466                 3.0265
 Frc consts  --     0.0000                 0.0000                 0.0000
 IR Inten    --     4.0815                15.2768                 1.0338
 Raman Activ --     0.0000                 0.0000                 0.0000
 Depolar     --     0.0000                 0.0000                 0.0000
 Atom AN      X      Y      Z        X      Y      Z        X      Y      Z
   1   7    -0.00   0.01   0.00     0.04  -0.03  -0.00     0.02  -0.04  -0.01
   2   6     0.01  -0.02  -0.00    -0.08   0.06  -0.01    -0.05   0.08  -0.01
   3   6    -0.02   0.03  -0.00     0.07  -0.04   0.00     0.04  -0.07   0.04
   4   6     0.02  -0.03  -0.00    -0.06   0.04  -0.01    -0.02   0.02  -0.03
   5   6     0.01   0.03  -0.01     0.09   0.07  -0.05    -0.06   0.00   0.02
   6   7    -0.04  -0.08  -0.00    -0.21  -0.14   0.09     0.11   0.03  -0.02
   7   6    -0.05   0.09   0.04     0.03  -0.03  -0.02     0.03   0.02  -0.07
   8   6     0.13  -0.14  -0.01    -0.06  -0.00   0.00    -0.16   0.20   0.02
   9   6     0.02  -0.02   0.01    -0.01  -0.05  -0.04     0.08  -0.04  -0.03
  10   6     0.02   0.01  -0.03    -0.01   0.01  -0.02    -0.02  -0.03   0.02
  11   6    -0.01  -0.01   0.02     0.01   0.00  -0.00    -0.06  -0.02   0.03
  12   6     0.02  -0.03  -0.00    -0.02  -0.01   0.00     0.04   0.00  -0.03
  13   6     0.05  -0.02  -0.02     0.15   0.08  -0.06    -0.08  -0.03   0.03
  14   6    -0.00   0.18  -0.03    -0.12   0.27   0.13     0.02  -0.17   0.03
  15   6    -0.06   0.07   0.03    -0.05   0.06   0.01     0.06  -0.03  -0.03
  16   6     0.04  -0.02  -0.02     0.08  -0.10  -0.04    -0.02   0.05   0.01
  17   6    -0.05  -0.03   0.02    -0.03   0.05   0.01     0.03  -0.01  -0.01
  18   6     0.01  -0.04  -0.00     0.07  -0.08  -0.04    -0.04   0.04   0.01
  19   1     0.02   0.00   0.00    -0.02  -0.01  -0.00    -0.04  -0.02  -0.01
  20   1    -0.00  -0.00   0.00     0.03   0.05   0.01     0.02   0.03  -0.00
  21   1    -0.00  -0.01  -0.00    -0.04  -0.01  -0.00    -0.01   0.02   0.01
  22   1     0.01   0.01   0.01    -0.04  -0.04  -0.04    -0.03  -0.02  -0.05
  23   1    -0.02  -0.01  -0.00     0.05   0.02  -0.00     0.06   0.03   0.00
  24   1    -0.00   0.01  -0.02    -0.01   0.02  -0.04    -0.01  -0.01   0.04
  25   1    -0.00   0.02   0.01    -0.01  -0.04   0.06    -0.01  -0.04   0.05
  26   1     0.01  -0.02  -0.05    -0.01   0.03   0.04     0.04   0.08   0.17
  27   1     0.00   0.02   0.02     0.01   0.01   0.03    -0.03  -0.08  -0.11
  28   1     0.05   0.04  -0.00    -0.10  -0.05  -0.02    -0.04  -0.05   0.01
  29   1    -0.04  -0.03  -0.02     0.14   0.10   0.01     0.10   0.07  -0.03
  30   1     0.23   0.17  -0.02     0.13   0.13  -0.03     0.19  -0.15  -0.01
  31   1    -0.27  -0.03   0.21     0.31  -0.36   0.05     0.19  -0.23   0.05
  32   1    -0.17   0.16  -0.17    -0.05   0.06  -0.05     0.07  -0.03   0.06
  33   1     0.25   0.01  -0.04     0.05   0.02   0.01     0.04   0.02   0.02
  34   1    -0.15  -0.15   0.24    -0.00  -0.00   0.01    -0.20  -0.20   0.30
  35   1    -0.15   0.17  -0.18    -0.01   0.00  -0.01    -0.27   0.28  -0.34
  36   1    -0.01   0.02   0.00    -0.16   0.13   0.07     0.15  -0.10  -0.06
  37   1     0.02   0.15  -0.01    -0.01  -0.54  -0.01     0.00   0.14   0.01
  38   1    -0.36  -0.20   0.13     0.08   0.06  -0.03     0.11   0.05  -0.04
  39   1     0.27  -0.20  -0.11     0.06  -0.05  -0.02    -0.17   0.13   0.07
                     61                     62                     63
                        a                      a                      a 
 Frequencies --  1201.0859              1205.6084              1220.4339
 Red. masses --     3.8070                 2.9087                 2.8010
 Frc consts  --     0.0000                 0.0000                 0.0000
 IR Inten    --    15.2843                 1.9491                 3.6368
 Raman Activ --     0.0000                 0.0000                 0.0000
 Depolar     --     0.0000                 0.0000                 0.0000
 Atom AN      X      Y      Z        X      Y      Z        X      Y      Z
   1   7     0.11  -0.10  -0.02     0.04  -0.03  -0.00     0.13  -0.07   0.04
   2   6    -0.18   0.17  -0.02    -0.07   0.05  -0.02    -0.19   0.05  -0.08
   3   6     0.09  -0.13   0.03     0.02  -0.02   0.01    -0.01   0.08   0.02
   4   6    -0.01   0.05  -0.02     0.00  -0.01  -0.02     0.15  -0.07   0.01
   5   6    -0.06   0.13  -0.03     0.02   0.08  -0.03    -0.04  -0.06   0.06
   6   7     0.01  -0.19   0.01    -0.08  -0.14   0.02     0.04   0.12  -0.05
   7   6    -0.04   0.17   0.05     0.00   0.05  -0.00     0.01  -0.06  -0.01
   8   6     0.06  -0.11  -0.01     0.20  -0.19   0.02    -0.06   0.08  -0.00
   9   6    -0.04   0.03   0.02     0.08   0.05   0.03     0.00  -0.01  -0.01
  10   6     0.03   0.01  -0.02    -0.04  -0.00   0.00    -0.00  -0.01   0.01
  11   6     0.02   0.01  -0.02    -0.04  -0.02   0.03     0.00   0.00  -0.00
  12   6    -0.02  -0.04   0.03     0.02   0.06  -0.07     0.00   0.01  -0.00
  13   6     0.06  -0.03  -0.03     0.08   0.01  -0.03    -0.03   0.02   0.01
  14   6     0.03  -0.03  -0.05    -0.02   0.10  -0.04     0.03  -0.07  -0.00
  15   6    -0.00  -0.05   0.00    -0.05   0.01   0.03     0.02  -0.02  -0.01
  16   6    -0.02   0.02   0.01     0.02  -0.02  -0.01    -0.02   0.00   0.01
  17   6    -0.02   0.02   0.01    -0.02   0.01   0.01    -0.00  -0.02  -0.00
  18   6    -0.00   0.02   0.00     0.02  -0.02  -0.01    -0.01   0.01   0.00
  19   1    -0.10  -0.04  -0.02    -0.02  -0.01  -0.01    -0.06   0.00  -0.04
  20   1     0.09   0.11   0.01     0.03   0.05   0.00     0.10   0.11  -0.02
  21   1    -0.07   0.02   0.01    -0.03  -0.00   0.00    -0.08  -0.00   0.01
  22   1    -0.13  -0.15  -0.07    -0.05  -0.06  -0.01    -0.18  -0.23   0.05
[...]
  21   1    -0.00   0.00  -0.00    -0.00   0.00  -0.00     0.00  -0.00   0.00
  22   1     0.05  -0.02   0.00     0.01  -0.00   0.00     0.46  -0.21   0.08
  23   1    -0.01   0.04   0.04     0.00  -0.01  -0.01     0.08  -0.48  -0.61
  24   1    -0.48  -0.54  -0.05    -0.08  -0.09  -0.01     0.04   0.04   0.00
  25   1    -0.26   0.16  -0.03    -0.02   0.02  -0.00    -0.16   0.07  -0.02
  26   1     0.11  -0.17   0.04     0.08  -0.13   0.04    -0.01   0.02  -0.01
  27   1    -0.29  -0.24   0.26    -0.06  -0.05   0.05    -0.01  -0.01   0.01
  28   1     0.05  -0.08  -0.16    -0.26   0.37   0.78     0.00  -0.00  -0.01
  29   1     0.01  -0.01   0.01    -0.12   0.20  -0.08     0.01  -0.01   0.00
  30   1    -0.00  -0.00   0.00     0.00   0.00  -0.00     0.00  -0.00  -0.00
  31   1     0.00   0.00   0.00     0.00   0.00   0.00     0.00   0.00   0.00
  32   1    -0.00  -0.00   0.00     0.00   0.00  -0.00    -0.00  -0.00   0.00
  33   1     0.00  -0.00   0.00    -0.00   0.00  -0.00     0.00  -0.00   0.00
  34   1     0.00  -0.00   0.00    -0.00   0.00   0.00    -0.00   0.00  -0.00
  35   1    -0.00  -0.00   0.00     0.00   0.00  -0.00    -0.00  -0.00   0.00
  36   1    -0.00  -0.00  -0.00    -0.00  -0.00  -0.00     0.00   0.00  -0.00
  37   1     0.00   0.00   0.00    -0.00  -0.00  -0.00     0.00  -0.00  -0.00
  38   1    -0.00   0.00   0.00    -0.00   0.00  -0.00    -0.00   0.00   0.00
  39   1     0.00  -0.00   0.00    -0.00  -0.00   0.00     0.00   0.00  -0.00
                     97                     98                     99
                        a                      a                      a 
 Frequencies --  2964.4731              2973.3663              2979.0784
 Red. masses --     1.5434                 1.5517                 1.6094
 Frc consts  --     0.0000                 0.0000                 0.0000
 IR Inten    --    17.5180                13.6271                10.5263
 Raman Activ --     0.0000                 0.0000                 0.0000
 Depolar     --     0.0000                 0.0000                 0.0000
 Atom AN      X      Y      Z        X      Y      Z        X      Y      Z
   1   7     0.00  -0.00  -0.00     0.00  -0.00  -0.01    -0.00  -0.00   0.01
   2   6     0.01   0.01   0.02     0.08   0.03   0.10    -0.15   0.03  -0.09
   3   6    -0.04   0.07  -0.01    -0.09   0.12  -0.01    -0.09   0.08  -0.01
   4   6     0.15  -0.12   0.00    -0.05   0.05  -0.00    -0.01   0.01   0.00
   5   6    -0.01   0.02  -0.04     0.02  -0.04   0.04     0.05  -0.07   0.05
   6   7     0.00   0.00  -0.00    -0.00  -0.00   0.00    -0.00  -0.00   0.00
   7   6     0.00  -0.00   0.00    -0.00   0.00   0.00     0.00   0.00   0.00
   8   6     0.00   0.00   0.00     0.00  -0.00   0.00     0.00  -0.00  -0.00
   9   6    -0.00  -0.00   0.00     0.00   0.00  -0.00    -0.00   0.00   0.00
  10   6     0.00   0.00  -0.00    -0.00   0.00  -0.00     0.00  -0.00   0.00
  11   6     0.00  -0.00   0.00    -0.00   0.00   0.00     0.00  -0.00  -0.00
  12   6    -0.00  -0.00   0.00     0.00   0.00  -0.00     0.00  -0.00  -0.00
  13   6     0.00   0.00   0.00     0.00  -0.00   0.00     0.00  -0.00  -0.00
  14   6    -0.00  -0.00  -0.00    -0.00   0.00  -0.00     0.00   0.00  -0.00
  15   6    -0.00   0.00  -0.00    -0.00   0.00  -0.00    -0.00  -0.00   0.00
  16   6     0.00  -0.00  -0.00     0.00  -0.00  -0.00    -0.00  -0.00   0.00
  17   6    -0.00   0.00   0.00     0.00   0.00   0.00     0.00   0.00  -0.00
  18   6    -0.00  -0.00   0.00     0.00   0.00  -0.00     0.00   0.00  -0.00
  19   1    -0.00   0.01   0.01    -0.01   0.02   0.02     0.00  -0.02  -0.02
  20   1     0.00   0.00  -0.00     0.02  -0.01   0.00    -0.02   0.01  -0.00
  21   1     0.00   0.00  -0.00     0.00  -0.00   0.00    -0.00   0.00  -0.00
  22   1    -0.04   0.02  -0.00    -0.37   0.19  -0.03     0.60  -0.30   0.06
  23   1     0.01  -0.05  -0.06     0.07  -0.27  -0.33    -0.06   0.21   0.25
  24   1    -0.14  -0.14  -0.02    -0.20  -0.18  -0.02    -0.09  -0.07  -0.01
  25   1     0.31  -0.14   0.04     0.54  -0.25   0.07     0.41  -0.19   0.05
  26   1    -0.37   0.66  -0.21     0.13  -0.23   0.07     0.02  -0.03   0.01
  27   1    -0.20  -0.21   0.20     0.05   0.06  -0.05     0.01   0.01  -0.01
  28   1    -0.04   0.06   0.11     0.04  -0.06  -0.11     0.04  -0.06  -0.10
  29   1     0.10  -0.15   0.03    -0.12   0.20  -0.05    -0.20   0.32  -0.08
  30   1     0.00   0.00  -0.00    -0.00  -0.00   0.00     0.00   0.00   0.00
  31   1    -0.00  -0.00  -0.00    -0.00  -0.00  -0.00     0.00   0.00   0.00
  32   1     0.00  -0.00  -0.00    -0.00  -0.00   0.00     0.00   0.00  -0.00
  33   1    -0.00  -0.00   0.00     0.00  -0.00   0.00    -0.00   0.00  -0.00
  34   1    -0.00   0.00  -0.00     0.00  -0.00   0.00    -0.00   0.00  -0.00
  35   1     0.00  -0.00  -0.00    -0.00   0.00   0.00    -0.00   0.00   0.00
  36   1    -0.00  -0.00   0.00    -0.00  -0.00   0.00     0.00   0.00  -0.00
  37   1    -0.00   0.00   0.00    -0.00   0.00   0.00     0.00  -0.00  -0.00
  38   1     0.00  -0.00  -0.00     0.00  -0.00  -0.00     0.00  -0.00   0.00
  39   1    -0.00  -0.00   0.00    -0.00  -0.00  -0.00    -0.00  -0.00  -0.00
                    100                    101                    102
                        a                      a                      a 
 Frequencies --  2984.8883              3046.6683              3066.1030
 Red. masses --     1.6662                 1.8137                 1.9550
 Frc consts  --     0.0000                 0.0000                 0.0000
 IR Inten    --    38.0393                24.1869               258.1790
 Raman Activ --     0.0000                 0.0000                 0.0000
 Depolar     --     0.0000                 0.0000                 0.0000
 Atom AN      X      Y      Z        X      Y      Z        X      Y      Z
   1   7    -0.00   0.00   0.00    -0.00   0.00   0.00    -0.09   0.19   0.17
   2   6    -0.05   0.02  -0.02    -0.00   0.00   0.00     0.00   0.01   0.01
   3   6    -0.06   0.06  -0.01    -0.00   0.00  -0.00     0.00   0.00   0.00
   4   6    -0.06   0.07  -0.01     0.00  -0.00   0.00     0.00  -0.00  -0.00
   5   6    -0.10   0.15  -0.08     0.00  -0.00  -0.00     0.00  -0.00  -0.00
   6   7     0.00   0.01  -0.00    -0.00   0.00   0.00    -0.00   0.00  -0.00
   7   6    -0.00  -0.00   0.00     0.00  -0.00  -0.00     0.00   0.00   0.00
   8   6     0.00  -0.00   0.00    -0.00  -0.00  -0.00    -0.00   0.00  -0.00
   9   6     0.00   0.00  -0.00     0.00  -0.00  -0.00    -0.01  -0.00   0.01
  10   6     0.00   0.00  -0.00     0.00  -0.01   0.02     0.00  -0.01   0.02
  11   6    -0.00  -0.00  -0.00    -0.23   0.10  -0.09     0.00  -0.00  -0.00
  12   6     0.00   0.00  -0.00     0.01   0.00  -0.01    -0.00  -0.01   0.00
  13   6    -0.00   0.00   0.00     0.00  -0.00  -0.00     0.00  -0.00  -0.00
  14   6     0.00   0.00  -0.00     0.00  -0.00  -0.00    -0.00  -0.00   0.00
  15   6    -0.00   0.00   0.00    -0.00  -0.00   0.00     0.00   0.00  -0.00
  16   6    -0.00  -0.00   0.00    -0.00   0.00   0.00     0.00   0.00  -0.00
  17   6    -0.00   0.00  -0.00    -0.00   0.00   0.00    -0.00  -0.00   0.00
  18   6    -0.00  -0.00   0.00     0.00   0.00  -0.00     0.00   0.00   0.00
  19   1     0.00  -0.01  -0.01    -0.00  -0.00  -0.01     0.17  -0.68  -0.63
  20   1    -0.00   0.00  -0.00     0.00  -0.00  -0.00     0.16  -0.06   0.05
  21   1    -0.00   0.00  -0.00    -0.00   0.00  -0.00    -0.01   0.04  -0.04
  22   1     0.18  -0.09   0.02     0.00  -0.00   0.00    -0.00   0.00  -0.00
  23   1    -0.01   0.04   0.04     0.00  -0.00  -0.00     0.01  -0.04  -0.05
  24   1    -0.07  -0.06  -0.01     0.00   0.00   0.00    -0.00  -0.00   0.00
  25   1     0.30  -0.14   0.04     0.00  -0.00   0.00    -0.00   0.00   0.00
  26   1     0.16  -0.28   0.09    -0.00   0.00  -0.00    -0.00   0.01  -0.00
  27   1     0.03   0.04  -0.04    -0.00  -0.00   0.00    -0.00  -0.00   0.00
  28   1    -0.07   0.09   0.14    -0.00   0.00   0.00    -0.00   0.00   0.00
  29   1     0.42  -0.66   0.16    -0.00   0.00  -0.00    -0.00   0.01  -0.00
  30   1    -0.00  -0.00  -0.01    -0.00   0.00  -0.00     0.00   0.00   0.00
  31   1    -0.00  -0.00  -0.00     0.00   0.00   0.00     0.00   0.00   0.00
  32   1    -0.00  -0.00   0.00    -0.01  -0.00   0.01     0.03   0.01  -0.02
  33   1     0.00  -0.00   0.00    -0.01   0.06  -0.09    -0.01   0.04  -0.06
  34   1     0.00  -0.00   0.00     0.84  -0.35   0.28    -0.01   0.00  -0.00
  35   1    -0.00  -0.00   0.00    -0.08  -0.02   0.05     0.01   0.00  -0.00
  36   1    -0.00  -0.00  -0.00     0.00   0.00  -0.00    -0.00  -0.00   0.00
  37   1     0.00  -0.00  -0.00     0.00  -0.00  -0.00    -0.00   0.00   0.00
  38   1     0.00  -0.00  -0.00     0.00  -0.00  -0.00    -0.00   0.00   0.00
  39   1     0.01   0.01  -0.00    -0.00  -0.00   0.00    -0.01  -0.01   0.00
                    103                    104                    105
                        a                      a                      a 
 Frequencies --  3076.7378              3091.1254              3097.3497
 Red. masses --     1.7703                 1.9016                 1.7972
 Frc consts  --     0.0000                 0.0000                 0.0000
 IR Inten    --     7.9611                35.3279                 7.8960
 Raman Activ --     0.0000                 0.0000                 0.0000
 Depolar     --     0.0000                 0.0000                 0.0000
 Atom AN      X      Y      Z        X      Y      Z        X      Y      Z
   1   7    -0.00   0.00   0.00     0.01  -0.02  -0.01     0.00  -0.00  -0.00
   2   6    -0.00   0.00   0.00     0.00  -0.00  -0.00    -0.00  -0.00  -0.00
   3   6    -0.00  -0.00  -0.00    -0.00   0.00   0.00    -0.00   0.00  -0.00
   4   6     0.00  -0.00  -0.00    -0.00   0.00  -0.00    -0.00   0.00   0.00
   5   6     0.00  -0.00  -0.00    -0.00   0.00  -0.00    -0.00   0.00  -0.00
   6   7     0.00   0.00  -0.00     0.00  -0.00   0.00     0.00  -0.00   0.00
   7   6     0.00   0.00  -0.00     0.00   0.00   0.00     0.00   0.00   0.00
   8   6    -0.00  -0.00   0.00    -0.00  -0.00  -0.00    -0.00   0.00  -0.00
   9   6    -0.15  -0.05   0.09    -0.16  -0.06   0.10     0.00   0.00  -0.00
  10   6    -0.02   0.11  -0.14     0.03  -0.12   0.16    -0.00   0.00  -0.00
  11   6    -0.02   0.01  -0.01     0.02  -0.01   0.01    -0.00   0.00  -0.00
  12   6     0.01   0.00  -0.00    -0.00   0.00   0.00     0.00   0.00  -0.00
  13   6    -0.00  -0.00   0.00    -0.00   0.00   0.00     0.00   0.00  -0.00
  14   6    -0.00   0.00   0.00    -0.00   0.00   0.00    -0.00   0.00   0.00
  15   6     0.00   0.00  -0.00     0.00   0.01  -0.00     0.00   0.01  -0.00
  16   6    -0.00   0.00   0.00    -0.00  -0.00   0.00    -0.06   0.00   0.02
  17   6    -0.00   0.00   0.00     0.00  -0.00  -0.00     0.11  -0.23  -0.05
  18   6     0.00   0.00  -0.00    -0.00  -0.00   0.00     0.02   0.04  -0.01
  19   1     0.00  -0.02  -0.02    -0.01   0.05   0.05    -0.00   0.00   0.00
  20   1     0.01  -0.00   0.00    -0.02   0.01  -0.00    -0.00   0.00  -0.00
  21   1    -0.00   0.00  -0.00     0.00  -0.00   0.00     0.00  -0.00   0.00
  22   1     0.00  -0.00   0.00    -0.00   0.00   0.00     0.00  -0.00  -0.00
  23   1     0.00  -0.00  -0.00    -0.00   0.00   0.00    -0.00   0.00   0.00
  24   1     0.00   0.00   0.00     0.00  -0.00  -0.00     0.00   0.00   0.00
  25   1     0.00  -0.00   0.00     0.00  -0.00   0.00     0.00  -0.00   0.00
  26   1    -0.00   0.00  -0.00     0.00  -0.00   0.00     0.00  -0.00   0.00
  27   1    -0.00  -0.00   0.00     0.00   0.00  -0.00     0.00   0.00  -0.00
  28   1     0.00   0.00   0.00     0.00  -0.00  -0.00    -0.00   0.00  -0.00
  29   1    -0.00   0.00  -0.00     0.00  -0.00   0.00     0.00  -0.00   0.00
  30   1    -0.00  -0.00   0.00    -0.00  -0.00  -0.00    -0.00  -0.00  -0.00
  31   1     0.00   0.00   0.00     0.00   0.00   0.00     0.00   0.00   0.00
  32   1     0.55   0.21  -0.36     0.53   0.20  -0.34    -0.00  -0.00   0.00
  33   1     0.07  -0.39   0.53    -0.07   0.40  -0.55     0.00  -0.00   0.00
  34   1     0.07  -0.03   0.03    -0.06   0.02  -0.02     0.00  -0.00   0.00
  35   1    -0.02  -0.01   0.01     0.01   0.00  -0.01    -0.00  -0.00   0.00
  36   1    -0.01  -0.02   0.00    -0.01  -0.02   0.00    -0.01  -0.02   0.00
  37   1     0.00  -0.00  -0.00     0.00  -0.00  -0.00     0.22  -0.01  -0.09
  38   1     0.00  -0.00  -0.00    -0.00   0.00   0.00    -0.39   0.81   0.16
  39   1    -0.00  -0.00   0.00     0.00   0.00  -0.00    -0.10  -0.16   0.04
                    106                    107                    108
                        a                      a                      a 
 Frequencies --  3116.3338              3119.1653              3125.1262
 Red. masses --     1.8135                 1.8442                 1.8450
 Frc consts  --     0.0000                 0.0000                 0.0000
 IR Inten    --    12.3809                20.8595                53.0601
 Raman Activ --     0.0000                 0.0000                 0.0000
 Depolar     --     0.0000                 0.0000                 0.0000
 Atom AN      X      Y      Z        X      Y      Z        X      Y      Z
   1   7    -0.00   0.00   0.00     0.00  -0.00  -0.00     0.00  -0.00  -0.00
   2   6     0.00   0.00   0.00    -0.00   0.00   0.00    -0.00   0.00  -0.00
   3   6    -0.00  -0.00  -0.00    -0.00   0.00   0.00     0.00  -0.00   0.00
   4   6     0.00  -0.00  -0.00    -0.00   0.00  -0.00    -0.00   0.00   0.00
   5   6     0.00  -0.00   0.00    -0.00   0.00   0.00    -0.00   0.00  -0.00
   6   7     0.00   0.00  -0.00     0.00  -0.00   0.00     0.00   0.00   0.00
   7   6    -0.00   0.00   0.00    -0.00  -0.00   0.00     0.00   0.00  -0.00
   8   6     0.00   0.00   0.00     0.00   0.00  -0.00     0.00   0.00   0.00
   9   6     0.00   0.00  -0.00    -0.00   0.00   0.00     0.00   0.00  -0.00
  10   6    -0.00   0.00  -0.00     0.00   0.00  -0.01    -0.00  -0.00   0.00
  11   6    -0.00   0.00  -0.00    -0.03   0.02  -0.01     0.00  -0.00   0.00
  12   6    -0.00  -0.00   0.00    -0.22  -0.07   0.14     0.01   0.00  -0.01
  13   6    -0.00  -0.00   0.00     0.00   0.00  -0.00     0.01   0.00  -0.00
  14   6     0.00   0.00  -0.00    -0.00  -0.00   0.00    -0.00   0.00   0.00
  15   6     0.06   0.09  -0.02     0.00   0.00  -0.00     0.03   0.06  -0.01
  16   6    -0.22   0.01   0.08     0.00  -0.00  -0.00    -0.02  -0.00   0.01
  17   6    -0.03   0.05   0.01    -0.00   0.00   0.00    -0.03   0.06   0.01
  18   6    -0.03  -0.05   0.01     0.01   0.01  -0.00     0.13   0.22  -0.05
  19   1     0.00  -0.00  -0.00    -0.00   0.01   0.01    -0.00   0.01   0.01
  20   1     0.00  -0.00   0.00    -0.00  -0.00  -0.00    -0.01   0.01  -0.00
  21   1    -0.00   0.00  -0.00    -0.00  -0.00   0.00     0.00   0.00  -0.00
  22   1    -0.00   0.00  -0.00     0.00  -0.00   0.00     0.00  -0.00   0.00
  23   1     0.00  -0.00  -0.00     0.00  -0.00  -0.00    -0.00  -0.00  -0.00
  24   1    -0.00  -0.00  -0.00     0.00  -0.00  -0.00     0.00   0.00   0.00
  25   1     0.00   0.00   0.00     0.00  -0.00  -0.00    -0.00  -0.00  -0.00
  26   1    -0.00   0.00  -0.00     0.00  -0.00   0.00     0.00  -0.00   0.00
  27   1    -0.00  -0.00   0.00    -0.00  -0.00   0.00     0.00   0.00  -0.00
  28   1     0.00  -0.00  -0.00     0.00  -0.00  -0.00    -0.00   0.00   0.00
  29   1    -0.00   0.00  -0.00     0.00  -0.00   0.00     0.00  -0.01   0.00
  30   1    -0.00  -0.00  -0.00    -0.00  -0.00  -0.01     0.00  -0.00  -0.00
  31   1    -0.00  -0.00  -0.00     0.00   0.00   0.00    -0.00  -0.00  -0.00
  32   1    -0.01  -0.01   0.01     0.00   0.00  -0.00    -0.01  -0.00   0.00
  33   1     0.00  -0.00   0.00     0.00  -0.01   0.02    -0.00   0.00  -0.00
  34   1     0.00  -0.00   0.00     0.08  -0.03   0.03    -0.01   0.00  -0.00
  35   1     0.02   0.00  -0.01     0.80   0.24  -0.47    -0.04  -0.01   0.03
  36   1    -0.22  -0.35   0.07     0.00   0.00  -0.00    -0.12  -0.20   0.04
  37   1     0.77  -0.05  -0.30    -0.01   0.00   0.00     0.07  -0.00  -0.03
  38   1     0.08  -0.16  -0.03     0.00  -0.01  -0.00     0.09  -0.18  -0.04
  39   1     0.11   0.18  -0.04    -0.03  -0.05   0.01    -0.45  -0.76   0.18
                    109                    110                    111
                        a                      a                      a 
 Frequencies --  3129.4881              3174.7343              3201.8653
 Red. masses --     1.8862                 1.9166                 1.5453
 Frc consts  --     0.0000                 0.0000                 0.0000
 IR Inten    --    18.6090               171.8956                50.7334
 Raman Activ --     0.0000                 0.0000                 0.0000
 Depolar     --     0.0000                 0.0000                 0.0000
 Atom AN      X      Y      Z        X      Y      Z        X      Y      Z
   1   7     0.00  -0.00   0.00    -0.19   0.10  -0.15     0.07   0.08  -0.17
   2   6     0.00   0.00   0.00    -0.01  -0.00  -0.00     0.01   0.00  -0.00
   3   6     0.00  -0.00   0.00    -0.00  -0.00   0.00    -0.00   0.00   0.00
   4   6    -0.00   0.00   0.00    -0.00  -0.00   0.00     0.00  -0.00   0.00
   5   6    -0.00   0.00  -0.00     0.00   0.00   0.00    -0.00   0.00  -0.00
   6   7     0.00  -0.00   0.00    -0.00  -0.00  -0.00     0.00   0.00   0.00
   7   6    -0.00  -0.00  -0.00     0.00   0.00   0.00     0.00  -0.00  -0.00
   8   6    -0.00  -0.00  -0.00     0.00   0.00   0.00    -0.00  -0.00  -0.00
   9   6    -0.01  -0.00   0.00    -0.00  -0.00   0.00    -0.00  -0.00   0.00
  10   6     0.00  -0.00   0.00    -0.00  -0.00   0.00     0.00  -0.00   0.00
  11   6     0.00  -0.00   0.00    -0.00  -0.00   0.00     0.00   0.00  -0.00
  12   6     0.00   0.00  -0.00     0.00   0.00  -0.00     0.00  -0.00  -0.00
  13   6     0.00   0.00  -0.00     0.01  -0.00   0.00    -0.00   0.00  -0.00
  14   6     0.00  -0.01  -0.00    -0.00  -0.00   0.00     0.00   0.00  -0.00
  15   6    -0.13  -0.20   0.04    -0.00  -0.00   0.00    -0.00   0.00   0.00
  16   6    -0.12   0.01   0.05    -0.00   0.00   0.00    -0.00  -0.00   0.00
  17   6    -0.01   0.04   0.01    -0.00   0.00   0.00     0.00   0.00  -0.00
  18   6     0.02   0.04  -0.01     0.00   0.01   0.00    -0.00  -0.00  -0.00
  19   1     0.00  -0.00  -0.00    -0.05   0.13   0.09     0.03  -0.09  -0.10
  20   1    -0.01   0.01  -0.00     0.79  -0.37   0.16    -0.28   0.14  -0.08
  21   1     0.00   0.00  -0.01    -0.03  -0.13   0.30    -0.03  -0.38   0.83
  22   1    -0.00   0.00  -0.00     0.03  -0.01   0.00    -0.01   0.00  -0.00
  23   1     0.00  -0.00  -0.00    -0.00   0.01   0.01    -0.00  -0.00  -0.00
  24   1    -0.00  -0.00   0.00     0.00   0.00  -0.00    -0.00  -0.00  -0.00
  25   1    -0.00   0.00   0.00     0.00  -0.00   0.00     0.00  -0.00   0.00
  26   1     0.00  -0.00   0.00    -0.00   0.00  -0.00    -0.00   0.00  -0.00
  27   1    -0.00  -0.00  -0.00     0.00   0.00  -0.00    -0.00  -0.00   0.00
  28   1    -0.00   0.00   0.00     0.00  -0.00  -0.00    -0.00   0.00   0.00
  29   1     0.00  -0.00   0.00     0.00  -0.00   0.00     0.00  -0.00   0.00
  30   1     0.00  -0.00  -0.00     0.00  -0.00  -0.00     0.00   0.00   0.00
  31   1     0.00   0.00   0.00    -0.00  -0.00  -0.00     0.00   0.00   0.00
  32   1     0.02   0.01  -0.01     0.00   0.00  -0.00     0.00   0.00  -0.00
  33   1    -0.00   0.00  -0.01    -0.00   0.00  -0.00    -0.00   0.00  -0.00
  34   1    -0.00   0.00  -0.00     0.00   0.00   0.00    -0.00   0.00  -0.00
  35   1    -0.00  -0.00   0.00    -0.00  -0.00   0.00    -0.00  -0.00   0.00
  36   1     0.43   0.70  -0.14     0.01   0.01  -0.00     0.00   0.00  -0.00
  37   1     0.40  -0.02  -0.16     0.01  -0.00  -0.00     0.00  -0.00  -0.00
  38   1     0.05  -0.11  -0.02     0.00  -0.00  -0.00     0.00  -0.00  -0.00
  39   1    -0.08  -0.13   0.03    -0.01  -0.01   0.00    -0.00  -0.00   0.00
