      -----------------------------------------------------------      
     |                   =====================                   |     
     |                           x T B                           |     
     |                   =====================                   |     
     |                         S. Grimme                         |     
     |          Mulliken Center for Theoretical Chemistry        |     
     |                    University of Bonn                     |     
      -----------------------------------------------------------      

   * xtb version 6.5.1 (fef0646) compiled by 'conda@b96dff2e9fd6' on 2023-01-04

   xtb is free software: you can redistribute it and/or modify it under
   the terms of the GNU Lesser General Public License as published by
   the Free Software Foundation, either version 3 of the License, or
   (at your option) any later version.
   
   xtb is distributed in the hope that it will be useful,
   but WITHOUT ANY WARRANTY; without even the implied warranty of
   MERCHANTABILITY or FITNESS FOR A PARTICULAR PURPOSE.  See the
   GNU Lesser General Public License for more details.
   
   Cite this work as:
   * C. Bannwarth, E. Caldeweyher, S. Ehlert, A. Hansen, P. Pracht,
     J. Seibert, S. Spicher, S. Grimme, WIREs Comput. Mol. Sci., 2020, 11,
     e01493. DOI: 10.1002/wcms.1493
   
   for GFN2-xTB:
   * C. Bannwarth, S. Ehlert and S. Grimme., J. Chem. Theory Comput., 2019,
     15, 1652-1671. DOI: 10.1021/acs.jctc.8b01176
   for GFN1-xTB:
   * S. Grimme, C. Bannwarth, P. Shushkov, J. Chem. Theory Comput., 2017,
     13, 1989-2009. DOI: 10.1021/acs.jctc.7b00118
   for GFN0-xTB:
   * P. Pracht, E. Caldeweyher, S. Ehlert, S. Grimme, ChemRxiv, 2019, preprint.
     DOI: 10.26434/chemrxiv.8326202.v1
   for GFN-FF:
   * S. Spicher and S. Grimme, Angew. Chem. Int. Ed., 2020, 59, 15665-15673.
     DOI: 10.1002/anie.202004239
   
   for ALPB and GBSA implicit solvation:
   * S. Ehlert, M. Stahn, S. Spicher, S. Grimme, J. Chem. Theory Comput.,
     2021, 17, 4250-4261. DOI: 10.1021/acs.jctc.1c00471
   
   for DFT-D4:
   * E. Caldeweyher, C. Bannwarth and S. Grimme, J. Chem. Phys., 2017,
     147, 034112. DOI: 10.1063/1.4993215
   * E. Caldeweyher, S. Ehlert, A. Hansen, H. Neugebauer, S. Spicher,
     C. Bannwarth and S. Grimme, J. Chem. Phys., 2019, 150, 154122.
     DOI: 10.1063/1.5090222
   * E. Caldeweyher, J.-M. Mewes, S. Ehlert and S. Grimme, Phys. Chem. Chem. Phys.
     2020, 22, 8499-8512. DOI: 10.1039/D0CP00502A
   
   for sTDA-xTB:
   * S. Grimme and C. Bannwarth, J. Chem. Phys., 2016, 145, 054103.
     DOI: 10.1063/1.4959605
   
   in the mass-spec context:
   * V. Asgeirsson, C. Bauer and S. Grimme, Chem. Sci., 2017, 8, 4879.
     DOI: 10.1039/c7sc00601b
   * J. Koopman and S. Grimme, ACS Omega 2019, 4, 12, 15120-15133.
     DOI: 10.1021/acsomega.9b02011
   
   for metadynamics refer to:
   * S. Grimme, J. Chem. Theory Comput., 2019, 155, 2847-2862
     DOI: 10.1021/acs.jctc.9b00143
   
   for SPH calculations refer to:
   * S. Spicher and S. Grimme, J. Chem. Theory Comput., 2021, 17, 1701-1714
     DOI: 10.1021/acs.jctc.0c01306
   
   with help from (in alphabetical order)
   P. Atkinson, C. Bannwarth, F. Bohle, G. Brandenburg, E. Caldeweyher
   M. Checinski, S. Dohm, S. Ehlert, S. Ehrlich, I. Gerasimov, C. Hölzer
   A. Katbashev, J. Koopman, C. Lavigne, S. Lehtola, F. März, M. Müller,
   F. Musil, H. Neugebauer, J. Pisarek, C. Plett, P. Pracht, F. Pultar,
   J. Seibert, P. Shushkov, S. Spicher, M. Stahn, M. Steiner, T. Strunk,
   J. Stückrath, T. Rose, and J. Unsleber
   
 * started run on 2023/01/23 at 14:28:09.788     

           -------------------------------------------------
          |                Calculation Setup                |
           -------------------------------------------------

          program call               : xtb init.xyz --opt -c 1 -u 0 -P 16
          hostname                   : gpg-woodward
          coordinate file            : init.xyz
          omp threads                :                    16

   ID    Z sym.   atoms
    1    7 N      1
    2    6 C      2, 3, 5
    3   16 S      4
    4    1 H      6-15

           -------------------------------------------------
          |                 G F N 2 - x T B                 |
           -------------------------------------------------

        Reference                      10.1021/acs.jctc.8b01176
      * Hamiltonian:
        H0-scaling (s, p, d)           1.850000    2.230000    2.230000
        zeta-weighting                 0.500000
      * Dispersion:
        s8                             2.700000
        a1                             0.520000
        a2                             5.000000
        s9                             5.000000
      * Repulsion:
        kExp                           1.500000    1.000000
        rExp                           1.000000
      * Coulomb:
        alpha                          2.000000
        third order                    shell-resolved
        anisotropic                    true
        a3                             3.000000
        a5                             4.000000
        cn-shift                       1.200000
        cn-exp                         4.000000
        max-rad                        5.000000


          ...................................................
          :                      SETUP                      :
          :.................................................:
          :  # basis functions                  36          :
          :  # atomic orbitals                  35          :
          :  # shells                           21          :
          :  # electrons                        32          :
          :  max. iterations                   250          :
          :  Hamiltonian                  GFN2-xTB          :
          :  restarted?                      false          :
          :  GBSA solvation                  false          :
          :  PC potential                    false          :
          :  electronic temp.          300.0000000     K    :
          :  accuracy                    1.0000000          :
          :  -> integral cutoff          0.2500000E+02      :
          :  -> integral neglect         0.1000000E-07      :
          :  -> SCF convergence          0.1000000E-05 Eh   :
          :  -> wf. convergence          0.1000000E-03 e    :
          :  Broyden damping             0.4000000          :
          ...................................................

 iter      E             dE          RMSdq      gap      omega  full diag
   1    -17.3329585 -0.173330E+02  0.470E+00    4.88       0.0  T
   2    -17.4347376 -0.101779E+00  0.252E+00    4.50       1.0  T
   3    -17.4377000 -0.296242E-02  0.134E+00    4.25       1.0  T
   4    -17.4382568 -0.556819E-03  0.387E-01    4.09       1.0  T
   5    -17.4383016 -0.447445E-04  0.182E-01    4.09       1.0  T
   6    -17.4383159 -0.142976E-04  0.422E-02    4.10       1.0  T
   7    -17.4383173 -0.147922E-05  0.252E-02    4.10       1.0  T
   8    -17.4383178 -0.470129E-06  0.654E-03    4.09       3.9  T
   9    -17.4383178 -0.230549E-07  0.187E-03    4.09      13.8  T
  10    -17.4383178 -0.793326E-08  0.898E-04    4.09      28.8  T
  11    -17.4383178 -0.336481E-09  0.366E-04    4.09      70.6  T

   *** convergence criteria satisfied after 11 iterations ***

         #    Occupation            Energy/Eh            Energy/eV
      -------------------------------------------------------------
         1        2.0000           -0.8973779             -24.4189
       ...           ...                  ...                  ...
        10        2.0000           -0.6706600             -18.2496
        11        2.0000           -0.6510667             -17.7164
        12        2.0000           -0.6319125             -17.1952
        13        2.0000           -0.6172951             -16.7975
        14        2.0000           -0.6038853             -16.4326
        15        2.0000           -0.5889449             -16.0260
        16        2.0000           -0.4998474             -13.6015 (HOMO)
        17                         -0.3493749              -9.5070 (LUMO)
        18                         -0.2885731              -7.8525
        19                         -0.2566112              -6.9827
        20                         -0.1629846              -4.4350
        21                         -0.1547075              -4.2098
       ...                                ...                  ...
        35                          0.2803458               7.6286
      -------------------------------------------------------------
                  HL-Gap            0.1504726 Eh            4.0946 eV
             Fermi-level           -0.4246111 Eh          -11.5543 eV

 SCC (total)                   0 d,  0 h,  0 min,  0.014 sec
 SCC setup                      ...        0 min,  0.000 sec (  1.342%)
 Dispersion                     ...        0 min,  0.000 sec (  1.669%)
 classical contributions        ...        0 min,  0.000 sec (  0.667%)
 integral evaluation            ...        0 min,  0.001 sec (  5.897%)
 iterations                     ...        0 min,  0.011 sec ( 76.182%)
 molecular gradient             ...        0 min,  0.002 sec ( 11.185%)
 printout                       ...        0 min,  0.000 sec (  1.152%)

         :::::::::::::::::::::::::::::::::::::::::::::::::::::
         ::                     SUMMARY                     ::
         :::::::::::::::::::::::::::::::::::::::::::::::::::::
         :: total energy             -17.239136801260 Eh    ::
         :: gradient norm              0.025978534450 Eh/a0 ::
         :: HOMO-LUMO gap              4.094567359532 eV    ::
         ::.................................................::
         :: SCC energy               -17.438317834031 Eh    ::
         :: -> isotropic ES            0.113558799825 Eh    ::
         :: -> anisotropic ES         -0.016014559467 Eh    ::
         :: -> anisotropic XC          0.015362941296 Eh    ::
         :: -> dispersion             -0.007364296720 Eh    ::
         :: repulsion energy           0.199171394955 Eh    ::
         :: add. restraining           0.000000000000 Eh    ::
         :: total charge               1.000000000000 e     ::
         :::::::::::::::::::::::::::::::::::::::::::::::::::::

      ----------------------------------------------------------- 
     |                   =====================                   |
     |                        A N C O P T                        |
     |                   =====================                   |
     |               Approximate Normal Coordinate               |
     |                Rational Function Optimizer                |
      ----------------------------------------------------------- 

          ...................................................
          :                      SETUP                      :
          :.................................................:
          :   optimization level            normal          :
          :   max. optcycles                   200          :
          :   ANC micro-cycles                  20          :
          :   degrees of freedom                39          :
          :.................................................:
          :   RF solver                   davidson          :
          :   write xtbopt.log                true          :
          :   linear?                        false          :
          :   energy convergence         0.5000000E-05 Eh   :
          :   grad. convergence          0.1000000E-02 Eh/α :
          :   maximium RF displ.         1.0000000          :
          :   Hlow (freq-cutoff)         0.1000000E-01      :
          :   Hmax (freq-cutoff)         5.0000000          :
          :   S6 in model hess.         20.0000000          :
          ...................................................

generating ANC from model Hessian ...
Using Lindh-Hessian (1995)
 Shifting diagonal of input Hessian by    8.5196236230863139E-003
 Lowest  eigenvalues of input Hessian
    0.000000    0.000000    0.000000    0.000000    0.000000    0.000000
    0.010000    0.011125    0.012625    0.014880    0.016658    0.023285
    0.030419    0.054458    0.057547    0.059006    0.062788    0.066818
 Highest eigenvalues
    1.086354    1.132449    1.191660    1.358137    1.412974    1.435995


........................................................................
.............................. CYCLE    1 ..............................
........................................................................
   1    -17.4383178 -0.174383E+02  0.845E-05    4.09       0.0  T
   2    -17.4383178 -0.541789E-11  0.518E-05    4.09     498.6  T
   3    -17.4383178 -0.969891E-12  0.182E-05    4.09    1415.0  T
     SCC iter.                  ...        0 min,  0.003 sec
     gradient                   ...        0 min,  0.002 sec
 * total energy  :   -17.2391368 Eh     change       -0.2036309E-09 Eh
   gradient norm :     0.0259785 Eh/α   predicted     0.0000000E+00 (-100.00%)
   displ. norm   :     0.2078313 α      lambda       -0.2369602E-02
   maximum displ.:     0.1050543 α      in ANC's #2, #4, #11, ...

........................................................................
.............................. CYCLE    2 ..............................
........................................................................
   1    -17.4433163 -0.174433E+02  0.180E-01    4.09       0.0  T
   2    -17.4433370 -0.206938E-04  0.111E-01    4.09       1.0  T
   3    -17.4433360  0.104888E-05  0.411E-02    4.09       1.0  T
   4    -17.4433407 -0.475796E-05  0.110E-02    4.09       2.4  T
   5    -17.4433408 -0.875827E-07  0.201E-03    4.09      12.8  T
   6    -17.4433408 -0.249007E-08  0.133E-03    4.09      19.5  T
   7    -17.4433408 -0.165647E-08  0.409E-04    4.09      63.1  T
   8    -17.4433408 -0.714060E-10  0.122E-04    4.09     211.8  T
     SCC iter.                  ...        0 min,  0.007 sec
     gradient                   ...        0 min,  0.002 sec
 * total energy  :   -17.2406879 Eh     change       -0.1551138E-02 Eh
   gradient norm :     0.0109493 Eh/α   predicted    -0.1235978E-02 ( -20.32%)
   displ. norm   :     0.2034501 α      lambda       -0.6831140E-03
   maximum displ.:     0.1293123 α      in ANC's #2, #3, #4, ...

........................................................................
.............................. CYCLE    3 ..............................
........................................................................
   1    -17.4455275 -0.174455E+02  0.110E-01    4.05       0.0  T
   2    -17.4455354 -0.798545E-05  0.642E-02    4.05       1.0  T
   3    -17.4455358 -0.351480E-06  0.238E-02    4.05       1.1  T
   4    -17.4455369 -0.112027E-05  0.753E-03    4.05       3.4  T
   5    -17.4455369 -0.227018E-07  0.206E-03    4.05      12.5  T
   6    -17.4455369 -0.301779E-08  0.110E-03    4.05      23.4  T
   7    -17.4455369 -0.937945E-09  0.435E-04    4.05      59.3  T
   8    -17.4455369 -0.161439E-09  0.969E-05    4.05     266.4  T
     SCC iter.                  ...        0 min,  0.007 sec
     gradient                   ...        0 min,  0.002 sec
 * total energy  :   -17.2411192 Eh     change       -0.4312926E-03 Eh
   gradient norm :     0.0042541 Eh/α   predicted    -0.3556944E-03 ( -17.53%)
   displ. norm   :     0.1347857 α      lambda       -0.1857981E-03
   maximum displ.:     0.0867660 α      in ANC's #2, #3, #1, ...

........................................................................
.............................. CYCLE    4 ..............................
........................................................................
   1    -17.4458027 -0.174458E+02  0.651E-02    4.04       0.0  T
   2    -17.4458057 -0.294574E-05  0.368E-02    4.04       1.0  T
   3    -17.4458059 -0.189638E-06  0.130E-02    4.04       2.0  T
   4    -17.4458061 -0.281953E-06  0.454E-03    4.04       5.7  T
   5    -17.4458062 -0.139097E-07  0.170E-03    4.04      15.2  T
   6    -17.4458062 -0.188590E-08  0.783E-04    4.04      33.0  T
   7    -17.4458062 -0.469448E-09  0.322E-04    4.04      80.2  T
     SCC iter.                  ...        0 min,  0.006 sec
     gradient                   ...        0 min,  0.002 sec
 * total energy  :   -17.2412503 Eh     change       -0.1310484E-03 Eh
   gradient norm :     0.0034645 Eh/α   predicted    -0.9458440E-04 ( -27.82%)
   displ. norm   :     0.1355746 α      lambda       -0.1321251E-03
   maximum displ.:     0.0753013 α      in ANC's #2, #1, #6, ...

........................................................................
.............................. CYCLE    5 ..............................
........................................................................
   1    -17.4456023 -0.174456E+02  0.581E-02    4.03       0.0  T
   2    -17.4456040 -0.169400E-05  0.330E-02    4.03       1.0  T
   3    -17.4456041 -0.884082E-07  0.867E-03    4.03       3.0  T
   4    -17.4456043 -0.130063E-06  0.299E-03    4.03       8.6  T
   5    -17.4456043 -0.927355E-08  0.116E-03    4.03      22.2  T
   6    -17.4456043 -0.853042E-09  0.577E-04    4.03      44.7  T
   7    -17.4456043 -0.234472E-09  0.255E-04    4.03     101.3  T
     SCC iter.                  ...        0 min,  0.006 sec
     gradient                   ...        0 min,  0.001 sec
 * total energy  :   -17.2413486 Eh     change       -0.9833753E-04 Eh
   gradient norm :     0.0030196 Eh/α   predicted    -0.6727736E-04 ( -31.59%)
   displ. norm   :     0.1812929 α      lambda       -0.1414675E-03
   maximum displ.:     0.0973852 α      in ANC's #1, #6, #2, ...

........................................................................
.............................. CYCLE    6 ..............................
........................................................................
   1    -17.4450420 -0.174450E+02  0.833E-02    4.04       0.0  T
   2    -17.4450439 -0.193994E-05  0.449E-02    4.04       1.0  T
   3    -17.4450441 -0.202931E-06  0.839E-03    4.04       3.1  T
   4    -17.4450442 -0.703160E-07  0.386E-03    4.04       6.7  T
   5    -17.4450442 -0.101832E-07  0.922E-04    4.04      28.0  T
   6    -17.4450442 -0.120561E-08  0.391E-04    4.04      66.0  T
     SCC iter.                  ...        0 min,  0.005 sec
     gradient                   ...        0 min,  0.001 sec
 * total energy  :   -17.2414580 Eh     change       -0.1094224E-03 Eh
   gradient norm :     0.0034052 Eh/α   predicted    -0.7306015E-04 ( -33.23%)
   displ. norm   :     0.2762723 α      lambda       -0.1902548E-03
   maximum displ.:     0.1611688 α      in ANC's #1, #6, #5, ...

........................................................................
.............................. CYCLE    7 ..............................
........................................................................
   1    -17.4436979 -0.174437E+02  0.154E-01    4.06       0.0  T
   2    -17.4437024 -0.453392E-05  0.783E-02    4.06       1.0  T
   3    -17.4437032 -0.831616E-06  0.137E-02    4.07       1.9  T
   4    -17.4437033 -0.197543E-07  0.345E-03    4.07       7.5  T
   5    -17.4437033 -0.982796E-08  0.981E-04    4.07      26.3  T
   6    -17.4437033 -0.103665E-08  0.379E-04    4.07      68.1  T
     SCC iter.                  ...        0 min,  0.005 sec
     gradient                   ...        0 min,  0.001 sec
 * total energy  :   -17.2416029 Eh     change       -0.1448446E-03 Eh
   gradient norm :     0.0048046 Eh/α   predicted    -0.1023868E-03 ( -29.31%)
   displ. norm   :     0.3169559 α      lambda       -0.2217703E-03
   maximum displ.:     0.2076920 α      in ANC's #1, #6, #5, ...

........................................................................
.............................. CYCLE    8 ..............................
........................................................................
   1    -17.4425334 -0.174425E+02  0.209E-01    4.09       0.0  T
   2    -17.4425419 -0.846992E-05  0.103E-01    4.10       1.0  T
   3    -17.4425434 -0.157078E-05  0.190E-02    4.10       1.4  T
   4    -17.4425435 -0.357834E-07  0.793E-03    4.10       3.3  T
   5    -17.4425436 -0.988522E-07  0.195E-03    4.10      13.2  T
   6    -17.4425436 -0.152384E-08  0.901E-04    4.10      28.7  T
   7    -17.4425436 -0.439030E-09  0.351E-04    4.10      73.6  T
     SCC iter.                  ...        0 min,  0.006 sec
     gradient                   ...        0 min,  0.001 sec
 * total energy  :   -17.2417594 Eh     change       -0.1565499E-03 Eh
   gradient norm :     0.0057824 Eh/α   predicted    -0.1220230E-03 ( -22.05%)
   displ. norm   :     0.2150074 α      lambda       -0.1946749E-03
   maximum displ.:     0.1647459 α      in ANC's #1, #6, #5, ...

........................................................................
.............................. CYCLE    9 ..............................
........................................................................
   1    -17.4439515 -0.174440E+02  0.147E-01    4.12       0.0  T
   2    -17.4439569 -0.536553E-05  0.708E-02    4.12       1.0  T
   3    -17.4439577 -0.756490E-06  0.146E-02    4.12       1.8  T
   4    -17.4439578 -0.101723E-06  0.711E-03    4.12       3.6  T
   5    -17.4439578 -0.458175E-07  0.180E-03    4.12      14.3  T
   6    -17.4439578 -0.171142E-08  0.822E-04    4.12      31.4  T
   7    -17.4439578 -0.424176E-09  0.353E-04    4.12      73.1  T
     SCC iter.                  ...        0 min,  0.006 sec
     gradient                   ...        0 min,  0.001 sec
 * total energy  :   -17.2418956 Eh     change       -0.1361317E-03 Eh
   gradient norm :     0.0036437 Eh/α   predicted    -0.1018376E-03 ( -25.19%)
   displ. norm   :     0.2717178 α      lambda       -0.1639259E-03
   maximum displ.:     0.2063432 α      in ANC's #1, #6, #5, ...

........................................................................
.............................. CYCLE   10 ..............................
........................................................................
   1    -17.4432266 -0.174432E+02  0.146E-01    4.14       0.0  T
   2    -17.4432350 -0.830379E-05  0.738E-02    4.15       1.0  T
   3    -17.4432361 -0.113852E-05  0.166E-02    4.15       1.6  T
   4    -17.4432361 -0.442049E-07  0.543E-03    4.15       4.8  T
   5    -17.4432361 -0.917631E-08  0.175E-03    4.15      14.8  T
   6    -17.4432361 -0.294233E-08  0.782E-04    4.15      33.0  T
   7    -17.4432361 -0.287759E-09  0.288E-04    4.15      89.7  T
     SCC iter.                  ...        0 min,  0.006 sec
     gradient                   ...        0 min,  0.001 sec
 * total energy  :   -17.2419787 Eh     change       -0.8317560E-04 Eh
   gradient norm :     0.0051936 Eh/α   predicted    -0.8801390E-04 (   5.82%)
   displ. norm   :     0.0967720 α      lambda       -0.1292679E-03
   maximum displ.:     0.0820486 α      in ANC's #1, #4, #2, ...

........................................................................
.............................. CYCLE   11 ..............................
........................................................................
   1    -17.4466123 -0.174466E+02  0.542E-02    4.17       0.0  T
   2    -17.4466135 -0.127202E-05  0.269E-02    4.17       1.0  T
   3    -17.4466137 -0.124088E-06  0.596E-03    4.17       4.3  T
   4    -17.4466137 -0.806072E-08  0.194E-03    4.17      13.3  T
   5    -17.4466137 -0.157285E-08  0.465E-04    4.17      55.5  T
   6    -17.4466137 -0.285759E-09  0.189E-04    4.17     136.4  T
     SCC iter.                  ...        0 min,  0.005 sec
     gradient                   ...        0 min,  0.001 sec
 * total energy  :   -17.2420364 Eh     change       -0.5764759E-04 Eh
   gradient norm :     0.0044247 Eh/α   predicted    -0.6523813E-04 (  13.17%)
   displ. norm   :     0.1041035 α      lambda       -0.6800795E-04
   maximum displ.:     0.0942731 α      in ANC's #1, #6, #4, ...

........................................................................
.............................. CYCLE   12 ..............................
........................................................................
   1    -17.4457585 -0.174458E+02  0.737E-02    4.17       0.0  T
   2    -17.4457597 -0.119206E-05  0.362E-02    4.18       1.0  T
   3    -17.4457599 -0.213418E-06  0.687E-03    4.18       3.8  T
   4    -17.4457599 -0.806948E-08  0.287E-03    4.18       9.0  T
   5    -17.4457599 -0.103484E-07  0.632E-04    4.18      40.9  T
   6    -17.4457599 -0.249059E-09  0.297E-04    4.18      87.0  T
     SCC iter.                  ...        0 min,  0.005 sec
     gradient                   ...        0 min,  0.001 sec
 * total energy  :   -17.2420931 Eh     change       -0.5666432E-04 Eh
   gradient norm :     0.0035633 Eh/α   predicted    -0.3437201E-04 ( -39.34%)
   displ. norm   :     0.0913591 α      lambda       -0.7222425E-04
   maximum displ.:     0.0849438 α      in ANC's #1, #3, #4, ...

........................................................................
.............................. CYCLE   13 ..............................
........................................................................
   1    -17.4448952 -0.174449E+02  0.484E-02    4.18       0.0  T
   2    -17.4448958 -0.613900E-06  0.250E-02    4.19       1.0  T
   3    -17.4448959 -0.997234E-07  0.467E-03    4.19       5.5  T
   4    -17.4448959 -0.304539E-08  0.129E-03    4.19      19.9  T
   5    -17.4448959 -0.160799E-08  0.400E-04    4.19      64.5  T
   6    -17.4448959 -0.281872E-09  0.121E-04    4.19     213.1  T
     SCC iter.                  ...        0 min,  0.005 sec
     gradient                   ...        0 min,  0.001 sec
 * total energy  :   -17.2421519 Eh     change       -0.5883746E-04 Eh
   gradient norm :     0.0020110 Eh/α   predicted    -0.3641183E-04 ( -38.11%)
   displ. norm   :     0.1116114 α      lambda       -0.6707498E-04
   maximum displ.:     0.1004156 α      in ANC's #1, #2, #3, ...

........................................................................
.............................. CYCLE   14 ..............................
........................................................................
   1    -17.4444794 -0.174445E+02  0.544E-02    4.20       0.0  T
   2    -17.4444801 -0.739027E-06  0.272E-02    4.20       1.0  T
   3    -17.4444802 -0.122828E-06  0.510E-03    4.20       5.1  T
   4    -17.4444803 -0.425963E-08  0.194E-03    4.20      13.3  T
   5    -17.4444803 -0.482197E-08  0.422E-04    4.20      61.2  T
   6    -17.4444803 -0.309189E-09  0.120E-04    4.20     215.5  T
     SCC iter.                  ...        0 min,  0.005 sec
     gradient                   ...        0 min,  0.001 sec
 * total energy  :   -17.2422097 Eh     change       -0.5777651E-04 Eh
   gradient norm :     0.0020130 Eh/α   predicted    -0.3395495E-04 ( -41.23%)
   displ. norm   :     0.1257758 α      lambda       -0.6660720E-04
   maximum displ.:     0.1104347 α      in ANC's #1, #2, #6, ...

........................................................................
.............................. CYCLE   15 ..............................
........................................................................
   1    -17.4442423 -0.174442E+02  0.592E-02    4.21       0.0  T
   2    -17.4442432 -0.865971E-06  0.291E-02    4.21       1.0  T
   3    -17.4442433 -0.145005E-06  0.562E-03    4.21       4.6  T
   4    -17.4442433 -0.303393E-08  0.162E-03    4.21      16.0  T
   5    -17.4442433 -0.247180E-08  0.406E-04    4.21      63.6  T
   6    -17.4442433 -0.295742E-09  0.146E-04    4.21     176.9  T
     SCC iter.                  ...        0 min,  0.005 sec
     gradient                   ...        0 min,  0.001 sec
 * total energy  :   -17.2422692 Eh     change       -0.5956494E-04 Eh
   gradient norm :     0.0025182 Eh/α   predicted    -0.3382950E-04 ( -43.21%)
   displ. norm   :     0.1348228 α      lambda       -0.6974017E-04
   maximum displ.:     0.1176475 α      in ANC's #1, #2, #6, ...

........................................................................
.............................. CYCLE   16 ..............................
........................................................................
   1    -17.4441443 -0.174441E+02  0.675E-02    4.22       0.0  T
   2    -17.4441454 -0.108172E-05  0.325E-02    4.22       1.0  T
   3    -17.4441455 -0.182671E-06  0.646E-03    4.23       4.0  T
   4    -17.4441456 -0.615240E-08  0.245E-03    4.23      10.6  T
   5    -17.4441456 -0.492389E-08  0.494E-04    4.23      52.3  T
   6    -17.4441456 -0.189399E-09  0.261E-04    4.23      99.0  T
     SCC iter.                  ...        0 min,  0.005 sec
     gradient                   ...        0 min,  0.001 sec
 * total energy  :   -17.2423326 Eh     change       -0.6341252E-04 Eh
   gradient norm :     0.0026220 Eh/α   predicted    -0.3550255E-04 ( -44.01%)
   displ. norm   :     0.1537940 α      lambda       -0.7866295E-04
   maximum displ.:     0.1365455 α      in ANC's #1, #2, #4, ...

........................................................................
.............................. CYCLE   17 ..............................
........................................................................
   1    -17.4441039 -0.174441E+02  0.815E-02    4.23       0.0  T
   2    -17.4441056 -0.169881E-05  0.391E-02    4.24       1.0  T
   3    -17.4441058 -0.258222E-06  0.840E-03    4.24       3.1  T
   4    -17.4441059 -0.247363E-07  0.386E-03    4.24       6.7  T
   5    -17.4441059 -0.129192E-07  0.852E-04    4.24      30.3  T
   6    -17.4441059 -0.553907E-09  0.449E-04    4.24      57.5  T
     SCC iter.                  ...        0 min,  0.005 sec
     gradient                   ...        0 min,  0.001 sec
 * total energy  :   -17.2424035 Eh     change       -0.7087473E-04 Eh
   gradient norm :     0.0022159 Eh/α   predicted    -0.4026080E-04 ( -43.19%)
   displ. norm   :     0.1784762 α      lambda       -0.8434471E-04
   maximum displ.:     0.1626462 α      in ANC's #1, #2, #4, ...

........................................................................
.............................. CYCLE   18 ..............................
........................................................................
   1    -17.4440394 -0.174440E+02  0.983E-02    4.25       0.0  T
   2    -17.4440420 -0.261717E-05  0.472E-02    4.25       1.0  T
   3    -17.4440424 -0.376903E-06  0.105E-02    4.25       2.5  T
   4    -17.4440424 -0.504469E-07  0.501E-03    4.25       5.2  T
   5    -17.4440424 -0.218810E-07  0.117E-03    4.25      22.0  T
   6    -17.4440424 -0.941910E-09  0.602E-04    4.25      42.9  T
   7    -17.4440424 -0.231648E-09  0.231E-04    4.25     111.8  T
     SCC iter.                  ...        0 min,  0.006 sec
     gradient                   ...        0 min,  0.001 sec
 * total energy  :   -17.2424779 Eh     change       -0.7442323E-04 Eh
   gradient norm :     0.0015859 Eh/α   predicted    -0.4351545E-04 ( -41.53%)
   displ. norm   :     0.3124544 α      lambda       -0.8480457E-04
   maximum displ.:     0.2912686 α      in ANC's #1, #2, #4, ...

........................................................................
.............................. CYCLE   19 ..............................
........................................................................
   1    -17.4435277 -0.174435E+02  0.170E-01    4.27       0.0  T
   2    -17.4435363 -0.861177E-05  0.825E-02    4.27       1.0  T
   3    -17.4435374 -0.116014E-05  0.191E-02    4.28       1.4  T
   4    -17.4435376 -0.173854E-06  0.906E-03    4.28       2.9  T
   5    -17.4435377 -0.782419E-07  0.227E-03    4.28      11.4  T
   6    -17.4435377 -0.295799E-08  0.110E-03    4.28      23.5  T
   7    -17.4435377 -0.759321E-09  0.437E-04    4.28      59.1  T
   8    -17.4435377 -0.151815E-09  0.136E-04    4.28     189.2  T
     SCC iter.                  ...        0 min,  0.006 sec
     gradient                   ...        0 min,  0.001 sec
 * total energy  :   -17.2425782 Eh     change       -0.1002684E-03 Eh
   gradient norm :     0.0023567 Eh/α   predicted    -0.4424075E-04 ( -55.88%)
   displ. norm   :     0.3063662 α      lambda       -0.9573330E-04
   maximum displ.:     0.2903473 α      in ANC's #1, #2, #4, ...

........................................................................
.............................. CYCLE   20 ..............................
........................................................................
   1    -17.4428681 -0.174429E+02  0.159E-01    4.30       0.0  T
   2    -17.4428770 -0.887910E-05  0.783E-02    4.31       1.0  T
   3    -17.4428781 -0.111562E-05  0.185E-02    4.31       1.4  T
   4    -17.4428782 -0.130116E-06  0.848E-03    4.31       3.0  T
   5    -17.4428783 -0.775102E-07  0.237E-03    4.31      10.9  T
   6    -17.4428783 -0.272475E-08  0.106E-03    4.31      24.5  T
   7    -17.4428783 -0.661174E-09  0.430E-04    4.31      60.0  T
   8    -17.4428783 -0.156767E-09  0.139E-04    4.31     185.8  T
     SCC iter.                  ...        0 min,  0.006 sec
     gradient                   ...        0 min,  0.001 sec
 * total energy  :   -17.2426505 Eh     change       -0.7225010E-04 Eh
   gradient norm :     0.0036543 Eh/α   predicted    -0.5235756E-04 ( -27.53%)
   displ. norm   :     0.3046853 α      lambda       -0.8296313E-04
   maximum displ.:     0.2879571 α      in ANC's #1, #27, #4, ...
 * RMSD in coord.:     0.7924134 α      energy gain  -0.3513661E-02 Eh

generating ANC from model Hessian ...
Using Lindh-Hessian (1995)
 Shifting diagonal of input Hessian by    8.3680585818364708E-003
 Lowest  eigenvalues of input Hessian
    0.000000    0.000000    0.000000    0.000000    0.000000    0.000000
    0.010000    0.011738    0.012820    0.016406    0.022471    0.025913
    0.030397    0.054535    0.055853    0.058867    0.063023    0.066813
 Highest eigenvalues
    1.130922    1.143586    1.203010    1.280205    1.413611    1.447607


........................................................................
.............................. CYCLE   21 ..............................
........................................................................
   1    -17.4425870 -0.174426E+02  0.156E-01    4.34       0.0  T
   2    -17.4425967 -0.965687E-05  0.777E-02    4.34       1.0  T
   3    -17.4425978 -0.110625E-05  0.185E-02    4.35       1.4  T
   4    -17.4425979 -0.120231E-06  0.816E-03    4.35       3.2  T
   5    -17.4425980 -0.709089E-07  0.245E-03    4.35      10.5  T
   6    -17.4425980 -0.306180E-08  0.104E-03    4.35      24.9  T
   7    -17.4425980 -0.627885E-09  0.432E-04    4.35      59.8  T
   8    -17.4425980 -0.146265E-09  0.141E-04    4.35     182.6  T
     SCC iter.                  ...        0 min,  0.005 sec
     gradient                   ...        0 min,  0.001 sec
 * total energy  :   -17.2427099 Eh     change       -0.5946758E-04 Eh
   gradient norm :     0.0042776 Eh/α   predicted     0.0000000E+00 (-100.00%)
   displ. norm   :     0.0342299 α      lambda       -0.4790800E-04
   maximum displ.:     0.0197697 α      in ANC's #3, #1, #2, ...

........................................................................
.............................. CYCLE   22 ..............................
........................................................................
   1    -17.4436455 -0.174436E+02  0.217E-02    4.36       0.0  T
   2    -17.4436457 -0.192338E-06  0.122E-02    4.36       2.1  T
   3    -17.4436457 -0.982822E-08  0.362E-03    4.36       7.1  T
   4    -17.4436457 -0.307825E-07  0.172E-03    4.36      15.0  T
   5    -17.4436457 -0.973234E-09  0.458E-04    4.36      56.4  T
   6    -17.4436457 -0.117875E-09  0.274E-04    4.36      94.4  T
     SCC iter.                  ...        0 min,  0.004 sec
     gradient                   ...        0 min,  0.001 sec
 * total energy  :   -17.2427445 Eh     change       -0.3452201E-04 Eh
   gradient norm :     0.0020503 Eh/α   predicted    -0.2398288E-04 ( -30.53%)
   displ. norm   :     0.0575552 α      lambda       -0.3352210E-04
   maximum displ.:     0.0335028 α      in ANC's #1, #2, #3, ...

........................................................................
.............................. CYCLE   23 ..............................
........................................................................
   1    -17.4443846 -0.174444E+02  0.282E-02    4.37       0.0  T
   2    -17.4443848 -0.189855E-06  0.156E-02    4.37       1.7  T
   3    -17.4443848 -0.240112E-07  0.265E-03    4.37       9.7  T
   4    -17.4443848 -0.719531E-08  0.119E-03    4.37      21.7  T
   5    -17.4443848 -0.123206E-08  0.346E-04    4.37      74.5  T
   6    -17.4443848 -0.152085E-09  0.157E-04    4.37     164.3  T
     SCC iter.                  ...        0 min,  0.004 sec
     gradient                   ...        0 min,  0.001 sec
 * total energy  :   -17.2427649 Eh     change       -0.2047756E-04 Eh
   gradient norm :     0.0010450 Eh/α   predicted    -0.1681595E-04 ( -17.88%)
   displ. norm   :     0.0652760 α      lambda       -0.1083970E-04
   maximum displ.:     0.0403928 α      in ANC's #2, #1, #3, ...

........................................................................
.............................. CYCLE   24 ..............................
........................................................................
   1    -17.4442111 -0.174442E+02  0.344E-02    4.38       0.0  T
   2    -17.4442113 -0.222624E-06  0.178E-02    4.38       1.4  T
   3    -17.4442113 -0.443632E-07  0.296E-03    4.38       8.7  T
   4    -17.4442114 -0.226891E-08  0.116E-03    4.38      22.3  T
   5    -17.4442114 -0.194093E-08  0.226E-04    4.38     114.1  T
   6    -17.4442114 -0.102311E-09  0.862E-05    4.38     299.5  T
     SCC iter.                  ...        0 min,  0.004 sec
     gradient                   ...        0 min,  0.001 sec
 * total energy  :   -17.2427764 Eh     change       -0.1144574E-04 Eh
   gradient norm :     0.0015801 Eh/α   predicted    -0.5430848E-05 ( -52.55%)
   displ. norm   :     0.0658138 α      lambda       -0.1038192E-04
   maximum displ.:     0.0445714 α      in ANC's #2, #1, #3, ...

........................................................................
.............................. CYCLE   25 ..............................
........................................................................
   1    -17.4437445 -0.174437E+02  0.329E-02    4.38       0.0  T
   2    -17.4437449 -0.359721E-06  0.176E-02    4.39       1.5  T
   3    -17.4437449 -0.402369E-07  0.379E-03    4.39       6.8  T
   4    -17.4437449 -0.114985E-07  0.179E-03    4.39      14.4  T
   5    -17.4437449 -0.406498E-08  0.593E-04    4.39      43.5  T
   6    -17.4437449 -0.124221E-09  0.224E-04    4.39     115.5  T
     SCC iter.                  ...        0 min,  0.004 sec
     gradient                   ...        0 min,  0.001 sec
 * total energy  :   -17.2427893 Eh     change       -0.1295347E-04 Eh
   gradient norm :     0.0013532 Eh/α   predicted    -0.5199705E-05 ( -59.86%)
   displ. norm   :     0.0920924 α      lambda       -0.1281846E-04
   maximum displ.:     0.0624959 α      in ANC's #1, #2, #5, ...

........................................................................
.............................. CYCLE   26 ..............................
........................................................................
   1    -17.4433949 -0.174434E+02  0.472E-02    4.40       0.0  T
   2    -17.4433958 -0.939938E-06  0.249E-02    4.40       1.0  T
   3    -17.4433959 -0.105428E-06  0.553E-03    4.40       4.7  T
   4    -17.4433959 -0.136676E-07  0.254E-03    4.40      10.2  T
   5    -17.4433960 -0.853506E-08  0.928E-04    4.40      27.8  T
   6    -17.4433960 -0.349157E-09  0.342E-04    4.40      75.5  T
     SCC iter.                  ...        0 min,  0.004 sec
     gradient                   ...        0 min,  0.001 sec
 * total energy  :   -17.2428043 Eh     change       -0.1494975E-04 Eh
   gradient norm :     0.0008333 Eh/α   predicted    -0.6433221E-05 ( -56.97%)
   displ. norm   :     0.0992619 α      lambda       -0.9405145E-05
   maximum displ.:     0.0698403 α      in ANC's #1, #2, #5, ...

........................................................................
.............................. CYCLE   27 ..............................
........................................................................
   1    -17.4433407 -0.174433E+02  0.478E-02    4.41       0.0  T
   2    -17.4433420 -0.129495E-05  0.258E-02    4.41       1.0  T
   3    -17.4433421 -0.108344E-06  0.616E-03    4.41       4.2  T
   4    -17.4433422 -0.196945E-07  0.275E-03    4.41       9.4  T
   5    -17.4433422 -0.109457E-07  0.110E-03    4.41      23.4  T
   6    -17.4433422 -0.445809E-09  0.361E-04    4.41      71.6  T
   7    -17.4433422 -0.597034E-10  0.131E-04    4.41     196.9  T
     SCC iter.                  ...        0 min,  0.005 sec
     gradient                   ...        0 min,  0.001 sec
 * total energy  :   -17.2428142 Eh     change       -0.9895001E-05 Eh
   gradient norm :     0.0006008 Eh/α   predicted    -0.4722146E-05 ( -52.28%)
   displ. norm   :     0.0648148 α      lambda       -0.4123011E-05
   maximum displ.:     0.0486043 α      in ANC's #1, #2, #5, ...

........................................................................
.............................. CYCLE   28 ..............................
........................................................................
   1    -17.4433644 -0.174434E+02  0.340E-02    4.42       0.0  T
   2    -17.4433648 -0.438322E-06  0.173E-02    4.42       1.5  T
   3    -17.4433649 -0.552968E-07  0.365E-03    4.42       7.1  T
   4    -17.4433649 -0.431865E-08  0.154E-03    4.42      16.8  T
   5    -17.4433649 -0.156693E-08  0.448E-04    4.42      57.7  T
   6    -17.4433649 -0.173735E-09  0.201E-04    4.42     128.7  T
     SCC iter.                  ...        0 min,  0.004 sec
     gradient                   ...        0 min,  0.001 sec
 * total energy  :   -17.2428186 Eh     change       -0.4392462E-05 Eh
   gradient norm :     0.0005483 Eh/α   predicted    -0.2066307E-05 ( -52.96%)
   displ. norm   :     0.0365621 α      lambda       -0.2152886E-05
   maximum displ.:     0.0297746 α      in ANC's #1, #2, #4, ...

   *** GEOMETRY OPTIMIZATION CONVERGED AFTER 28 ITERATIONS ***

------------------------------------------------------------------------
 total energy gain   :        -0.0036818 Eh       -2.3103 kcal/mol
 total RMSD          :         0.8890343 a0        0.4705 Å
 total power (kW/mol):        -0.3452311 (step)  -44.5809 (real)
------------------------------------------------------------------------

 ANCopt (total)                0 d,  0 h,  0 min,  0.217 sec
 optimizer setup                ...        0 min,  0.000 sec (  0.051%)
 model hessian                  ...        0 min,  0.006 sec (  2.658%)
 ANC generation                 ...        0 min,  0.001 sec (  0.606%)
 coordinate transformation      ...        0 min,  0.001 sec (  0.280%)
 single point calculation       ...        0 min,  0.199 sec ( 91.896%)
 optimization log               ...        0 min,  0.002 sec (  1.107%)
 hessian update                 ...        0 min,  0.001 sec (  0.353%)
 rational function              ...        0 min,  0.004 sec (  1.645%)

================
 final structure:
================
15
 xtb: 6.5.1 (fef0646)
N            3.12507290494139        1.31958624919084        0.00366849643501
C            2.35311038182511        0.04935587023472        0.05601026858845
C            2.90193535294578       -0.87405447362131       -1.02505924068744
S            4.74701132807822       -0.88224750018696       -0.87165617382890
C            5.22831233934174       -0.94508300832506       -2.61647676134530
H            3.12961788211709        1.82186875843688        0.89516987876842
H            2.78747969079896        1.94718136201724       -0.73231350640060
H            4.10987064411821        0.96354589679589       -0.24737770151596
H            1.28784590011928        0.23431226647730       -0.08578481578126
H            2.50716032512010       -0.40613629068937        1.03531393209547
H            2.65204499277814       -0.52225730291711       -2.02503233349613
H            2.52194173395704       -1.88502959689579       -0.89559626749577
H            6.31323715765423       -0.91079215756623       -2.63237136959709
H            4.82044990223438       -0.09478760898999       -3.15415327039087
H            4.88499946397003       -1.88222246396086       -3.04369113534824

 Bond Distances (Angstroems)
 ---------------------------
N1-C2=1.4873         N1-H6=1.0233         N1-H7=1.0245         N1-H8=1.0769         C2-N1=1.4873         C2-C3=1.5240         
C2-H9=1.0905         C2-H10=1.0910        C3-C2=1.5240         C3-S4=1.8515         C3-H11=1.0891        C3-H12=1.0878        
S4-C3=1.8515         S4-C5=1.8111         C5-S4=1.8111         C5-H13=1.0856        C5-H14=1.0856        C5-H15=1.0856        
H6-N1=1.0233         H7-N1=1.0245         H8-N1=1.0769         H9-C2=1.0905         H10-C2=1.0910        H11-C3=1.0891        
H12-C3=1.0878        H13-C5=1.0856        H14-C5=1.0856        H15-C5=1.0856        
 C  H  Rav=1.0879 sigma=0.0022  Rmin=1.0856  Rmax=1.0910     7
 C  C  Rav=1.5240 sigma=0.0000  Rmin=1.5240  Rmax=1.5240     1
 N  H  Rav=1.0415 sigma=0.0250  Rmin=1.0233  Rmax=1.0769     3
 N  C  Rav=1.4873 sigma=0.0000  Rmin=1.4873  Rmax=1.4873     1
 S  C  Rav=1.8313 sigma=0.0202  Rmin=1.8111  Rmax=1.8515     2

 selected bond angles (degree)
 --------------------
H6-N1-C2=113.01                H7-N1-C2=112.18                H7-N1-H6=109.07                H8-N1-C2=101.57                
H8-N1-H6=111.18                H8-N1-H7=109.66                C3-C2-N1=107.79                H9-C2-N1=110.95                
H9-C2-C3=111.24                H10-C2-N1=108.35               H10-C2-C3=109.45               H10-C2-H9=108.99               
S4-C3-C2=107.62                H11-C3-C2=111.90               H11-C3-S4=107.83               H12-C3-C2=110.67               
H12-C3-S4=109.52               H12-C3-H11=109.23              C5-S4-C3=100.67                H13-C5-S4=106.18               
H14-C5-S4=110.50               H14-C5-H13=110.09              H15-C5-S4=108.97               H15-C5-H13=109.73              
H15-C5-H14=111.25              

 selected dihedral angles (degree)
 ---------------------------------
C3-C2-N1-H6=204.99            C3-C2-N1-H7= 81.19            C3-C2-N1-H8=324.17            H9-C2-N1-H6= 82.96            
H9-C2-N1-H7=319.16            H9-C2-N1-H8=202.14            H10-C2-N1-H6=323.34           H10-C2-N1-H7=199.54           
H10-C2-N1-H8= 82.52           S4-C3-C2-N1= 48.35            S4-C3-C2-H9=170.20            S4-C3-C2-H10=290.71           
H11-C3-C2-N1=290.06           H11-C3-C2-H9= 51.91           H11-C3-C2-H10=172.42          H12-C3-C2-N1=167.99           
H12-C3-C2-H9=289.84           H12-C3-C2-H10= 50.35          C5-S4-C3-C2=217.40            C5-S4-C3-H11=338.28           
C5-S4-C3-H12= 97.03           H13-C5-S4-C3=177.65           H14-C5-S4-C3= 58.30           H15-C5-S4-C3=295.77           
           -------------------------------------------------
          |                Final Singlepoint                |
           -------------------------------------------------

          ...................................................
          :                      SETUP                      :
          :.................................................:
          :  # basis functions                  36          :
          :  # atomic orbitals                  35          :
          :  # shells                           21          :
          :  # electrons                        32          :
          :  max. iterations                   250          :
          :  Hamiltonian                  GFN2-xTB          :
          :  restarted?                      false          :
          :  GBSA solvation                  false          :
          :  PC potential                    false          :
          :  electronic temp.          300.0000000     K    :
          :  accuracy                    1.0000000          :
          :  -> integral cutoff          0.2500000E+02      :
          :  -> integral neglect         0.1000000E-07      :
          :  -> SCF convergence          0.1000000E-05 Eh   :
          :  -> wf. convergence          0.1000000E-03 e    :
          :  Broyden damping             0.4000000          :
          ...................................................

 iter      E             dE          RMSdq      gap      omega  full diag
   1    -17.4433649 -0.174434E+02  0.847E-05    4.42       0.0  T
   2    -17.4433649 -0.380140E-11  0.569E-05    4.42     453.6  T
   3    -17.4433649 -0.706990E-12  0.232E-05    4.42    1110.6  T

   *** convergence criteria satisfied after 3 iterations ***

         #    Occupation            Energy/Eh            Energy/eV
      -------------------------------------------------------------
         1        2.0000           -0.8867202             -24.1289
       ...           ...                  ...                  ...
        10        2.0000           -0.6688045             -18.1991
        11        2.0000           -0.6564790             -17.8637
        12        2.0000           -0.6401199             -17.4185
        13        2.0000           -0.6359028             -17.3038
        14        2.0000           -0.6170279             -16.7902
        15        2.0000           -0.5997544             -16.3201
        16        2.0000           -0.5233545             -14.2412 (HOMO)
        17                         -0.3608827              -9.8201 (LUMO)
        18                         -0.3076537              -8.3717
        19                         -0.2560918              -6.9686
        20                         -0.1855027              -5.0478
        21                         -0.1615532              -4.3961
       ...                                ...                  ...
        35                          0.2496501               6.7933
      -------------------------------------------------------------
                  HL-Gap            0.1624718 Eh            4.4211 eV
             Fermi-level           -0.4421186 Eh          -12.0307 eV

 SCC (total)                   0 d,  0 h,  0 min,  0.004 sec
 SCC setup                      ...        0 min,  0.000 sec (  1.719%)
 Dispersion                     ...        0 min,  0.000 sec (  2.455%)
 classical contributions        ...        0 min,  0.000 sec (  0.720%)
 integral evaluation            ...        0 min,  0.000 sec ( 11.930%)
 iterations                     ...        0 min,  0.002 sec ( 55.945%)
 molecular gradient             ...        0 min,  0.001 sec ( 22.869%)
 printout                       ...        0 min,  0.000 sec (  1.840%)

         :::::::::::::::::::::::::::::::::::::::::::::::::::::
         ::                     SUMMARY                     ::
         :::::::::::::::::::::::::::::::::::::::::::::::::::::
         :: total energy             -17.242818565937 Eh    ::
         :: gradient norm              0.000547490088 Eh/a0 ::
         :: HOMO-LUMO gap              4.421082344107 eV    ::
         ::.................................................::
         :: SCC energy               -17.443364885430 Eh    ::
         :: -> isotropic ES            0.107068921133 Eh    ::
         :: -> anisotropic ES         -0.017471281087 Eh    ::
         :: -> anisotropic XC          0.014847394297 Eh    ::
         :: -> dispersion             -0.007570320095 Eh    ::
         :: repulsion energy           0.200530410176 Eh    ::
         :: add. restraining           0.000000000000 Eh    ::
         :: total charge               1.000000000000 e     ::
         :::::::::::::::::::::::::::::::::::::::::::::::::::::

           -------------------------------------------------
          |                Property Printout                |
           -------------------------------------------------

    * Orbital Energies and Occupations

         #    Occupation            Energy/Eh            Energy/eV
      -------------------------------------------------------------
         1        2.0000           -0.8867202             -24.1289
       ...           ...                  ...                  ...
         4        2.0000           -0.7947656             -21.6267
         5        2.0000           -0.7866051             -21.4046
         6        2.0000           -0.7729231             -21.0323
         7        2.0000           -0.7426061             -20.2073
         8        2.0000           -0.7313473             -19.9010
         9        2.0000           -0.6904822             -18.7890
        10        2.0000           -0.6688045             -18.1991
        11        2.0000           -0.6564790             -17.8637
        12        2.0000           -0.6401199             -17.4185
        13        2.0000           -0.6359028             -17.3038
        14        2.0000           -0.6170279             -16.7902
        15        2.0000           -0.5997544             -16.3201
        16        2.0000           -0.5233545             -14.2412 (HOMO)
        17                         -0.3608827              -9.8201 (LUMO)
        18                         -0.3076537              -8.3717
        19                         -0.2560918              -6.9686
        20                         -0.1855027              -5.0478
        21                         -0.1615532              -4.3961
        22                         -0.1453976              -3.9565
        23                         -0.1231876              -3.3521
        24                         -0.0877850              -2.3888
        25                         -0.0673581              -1.8329
        26                         -0.0631474              -1.7183
        27                         -0.0216070              -0.5880
       ...                                ...                  ...
        35                          0.2496501               6.7933
      -------------------------------------------------------------
                  HL-Gap            0.1624718 Eh            4.4211 eV
             Fermi-level           -0.4421186 Eh          -12.0307 eV

     #   Z          covCN         q      C6AA      α(0)
     1   7 N        3.484    -0.156    24.371     7.332
     2   6 C        3.775    -0.033    21.195     6.560
     3   6 C        3.794    -0.052    21.507     6.604
     4  16 S        2.042    -0.149   147.334    20.429
     5   6 C        3.745    -0.066    21.834     6.666
     6   1 H        0.859     0.267     0.820     1.419
     7   1 H        0.859     0.263     0.834     1.430
     8   1 H        0.907     0.285     0.755     1.359
     9   1 H        0.924     0.113     1.674     2.023
    10   1 H        0.924     0.117     1.638     2.001
    11   1 H        0.925     0.082     1.960     2.189
    12   1 H        0.925     0.099     1.794     2.094
    13   1 H        0.925     0.088     1.897     2.154
    14   1 H        0.925     0.064     2.148     2.292
    15   1 H        0.925     0.077     2.005     2.215

 Mol. C6AA /au·bohr⁶  :       1861.019927
 Mol. C8AA /au·bohr⁸  :      50613.986920
 Mol. α(0) /au        :         66.767600


Wiberg/Mayer (AO) data.
largest (>0.10) Wiberg bond orders for each atom

 ---------------------------------------------------------------------------
     #   Z sym  total        # sym  WBO       # sym  WBO       # sym  WBO
 ---------------------------------------------------------------------------
     1   7 N    3.653 --     2 C    0.950     7 H    0.916     6 H    0.915
                             8 H    0.800
     2   6 C    3.913 --     3 C    1.016    10 H    0.966     9 H    0.963
                             1 N    0.950
     3   6 C    3.975 --     2 C    1.016     4 S    0.989    11 H    0.969
                            12 H    0.967
     4  16 S    2.224 --     5 C    1.007     3 C    0.989     8 H    0.102
     5   6 C    3.961 --     4 S    1.007    14 H    0.981    15 H    0.980
                            13 H    0.972
     6   1 H    0.929 --     1 N    0.915
     7   1 H    0.931 --     1 N    0.916
     8   1 H    0.919 --     1 N    0.800     4 S    0.102
     9   1 H    0.987 --     2 C    0.963
    10   1 H    0.986 --     2 C    0.966
    11   1 H    0.993 --     3 C    0.969
    12   1 H    0.990 --     3 C    0.967
    13   1 H    0.992 --     5 C    0.972
    14   1 H    0.996 --     5 C    0.981
    15   1 H    0.994 --     5 C    0.980
 ---------------------------------------------------------------------------

Topologies differ in total number of bonds
Writing topology from bond orders to xtbtopo.mol

molecular dipole:
                 x           y           z       tot (Debye)
 q only:        5.903       1.553      -0.918
   full:        5.897       1.497      -1.283      15.805
molecular quadrupole (traceless):
                xx          xy          yy          xz          yz          zz
 q only:       31.504      13.899     -15.362     -12.763       2.914     -16.142
  q+dip:       29.621      11.717     -14.481     -17.081       3.946     -15.140
   full:       30.128      12.024     -15.186     -17.496       4.248     -14.942

           -------------------------------------------------
          |                Geometry Summary                 |
           -------------------------------------------------

      molecular mass/u    :       92.1831058
   center of mass at/Å    :        3.8747821      -0.3449933      -0.8888307
  moments of inertia/u·Å² :        0.6802015E+02   0.2278188E+03   0.2447135E+03
rotational constants/cm⁻¹ :        0.2478329E+00   0.7399579E-01   0.6888721E-01

 * 12 selected distances

     #   Z          #   Z                                           value/Å
     1   7 N        2   6 C                                       1.4873303
     2   6 C        3   6 C                                       1.5240102 (max)
     1   7 N        6   1 H                                       1.0232709 (min)
     1   7 N        7   1 H                                       1.0244582
     1   7 N        8   1 H                                       1.0768546
     2   6 C        9   1 H                                       1.0904602
     2   6 C       10   1 H                                       1.0909814
     3   6 C       11   1 H                                       1.0891064
     3   6 C       12   1 H                                       1.0877623
     5   6 C       13   1 H                                       1.0855831
     5   6 C       14   1 H                                       1.0855645
     5   6 C       15   1 H                                       1.0856364

 * 4 distinct bonds (by element types)

   Z      Z             #   av. dist./Å        max./Å        min./Å
   1 H    6 C           7     1.0878706     1.0909814     1.0855645
   6 C    6 C           1     1.5240102     1.5240102     1.5240102
   1 H    7 N           3     1.0415279     1.0768546     1.0232709
   6 C    7 N           1     1.4873303     1.4873303     1.4873303


optimized geometry written to: xtbopt.xyz


           -------------------------------------------------
          | TOTAL ENERGY              -17.242818565937 Eh   |
          | GRADIENT NORM               0.000547490088 Eh/α |
          | HOMO-LUMO GAP               4.421082344107 eV   |
           -------------------------------------------------

------------------------------------------------------------------------
 * finished run on 2023/01/23 at 14:28:10.044     
------------------------------------------------------------------------
 total:
 * wall-time:     0 d,  0 h,  0 min,  0.256 sec
 *  cpu-time:     0 d,  0 h,  0 min, 24.370 sec
 * ratio c/w:    95.276 speedup
 SCF:
 * wall-time:     0 d,  0 h,  0 min,  0.015 sec
 *  cpu-time:     0 d,  0 h,  0 min,  2.047 sec
 * ratio c/w:   140.801 speedup
 ANC optimizer:
 * wall-time:     0 d,  0 h,  0 min,  0.221 sec
 *  cpu-time:     0 d,  0 h,  0 min, 19.735 sec
 * ratio c/w:    89.274 speedup

