15
 energy: -17.242818565937 gnorm: 0.000547490088 xtb: 6.5.1 (fef0646)
N            3.12507290494139        1.31958624919084        0.00366849643501
C            2.35311038182511        0.04935587023472        0.05601026858845
C            2.90193535294578       -0.87405447362131       -1.02505924068744
S            4.74701132807822       -0.88224750018696       -0.87165617382890
C            5.22831233934174       -0.94508300832506       -2.61647676134530
H            3.12961788211709        1.82186875843688        0.89516987876842
H            2.78747969079896        1.94718136201724       -0.73231350640060
H            4.10987064411821        0.96354589679589       -0.24737770151596
H            1.28784590011928        0.23431226647730       -0.08578481578126
H            2.50716032512010       -0.40613629068937        1.03531393209547
H            2.65204499277814       -0.52225730291711       -2.02503233349613
H            2.52194173395704       -1.88502959689579       -0.89559626749577
H            6.31323715765423       -0.91079215756623       -2.63237136959709
H            4.82044990223438       -0.09478760898999       -3.15415327039087
H            4.88499946397003       -1.88222246396086       -3.04369113534824
