      -----------------------------------------------------------      
     |                   =====================                   |     
     |                           x T B                           |     
     |                   =====================                   |     
     |                         S. Grimme                         |     
     |          Mulliken Center for Theoretical Chemistry        |     
     |                    University of Bonn                     |     
      -----------------------------------------------------------      

   * xtb version 6.5.1 (fef0646) compiled by 'conda@b96dff2e9fd6' on 2023-01-04

   xtb is free software: you can redistribute it and/or modify it under
   the terms of the GNU Lesser General Public License as published by
   the Free Software Foundation, either version 3 of the License, or
   (at your option) any later version.
   
   xtb is distributed in the hope that it will be useful,
   but WITHOUT ANY WARRANTY; without even the implied warranty of
   MERCHANTABILITY or FITNESS FOR A PARTICULAR PURPOSE.  See the
   GNU Lesser General Public License for more details.
   
   Cite this work as:
   * C. Bannwarth, E. Caldeweyher, S. Ehlert, A. Hansen, P. Pracht,
     J. Seibert, S. Spicher, S. Grimme, WIREs Comput. Mol. Sci., 2020, 11,
     e01493. DOI: 10.1002/wcms.1493
   
   for GFN2-xTB:
   * C. Bannwarth, S. Ehlert and S. Grimme., J. Chem. Theory Comput., 2019,
     15, 1652-1671. DOI: 10.1021/acs.jctc.8b01176
   for GFN1-xTB:
   * S. Grimme, C. Bannwarth, P. Shushkov, J. Chem. Theory Comput., 2017,
     13, 1989-2009. DOI: 10.1021/acs.jctc.7b00118
   for GFN0-xTB:
   * P. Pracht, E. Caldeweyher, S. Ehlert, S. Grimme, ChemRxiv, 2019, preprint.
     DOI: 10.26434/chemrxiv.8326202.v1
   for GFN-FF:
   * S. Spicher and S. Grimme, Angew. Chem. Int. Ed., 2020, 59, 15665-15673.
     DOI: 10.1002/anie.202004239
   
   for ALPB and GBSA implicit solvation:
   * S. Ehlert, M. Stahn, S. Spicher, S. Grimme, J. Chem. Theory Comput.,
     2021, 17, 4250-4261. DOI: 10.1021/acs.jctc.1c00471
   
   for DFT-D4:
   * E. Caldeweyher, C. Bannwarth and S. Grimme, J. Chem. Phys., 2017,
     147, 034112. DOI: 10.1063/1.4993215
   * E. Caldeweyher, S. Ehlert, A. Hansen, H. Neugebauer, S. Spicher,
     C. Bannwarth and S. Grimme, J. Chem. Phys., 2019, 150, 154122.
     DOI: 10.1063/1.5090222
   * E. Caldeweyher, J.-M. Mewes, S. Ehlert and S. Grimme, Phys. Chem. Chem. Phys.
     2020, 22, 8499-8512. DOI: 10.1039/D0CP00502A
   
   for sTDA-xTB:
   * S. Grimme and C. Bannwarth, J. Chem. Phys., 2016, 145, 054103.
     DOI: 10.1063/1.4959605
   
   in the mass-spec context:
   * V. Asgeirsson, C. Bauer and S. Grimme, Chem. Sci., 2017, 8, 4879.
     DOI: 10.1039/c7sc00601b
   * J. Koopman and S. Grimme, ACS Omega 2019, 4, 12, 15120-15133.
     DOI: 10.1021/acsomega.9b02011
   
   for metadynamics refer to:
   * S. Grimme, J. Chem. Theory Comput., 2019, 155, 2847-2862
     DOI: 10.1021/acs.jctc.9b00143
   
   for SPH calculations refer to:
   * S. Spicher and S. Grimme, J. Chem. Theory Comput., 2021, 17, 1701-1714
     DOI: 10.1021/acs.jctc.0c01306
   
   with help from (in alphabetical order)
   P. Atkinson, C. Bannwarth, F. Bohle, G. Brandenburg, E. Caldeweyher
   M. Checinski, S. Dohm, S. Ehlert, S. Ehrlich, I. Gerasimov, C. Hölzer
   A. Katbashev, J. Koopman, C. Lavigne, S. Lehtola, F. März, M. Müller,
   F. Musil, H. Neugebauer, J. Pisarek, C. Plett, P. Pracht, F. Pultar,
   J. Seibert, P. Shushkov, S. Spicher, M. Stahn, M. Steiner, T. Strunk,
   J. Stückrath, T. Rose, and J. Unsleber
   
 * started run on 2023/01/24 at 15:46:15.533     

           -------------------------------------------------
          |                Calculation Setup                |
           -------------------------------------------------

          program call               : xtb init.xyz --opt -c 1 -u 0 -P 16 --alpb water
          hostname                   : gpg-woodward
          coordinate file            : init.xyz
          omp threads                :                    16

   ID    Z sym.   atoms
    1    7 N      1
    2    6 C      2-7, 9, 10
    3   17 Cl     8
    4    1 H      11-21

           -------------------------------------------------
          |                 G F N 2 - x T B                 |
           -------------------------------------------------

        Reference                      10.1021/acs.jctc.8b01176
      * Hamiltonian:
        H0-scaling (s, p, d)           1.850000    2.230000    2.230000
        zeta-weighting                 0.500000
      * Dispersion:
        s8                             2.700000
        a1                             0.520000
        a2                             5.000000
        s9                             5.000000
      * Repulsion:
        kExp                           1.500000    1.000000
        rExp                           1.000000
      * Coulomb:
        alpha                          2.000000
        third order                    shell-resolved
        anisotropic                    true
        a3                             3.000000
        a5                             4.000000
        cn-shift                       1.200000
        cn-exp                         4.000000
        max-rad                        5.000000

      * Solvation model:               ALPB
        Solvent                        water
        Parameter file                 internal GFN2-xTB/ALPB
        Dielectric constant                8.0200E+01
        Reference state                gsolv [1 M gas/solution]
        Free energy shift                  1.0808E-03 Eh       6.7819E-01 kcal/mol
        Temperature                        2.9815E+02 K
        Density                            1.0000E+00 kg/L
        Solvent mass                       1.8000E+01 g/mol
        Interaction kernel             P16
        Born radius scaling (c1)           1.4744E+00
        Born radii integrator          GBOBC
        Born offset                        0.0000E+00 a0       0.0000E+00 AA
        H-bond correction              true
        Ion screening                  false
        Surface tension                    1.0000E-05 Eh       1.5569E+01 dyn/cm
        Grid points                               230 per atom

          ...................................................
          :                      SETUP                      :
          :.................................................:
          :  # basis functions                  57          :
          :  # atomic orbitals                  56          :
          :  # shells                           32          :
          :  # electrons                        54          :
          :  max. iterations                   250          :
          :  Hamiltonian                  GFN2-xTB          :
          :  restarted?                      false          :
          :  GBSA solvation                   true          :
          :  PC potential                    false          :
          :  electronic temp.          300.0000000     K    :
          :  accuracy                    1.0000000          :
          :  -> integral cutoff          0.2500000E+02      :
          :  -> integral neglect         0.1000000E-07      :
          :  -> SCF convergence          0.1000000E-05 Eh   :
          :  -> wf. convergence          0.1000000E-03 e    :
          :  Broyden damping             0.4000000          :
          ...................................................

 iter      E             dE          RMSdq      gap      omega  full diag
   1    -30.2257453 -0.302257E+02  0.407E+00    4.21       0.0  T
   2    -30.2965401 -0.707948E-01  0.232E+00    4.31       1.0  T
   3    -30.2988748 -0.233467E-02  0.108E+00    4.23       1.0  T
   4    -30.2988671  0.768181E-05  0.447E-01    4.26       1.0  T
   5    -30.3009567 -0.208961E-02  0.136E-01    4.28       1.0  T
   6    -30.3010152 -0.585189E-04  0.108E-01    4.28       1.0  T
   7    -30.3010938 -0.785914E-04  0.665E-02    4.29       1.0  T
   8    -30.3011284 -0.345658E-04  0.462E-02    4.29       1.0  T
   9    -30.3011473 -0.188620E-04  0.170E-02    4.29       1.3  T
  10    -30.3011496 -0.236287E-05  0.900E-03    4.29       2.4  T
  11    -30.3011501 -0.503829E-06  0.445E-03    4.29       4.9  T
  12    -30.3011502 -0.722003E-07  0.134E-03    4.29      16.3  T
  13    -30.3011502 -0.747929E-08  0.830E-04    4.29      26.3  T
  14    -30.3011502 -0.299876E-08  0.446E-04    4.29      49.0  T

   *** convergence criteria satisfied after 14 iterations ***

         #    Occupation            Energy/Eh            Energy/eV
      -------------------------------------------------------------
         1        2.0000           -1.0671210             -29.0378
       ...           ...                  ...                  ...
        21        2.0000           -0.4565800             -12.4242
        22        2.0000           -0.4453563             -12.1188
        23        2.0000           -0.4383742             -11.9288
        24        2.0000           -0.4358471             -11.8600
        25        2.0000           -0.4200973             -11.4314
        26        2.0000           -0.4128893             -11.2353
        27        2.0000           -0.3948220             -10.7437 (HOMO)
        28                         -0.2372722              -6.4565 (LUMO)
        29                         -0.2364368              -6.4338
        30                         -0.1260306              -3.4295
        31                         -0.1154478              -3.1415
        32                         -0.0523844              -1.4255
       ...                                ...                  ...
        56                          0.6083063              16.5529
      -------------------------------------------------------------
                  HL-Gap            0.1575498 Eh            4.2871 eV
             Fermi-level           -0.3160471 Eh           -8.6001 eV

 SCC (total)                   0 d,  0 h,  0 min,  0.027 sec
 SCC setup                      ...        0 min,  0.000 sec (  1.176%)
 Dispersion                     ...        0 min,  0.000 sec (  1.052%)
 classical contributions        ...        0 min,  0.000 sec (  0.146%)
 integral evaluation            ...        0 min,  0.001 sec (  4.395%)
 iterations                     ...        0 min,  0.022 sec ( 83.868%)
 molecular gradient             ...        0 min,  0.002 sec (  8.032%)
 printout                       ...        0 min,  0.000 sec (  0.548%)

         :::::::::::::::::::::::::::::::::::::::::::::::::::::
         ::                     SUMMARY                     ::
         :::::::::::::::::::::::::::::::::::::::::::::::::::::
         :: total energy             -29.884925505364 Eh    ::
         :: total w/o Gsasa/hb       -29.873869251304 Eh    ::
         :: gradient norm              0.037134250613 Eh/a0 ::
         :: HOMO-LUMO gap              4.287148343566 eV    ::
         ::.................................................::
         :: SCC energy               -30.301150204015 Eh    ::
         :: -> isotropic ES            0.139302975199 Eh    ::
         :: -> anisotropic ES         -0.026434080772 Eh    ::
         :: -> anisotropic XC          0.016768837172 Eh    ::
         :: -> dispersion             -0.016516129974 Eh    ::
         :: -> Gsolv                  -0.127815352515 Eh    ::
         ::    -> Gelec               -0.116759098455 Eh    ::
         ::    -> Gsasa               -0.001483377083 Eh    ::
         ::    -> Ghb                 -0.010653636675 Eh    ::
         ::    -> Gshift               0.001080759698 Eh    ::
         :: repulsion energy           0.416141530554 Eh    ::
         :: add. restraining           0.000000000000 Eh    ::
         :: total charge               1.000000000000 e     ::
         :::::::::::::::::::::::::::::::::::::::::::::::::::::

      ----------------------------------------------------------- 
     |                   =====================                   |
     |                        A N C O P T                        |
     |                   =====================                   |
     |               Approximate Normal Coordinate               |
     |                Rational Function Optimizer                |
      ----------------------------------------------------------- 

          ...................................................
          :                      SETUP                      :
          :.................................................:
          :   optimization level            normal          :
          :   max. optcycles                   200          :
          :   ANC micro-cycles                  20          :
          :   degrees of freedom                57          :
          :.................................................:
          :   RF solver                   davidson          :
          :   write xtbopt.log                true          :
          :   linear?                        false          :
          :   energy convergence         0.5000000E-05 Eh   :
          :   grad. convergence          0.1000000E-02 Eh/α :
          :   maximium RF displ.         1.0000000          :
          :   Hlow (freq-cutoff)         0.1000000E-01      :
          :   Hmax (freq-cutoff)         5.0000000          :
          :   S6 in model hess.         20.0000000          :
          ...................................................

generating ANC from model Hessian ...
Using Lindh-Hessian (1995)
 Shifting diagonal of input Hessian by    8.5570303242909901E-003
 Lowest  eigenvalues of input Hessian
    0.000000    0.000000    0.000000    0.000000    0.000000    0.000000
    0.010000    0.010159    0.012621    0.014942    0.022377    0.023022
    0.024759    0.025731    0.028866    0.033591    0.049400    0.059263
 Highest eigenvalues
    1.435700    1.512593    1.604232    1.821679    1.908021    1.970060


........................................................................
.............................. CYCLE    1 ..............................
........................................................................
   1    -30.3011502 -0.303012E+02  0.240E-04    4.29       0.0  T
   2    -30.3011502 -0.181682E-09  0.181E-04    4.29     120.7  T
   3    -30.3011502 -0.780958E-10  0.137E-04    4.29     159.9  T
     SCC iter.                  ...        0 min,  0.005 sec
     gradient                   ...        0 min,  0.002 sec
 * total energy  :   -29.8849255 Eh     change       -0.1680313E-08 Eh
   gradient norm :     0.0371350 Eh/α   predicted     0.0000000E+00 (-100.00%)
   displ. norm   :     0.1717673 α      lambda       -0.3440237E-02
   maximum displ.:     0.0729841 α      in ANC's #4, #13, #14, ...

........................................................................
.............................. CYCLE    2 ..............................
........................................................................
   1    -30.3220046 -0.303220E+02  0.146E-01    4.37       0.0  T
   2    -30.3220198 -0.151850E-04  0.881E-02    4.37       1.0  T
   3    -30.3220140  0.573243E-05  0.299E-02    4.37       1.0  T
   4    -30.3220245 -0.104188E-04  0.125E-02    4.37       1.7  T
   5    -30.3220252 -0.733140E-06  0.919E-03    4.37       2.4  T
   6    -30.3220257 -0.494287E-06  0.591E-03    4.37       3.7  T
   7    -30.3220260 -0.302252E-06  0.364E-03    4.37       6.0  T
   8    -30.3220261 -0.138223E-06  0.128E-03    4.37      17.1  T
   9    -30.3220261 -0.103069E-07  0.409E-04    4.37      53.3  T
  10    -30.3220261 -0.155131E-08  0.198E-04    4.37     109.9  T
     SCC iter.                  ...        0 min,  0.015 sec
     gradient                   ...        0 min,  0.002 sec
 * total energy  :   -29.8871281 Eh     change       -0.2202549E-02 Eh
   gradient norm :     0.0160135 Eh/α   predicted    -0.1770918E-02 ( -19.60%)
   displ. norm   :     0.1120116 α      lambda       -0.6206284E-03
   maximum displ.:     0.0709372 α      in ANC's #4, #3, #2, ...

........................................................................
.............................. CYCLE    3 ..............................
........................................................................
   1    -30.3290465 -0.303290E+02  0.660E-02    4.40       0.0  T
   2    -30.3290542 -0.764102E-05  0.426E-02    4.39       1.0  T
   3    -30.3290538  0.318601E-06  0.222E-02    4.39       1.0  T
   4    -30.3290576 -0.376729E-05  0.994E-03    4.39       2.2  T
   5    -30.3290580 -0.405586E-06  0.757E-03    4.39       2.9  T
   6    -30.3290584 -0.369807E-06  0.489E-03    4.39       4.5  T
   7    -30.3290586 -0.238809E-06  0.252E-03    4.39       8.7  T
   8    -30.3290587 -0.629632E-07  0.729E-04    4.39      29.9  T
   9    -30.3290587 -0.212836E-08  0.239E-04    4.39      91.1  T
     SCC iter.                  ...        0 min,  0.014 sec
     gradient                   ...        0 min,  0.002 sec
 * total energy  :   -29.8875081 Eh     change       -0.3800212E-03 Eh
   gradient norm :     0.0070393 Eh/α   predicted    -0.3142609E-03 ( -17.30%)
   displ. norm   :     0.0834322 α      lambda       -0.1384507E-03
   maximum displ.:     0.0515470 α      in ANC's #4, #3, #2, ...

........................................................................
.............................. CYCLE    4 ..............................
........................................................................
   1    -30.3291620 -0.303292E+02  0.366E-02    4.40       0.0  T
   2    -30.3291639 -0.191233E-05  0.233E-02    4.40       1.0  T
   3    -30.3291638  0.149797E-06  0.124E-02    4.39       1.8  T
   4    -30.3291650 -0.120569E-05  0.536E-03    4.39       4.1  T
   5    -30.3291651 -0.111651E-06  0.415E-03    4.39       5.3  T
   6    -30.3291652 -0.119728E-06  0.264E-03    4.39       8.3  T
   7    -30.3291653 -0.738812E-07  0.120E-03    4.39      18.2  T
   8    -30.3291653 -0.130426E-07  0.372E-04    4.39      58.6  T
   9    -30.3291653 -0.591136E-09  0.105E-04    4.39     208.4  T
     SCC iter.                  ...        0 min,  0.013 sec
     gradient                   ...        0 min,  0.002 sec
 * total energy  :   -29.8876057 Eh     change       -0.9767160E-04 Eh
   gradient norm :     0.0034389 Eh/α   predicted    -0.6970828E-04 ( -28.63%)
   displ. norm   :     0.0933992 α      lambda       -0.7482543E-04
   maximum displ.:     0.0547720 α      in ANC's #2, #3, #4, ...

........................................................................
.............................. CYCLE    5 ..............................
........................................................................
   1    -30.3279861 -0.303280E+02  0.371E-02    4.40       0.0  T
   2    -30.3279869 -0.834174E-06  0.225E-02    4.40       1.0  T
   3    -30.3279864  0.549132E-06  0.977E-03    4.40       2.2  T
   4    -30.3279874 -0.104726E-05  0.370E-03    4.40       5.9  T
   5    -30.3279874 -0.509945E-07  0.285E-03    4.40       7.7  T
   6    -30.3279875 -0.551652E-07  0.187E-03    4.40      11.6  T
   7    -30.3279875 -0.398585E-07  0.720E-04    4.40      30.3  T
   8    -30.3279875 -0.396888E-08  0.261E-04    4.40      83.7  T
     SCC iter.                  ...        0 min,  0.012 sec
     gradient                   ...        0 min,  0.002 sec
 * total energy  :   -29.8876534 Eh     change       -0.4761223E-04 Eh
   gradient norm :     0.0016418 Eh/α   predicted    -0.3777681E-04 ( -20.66%)
   displ. norm   :     0.0911442 α      lambda       -0.2323315E-04
   maximum displ.:     0.0692106 α      in ANC's #2, #3, #4, ...

........................................................................
.............................. CYCLE    6 ..............................
........................................................................
   1    -30.3271591 -0.303272E+02  0.372E-02    4.40       0.0  T
   2    -30.3271593 -0.179381E-06  0.218E-02    4.40       1.0  T
   3    -30.3271592  0.902536E-07  0.351E-03    4.40       6.2  T
   4    -30.3271593 -0.165297E-06  0.142E-03    4.40      15.3  T
   5    -30.3271594 -0.750573E-08  0.103E-03    4.40      21.2  T
   6    -30.3271594 -0.546171E-08  0.738E-04    4.40      29.6  T
   7    -30.3271594 -0.520167E-08  0.406E-04    4.40      53.8  T
     SCC iter.                  ...        0 min,  0.010 sec
     gradient                   ...        0 min,  0.002 sec
 * total energy  :   -29.8876775 Eh     change       -0.2415852E-04 Eh
   gradient norm :     0.0020983 Eh/α   predicted    -0.1166189E-04 ( -51.73%)
   displ. norm   :     0.0484966 α      lambda       -0.1878195E-04
   maximum displ.:     0.0402643 α      in ANC's #2, #3, #6, ...

........................................................................
.............................. CYCLE    7 ..............................
........................................................................
   1    -30.3272688 -0.303273E+02  0.207E-02    4.40       0.0  T
   2    -30.3272688 -0.560153E-07  0.121E-02    4.40       1.8  T
   3    -30.3272688  0.579394E-07  0.223E-03    4.40       9.8  T
   4    -30.3272688 -0.792850E-07  0.591E-04    4.40      36.9  T
   5    -30.3272688 -0.121652E-08  0.425E-04    4.40      51.3  T
     SCC iter.                  ...        0 min,  0.007 sec
     gradient                   ...        0 min,  0.002 sec
 * total energy  :   -29.8876946 Eh     change       -0.1704978E-04 Eh
   gradient norm :     0.0018088 Eh/α   predicted    -0.9414054E-05 ( -44.78%)
   displ. norm   :     0.1237228 α      lambda       -0.3029257E-04
   maximum displ.:     0.1011375 α      in ANC's #2, #3, #6, ...

........................................................................
.............................. CYCLE    8 ..............................
........................................................................
   1    -30.3277208 -0.303277E+02  0.513E-02    4.40       0.0  T
   2    -30.3277211 -0.311141E-06  0.301E-02    4.40       1.0  T
   3    -30.3277207  0.396268E-06  0.600E-03    4.40       3.6  T
   4    -30.3277213 -0.553113E-06  0.178E-03    4.40      12.3  T
   5    -30.3277213 -0.964072E-08  0.133E-03    4.40      16.4  T
   6    -30.3277213 -0.974046E-08  0.877E-04    4.40      24.9  T
   7    -30.3277213 -0.646892E-08  0.488E-04    4.40      44.7  T
     SCC iter.                  ...        0 min,  0.010 sec
     gradient                   ...        0 min,  0.002 sec
 * total energy  :   -29.8877310 Eh     change       -0.3642801E-04 Eh
   gradient norm :     0.0016094 Eh/α   predicted    -0.1525190E-04 ( -58.13%)
   displ. norm   :     0.1307992 α      lambda       -0.2518793E-04
   maximum displ.:     0.1087486 α      in ANC's #2, #3, #6, ...

........................................................................
.............................. CYCLE    9 ..............................
........................................................................
   1    -30.3278940 -0.303279E+02  0.535E-02    4.40       0.0  T
   2    -30.3278942 -0.190160E-06  0.314E-02    4.40       1.0  T
   3    -30.3278940  0.154836E-06  0.381E-03    4.40       5.7  T
   4    -30.3278943 -0.247192E-06  0.123E-03    4.40      17.8  T
   5    -30.3278943 -0.307506E-08  0.808E-04    4.40      27.0  T
   6    -30.3278943 -0.358541E-08  0.522E-04    4.40      41.8  T
     SCC iter.                  ...        0 min,  0.008 sec
     gradient                   ...        0 min,  0.002 sec
 * total energy  :   -29.8877640 Eh     change       -0.3303593E-04 Eh
   gradient norm :     0.0017018 Eh/α   predicted    -0.1269006E-04 ( -61.59%)
   displ. norm   :     0.1321856 α      lambda       -0.2648483E-04
   maximum displ.:     0.1137602 α      in ANC's #2, #3, #6, ...

........................................................................
.............................. CYCLE   10 ..............................
........................................................................
   1    -30.3280920 -0.303281E+02  0.573E-02    4.40       0.0  T
   2    -30.3280922 -0.203563E-06  0.335E-02    4.40       1.0  T
   3    -30.3280921  0.127278E-06  0.336E-03    4.40       6.5  T
   4    -30.3280923 -0.209265E-06  0.976E-04    4.40      22.4  T
   5    -30.3280923 -0.173025E-08  0.599E-04    4.40      36.4  T
     SCC iter.                  ...        0 min,  0.007 sec
     gradient                   ...        0 min,  0.002 sec
 * total energy  :   -29.8877999 Eh     change       -0.3583037E-04 Eh
   gradient norm :     0.0013955 Eh/α   predicted    -0.1334631E-04 ( -62.75%)
   displ. norm   :     0.1561879 α      lambda       -0.3031556E-04
   maximum displ.:     0.1340385 α      in ANC's #2, #6, #1, ...

........................................................................
.............................. CYCLE   11 ..............................
........................................................................
   1    -30.3280245 -0.303280E+02  0.705E-02    4.39       0.0  T
   2    -30.3280248 -0.271941E-06  0.413E-02    4.39       1.0  T
   3    -30.3280246  0.115268E-06  0.344E-03    4.39       6.3  T
   4    -30.3280249 -0.229909E-06  0.107E-03    4.39      20.5  T
   5    -30.3280249 -0.166033E-08  0.451E-04    4.39      48.4  T
   6    -30.3280249 -0.866162E-09  0.287E-04    4.39      75.9  T
     SCC iter.                  ...        0 min,  0.008 sec
     gradient                   ...        0 min,  0.002 sec
 * total energy  :   -29.8878402 Eh     change       -0.4034525E-04 Eh
   gradient norm :     0.0013104 Eh/α   predicted    -0.1532400E-04 ( -62.02%)
   displ. norm   :     0.1614022 α      lambda       -0.3012121E-04
   maximum displ.:     0.1376735 α      in ANC's #2, #1, #6, ...

........................................................................
.............................. CYCLE   12 ..............................
........................................................................
   1    -30.3279437 -0.303279E+02  0.755E-02    4.39       0.0  T
   2    -30.3279440 -0.267190E-06  0.442E-02    4.39       1.0  T
   3    -30.3279439  0.855916E-07  0.339E-03    4.39       6.4  T
   4    -30.3279441 -0.204943E-06  0.114E-03    4.39      19.2  T
   5    -30.3279441 -0.161066E-08  0.550E-04    4.39      39.7  T
   6    -30.3279441 -0.178612E-08  0.360E-04    4.39      60.6  T
     SCC iter.                  ...        0 min,  0.008 sec
     gradient                   ...        0 min,  0.002 sec
 * total energy  :   -29.8878811 Eh     change       -0.4090192E-04 Eh
   gradient norm :     0.0013344 Eh/α   predicted    -0.1523535E-04 ( -62.75%)
   displ. norm   :     0.1703465 α      lambda       -0.2997861E-04
   maximum displ.:     0.1429728 α      in ANC's #2, #1, #6, ...

........................................................................
.............................. CYCLE   13 ..............................
........................................................................
   1    -30.3279275 -0.303279E+02  0.809E-02    4.40       0.0  T
   2    -30.3279278 -0.319023E-06  0.473E-02    4.40       1.0  T
   3    -30.3279277  0.129992E-06  0.400E-03    4.40       5.5  T
   4    -30.3279280 -0.270879E-06  0.120E-03    4.40      18.2  T
   5    -30.3279280 -0.101956E-08  0.635E-04    4.40      34.4  T
   6    -30.3279280 -0.280045E-08  0.354E-04    4.40      61.6  T
     SCC iter.                  ...        0 min,  0.008 sec
     gradient                   ...        0 min,  0.002 sec
 * total energy  :   -29.8879221 Eh     change       -0.4099565E-04 Eh
   gradient norm :     0.0013077 Eh/α   predicted    -0.1519330E-04 ( -62.94%)
   displ. norm   :     0.1644419 α      lambda       -0.2702646E-04
   maximum displ.:     0.1361028 α      in ANC's #2, #1, #3, ...

........................................................................
.............................. CYCLE   14 ..............................
........................................................................
   1    -30.3277820 -0.303278E+02  0.778E-02    4.40       0.0  T
   2    -30.3277823 -0.300571E-06  0.454E-02    4.40       1.0  T
   3    -30.3277822  0.797789E-07  0.365E-03    4.40       6.0  T
   4    -30.3277824 -0.213746E-06  0.123E-03    4.40      17.7  T
   5    -30.3277824 -0.165467E-08  0.650E-04    4.40      33.6  T
   6    -30.3277824 -0.265924E-08  0.379E-04    4.40      57.5  T
     SCC iter.                  ...        0 min,  0.008 sec
     gradient                   ...        0 min,  0.001 sec
 * total energy  :   -29.8879565 Eh     change       -0.3437312E-04 Eh
   gradient norm :     0.0011050 Eh/α   predicted    -0.1367638E-04 ( -60.21%)
   displ. norm   :     0.1442575 α      lambda       -0.2305847E-04
   maximum displ.:     0.1191119 α      in ANC's #2, #1, #36, ...

........................................................................
.............................. CYCLE   15 ..............................
........................................................................
   1    -30.3284542 -0.303285E+02  0.698E-02    4.40       0.0  T
   2    -30.3284544 -0.213416E-06  0.407E-02    4.40       1.0  T
   3    -30.3284544  0.198667E-07  0.263E-03    4.40       8.3  T
   4    -30.3284545 -0.113469E-06  0.916E-04    4.40      23.8  T
   5    -30.3284545 -0.492662E-09  0.364E-04    4.40      60.0  T
     SCC iter.                  ...        0 min,  0.006 sec
     gradient                   ...        0 min,  0.001 sec
 * total energy  :   -29.8879833 Eh     change       -0.2679434E-04 Eh
   gradient norm :     0.0018808 Eh/α   predicted    -0.1163693E-04 ( -56.57%)
   displ. norm   :     0.1604440 α      lambda       -0.2279445E-04
   maximum displ.:     0.1357016 α      in ANC's #2, #1, #3, ...

........................................................................
.............................. CYCLE   16 ..............................
........................................................................
   1    -30.3279718 -0.303280E+02  0.771E-02    4.40       0.0  T
   2    -30.3279721 -0.325472E-06  0.450E-02    4.40       1.0  T
   3    -30.3279721  0.466607E-07  0.340E-03    4.40       6.4  T
   4    -30.3279723 -0.186248E-06  0.115E-03    4.40      18.9  T
   5    -30.3279723 -0.727340E-09  0.514E-04    4.40      42.4  T
   6    -30.3279723 -0.184916E-08  0.261E-04    4.40      83.8  T
     SCC iter.                  ...        0 min,  0.007 sec
     gradient                   ...        0 min,  0.002 sec
 * total energy  :   -29.8880096 Eh     change       -0.2637380E-04 Eh
   gradient norm :     0.0009719 Eh/α   predicted    -0.1152919E-04 ( -56.29%)
   displ. norm   :     0.0923384 α      lambda       -0.1292400E-04
   maximum displ.:     0.0801494 α      in ANC's #2, #1, #6, ...

........................................................................
.............................. CYCLE   17 ..............................
........................................................................
   1    -30.3281295 -0.303281E+02  0.444E-02    4.41       0.0  T
   2    -30.3281296 -0.961148E-07  0.260E-02    4.41       1.0  T
   3    -30.3281296  0.288106E-08  0.178E-03    4.41      12.3  T
   4    -30.3281297 -0.467660E-07  0.749E-04    4.41      29.1  T
   5    -30.3281297 -0.136018E-08  0.351E-04    4.41      62.2  T
     SCC iter.                  ...        0 min,  0.006 sec
     gradient                   ...        0 min,  0.001 sec
 * total energy  :   -29.8880255 Eh     change       -0.1581197E-04 Eh
   gradient norm :     0.0010177 Eh/α   predicted    -0.6487509E-05 ( -58.97%)
   displ. norm   :     0.0983853 α      lambda       -0.1381651E-04
   maximum displ.:     0.0864678 α      in ANC's #2, #1, #6, ...

........................................................................
.............................. CYCLE   18 ..............................
........................................................................
   1    -30.3283770 -0.303284E+02  0.468E-02    4.40       0.0  T
   2    -30.3283772 -0.112449E-06  0.273E-02    4.40       1.0  T
   3    -30.3283771  0.192015E-07  0.205E-03    4.40      10.7  T
   4    -30.3283772 -0.653891E-07  0.783E-04    4.40      27.9  T
   5    -30.3283772 -0.167516E-08  0.480E-04    4.40      45.4  T
     SCC iter.                  ...        0 min,  0.006 sec
     gradient                   ...        0 min,  0.001 sec
 * total energy  :   -29.8880426 Eh     change       -0.1715724E-04 Eh
   gradient norm :     0.0007736 Eh/α   predicted    -0.6941709E-05 ( -59.54%)
   displ. norm   :     0.1000782 α      lambda       -0.1170445E-04
   maximum displ.:     0.0899365 α      in ANC's #2, #6, #1, ...

........................................................................
.............................. CYCLE   19 ..............................
........................................................................
   1    -30.3283865 -0.303284E+02  0.472E-02    4.40       0.0  T
   2    -30.3283866 -0.967946E-07  0.277E-02    4.40       1.0  T
   3    -30.3283866 -0.301595E-08  0.168E-03    4.40      13.0  T
   4    -30.3283866 -0.393140E-07  0.791E-04    4.40      27.6  T
   5    -30.3283866 -0.200119E-08  0.453E-04    4.40      48.2  T
     SCC iter.                  ...        0 min,  0.006 sec
     gradient                   ...        0 min,  0.001 sec
 * total energy  :   -29.8880570 Eh     change       -0.1442673E-04 Eh
   gradient norm :     0.0006613 Eh/α   predicted    -0.5881659E-05 ( -59.23%)
   displ. norm   :     0.0687773 α      lambda       -0.6989230E-05
   maximum displ.:     0.0619250 α      in ANC's #2, #6, #3, ...

........................................................................
.............................. CYCLE   20 ..............................
........................................................................
   1    -30.3283486 -0.303283E+02  0.314E-02    4.40       0.0  T
   2    -30.3283486 -0.347073E-07  0.184E-02    4.40       1.2  T
   3    -30.3283486  0.945741E-08  0.130E-03    4.40      16.7  T
   4    -30.3283487 -0.260348E-07  0.426E-04    4.40      51.2  T
   5    -30.3283487 -0.230294E-09  0.230E-04    4.40      95.0  T
     SCC iter.                  ...        0 min,  0.006 sec
     gradient                   ...        0 min,  0.001 sec
 * total energy  :   -29.8880660 Eh     change       -0.8916644E-05 Eh
   gradient norm :     0.0005966 Eh/α   predicted    -0.3502917E-05 ( -60.71%)
   displ. norm   :     0.0574715 α      lambda       -0.5500405E-05
   maximum displ.:     0.0498623 α      in ANC's #2, #3, #6, ...
 * RMSD in coord.:     0.4179819 α      energy gain  -0.3140455E-02 Eh

generating ANC from model Hessian ...
Using Lindh-Hessian (1995)
 Shifting diagonal of input Hessian by    8.5089597766838092E-003
 Lowest  eigenvalues of input Hessian
    0.000000    0.000000    0.000000    0.000000    0.000000    0.000000
    0.010000    0.010395    0.012422    0.015690    0.023149    0.023876
    0.024811    0.027143    0.029219    0.035210    0.052466    0.060727
 Highest eigenvalues
    1.448091    1.569694    1.618650    1.889449    1.979535    2.028368


........................................................................
.............................. CYCLE   21 ..............................
........................................................................
   1    -30.3283915 -0.303284E+02  0.253E-02    4.41       0.0  T
   2    -30.3283915 -0.212082E-07  0.148E-02    4.41       1.5  T
   3    -30.3283915  0.722174E-08  0.109E-03    4.41      20.1  T
   4    -30.3283915 -0.177201E-07  0.359E-04    4.41      60.7  T
   5    -30.3283915 -0.188955E-09  0.215E-04    4.41     101.6  T
     SCC iter.                  ...        0 min,  0.005 sec
     gradient                   ...        0 min,  0.001 sec
 * total energy  :   -29.8880734 Eh     change       -0.7439980E-05 Eh
   gradient norm :     0.0005480 Eh/α   predicted     0.0000000E+00 (-100.00%)
   displ. norm   :     0.0218599 α      lambda       -0.2892305E-06
   maximum displ.:     0.0175648 α      in ANC's #2, #3, #1, ...

........................................................................
.............................. CYCLE   22 ..............................
........................................................................
   1    -30.3283033 -0.303283E+02  0.888E-03    4.41       0.0  T
   2    -30.3283033 -0.124803E-07  0.518E-03    4.41       4.2  T
   3    -30.3283033  0.241716E-08  0.695E-04    4.41      31.4  T
   4    -30.3283033 -0.600135E-08  0.306E-04    4.41      71.4  T
     SCC iter.                  ...        0 min,  0.004 sec
     gradient                   ...        0 min,  0.001 sec
 * total energy  :   -29.8880772 Eh     change       -0.3775476E-05 Eh
   gradient norm :     0.0002444 Eh/α   predicted    -0.1426144E-05 ( -62.23%)
   displ. norm   :     0.0520285 α      lambda       -0.5530581E-05
   maximum displ.:     0.0372930 α      in ANC's #2, #3, #1, ...

   *** GEOMETRY OPTIMIZATION CONVERGED AFTER 22 ITERATIONS ***

------------------------------------------------------------------------
 total energy gain   :        -0.0031517 Eh       -1.9777 kcal/mol
 total RMSD          :         0.4203829 a0        0.2225 Å
 total power (kW/mol):        -0.3761231 (step)  -31.0470 (real)
------------------------------------------------------------------------

 ANCopt (total)                0 d,  0 h,  0 min,  0.267 sec
 optimizer setup                ...        0 min,  0.000 sec (  0.037%)
 model hessian                  ...        0 min,  0.014 sec (  5.097%)
 ANC generation                 ...        0 min,  0.002 sec (  0.757%)
 coordinate transformation      ...        0 min,  0.000 sec (  0.174%)
 single point calculation       ...        0 min,  0.244 sec ( 91.459%)
 optimization log               ...        0 min,  0.002 sec (  0.825%)
 hessian update                 ...        0 min,  0.001 sec (  0.199%)
 rational function              ...        0 min,  0.002 sec (  0.613%)

================
 final structure:
================
21
 xtb: 6.5.1 (fef0646)
N            2.78212594229004        2.98476790511194        0.97721106993151
C            2.49174540368158        1.55963734916640        0.68908970000036
C            3.03952870367283        1.18577766845336       -0.68754311767420
C            4.54413403953536        1.25363466612831       -0.71783488542366
C            5.29980699674549        0.27962571727722       -0.07375576315765
C            6.68162537270171        0.33393074547255       -0.07820834711532
C            7.31682673449611        1.37503880211505       -0.73553504804721
Cl           9.07071262070732        1.44010628992906       -0.76016113317372
C            6.58677749789765        2.35622056998472       -1.38244173508000
C            5.20313278970913        2.29195107618082       -1.36505706821243
H            2.48067846496334        3.23851699970429        1.92436686089207
H            2.29947184953895        3.58929830310369        0.30223644731208
H            3.79231020172345        3.15172923459098        0.89233831698450
H            1.41482158398105        1.39937555971362        0.71564528156063
H            2.96140828716505        0.93955689587862        1.45185531723987
H            2.62471525650109        1.84490357719127       -1.44915452258723
H            2.72422820593909        0.16948870160629       -0.92032596891455
H            4.81033437431408       -0.54190212320645        0.42594697235414
H            7.26520872400050       -0.42599391405883        0.41540113358229
H            7.09589030454488        3.15550805707016       -1.89552065792503
H            4.64378664589112        3.05260791858717       -1.88765285254635

 Bond Distances (Angstroems)
 ---------------------------
N1-C2=1.4827         N1-H11=1.0258        N1-H12=1.0266        N1-H13=1.0274        C2-N1=1.4827         C2-C3=1.5281         
C2-H14=1.0891        C2-H15=1.0894        C3-C2=1.5281         C3-C4=1.5064         C3-H16=1.0893        C3-H17=1.0892        
C4-C3=1.5064         C4-C5=1.3909         C4-C10=1.3897        C5-C4=1.3909         C5-C6=1.3829         C5-H18=1.0790        
C6-C5=1.3829         C6-C7=1.3854         C6-H19=1.0778        C7-C6=1.3854         C7-Cl8=1.7553        C7-C9=1.3835         
Cl8-C7=1.7553        C9-C7=1.3835         C9-C10=1.3852        C9-H20=1.0776        C10-C4=1.3897        C10-C9=1.3852        
C10-H21=1.0792       H11-N1=1.0258        H12-N1=1.0266        H13-N1=1.0274        H14-C2=1.0891        H15-C2=1.0894        
H16-C3=1.0893        H17-C3=1.0892        H18-C5=1.0790        H19-C6=1.0778        H20-C9=1.0776        H21-C10=1.0792       
 C  H  Rav=1.0838 sigma=0.0055  Rmin=1.0776  Rmax=1.0894     8
 C  C  Rav=1.4190 sigma=0.0570  Rmin=1.3829  Rmax=1.5281     8
 N  H  Rav=1.0266 sigma=0.0006  Rmin=1.0258  Rmax=1.0274     3
 N  C  Rav=1.4827 sigma=0.0000  Rmin=1.4827  Rmax=1.4827     1
 Cl C  Rav=1.7553 sigma=0.0000  Rmin=1.7553  Rmax=1.7553     1

 selected bond angles (degree)
 --------------------
H11-N1-C2=111.08               H12-N1-C2=110.25               H12-N1-H11=108.86              H13-N1-C2=109.43               
H13-N1-H11=108.97              H13-N1-H12=108.19              C3-C2-N1=109.88                H14-C2-N1=109.29               
H14-C2-C3=109.90               H15-C2-N1=109.06               H15-C2-C3=109.69               H15-C2-H14=108.99              
C4-C3-C2=111.42                H16-C3-C2=110.20               H16-C3-C4=109.82               H17-C3-C2=108.48               
H17-C3-C4=109.08               H17-C3-H16=107.75              C5-C4-C3=120.12                C10-C4-C3=121.11               
C10-C4-C5=118.77               C6-C5-C4=120.92                H18-C5-C4=120.08               H18-C5-C6=118.99               
C7-C6-C5=119.29                H19-C6-C5=120.79               H19-C6-C7=119.92               Cl8-C7-C6=119.51               
C9-C7-C6=120.85                C9-C7-Cl8=119.63               C10-C9-C7=119.23               H20-C9-C7=119.96               
H20-C9-C10=120.82              C9-C10-C4=120.94               H21-C10-C4=120.42              H21-C10-C9=118.62              

 selected dihedral angles (degree)
 ---------------------------------
C3-C2-N1-H11=183.99           C3-C2-N1-H12= 63.23           C3-C2-N1-H13=304.34           H14-C2-N1-H11= 63.32          
H14-C2-N1-H12=302.56          H14-C2-N1-H13=183.67          H15-C2-N1-H11=304.25          H15-C2-N1-H12=183.50          
H15-C2-N1-H13= 64.61          C4-C3-C2-N1= 65.78            C4-C3-C2-H14=186.08           C4-C3-C2-H15=305.90           
H16-C3-C2-N1=303.61           H16-C3-C2-H14= 63.91          H16-C3-C2-H15=183.73          H17-C3-C2-N1=185.87           
H17-C3-C2-H14=306.17          H17-C3-C2-H15= 65.98          C5-C4-C3-C2= 73.08            C5-C4-C3-H16=195.47           
C5-C4-C3-H17=313.35           C10-C4-C3-C2=254.12           C10-C4-C3-H16= 16.51          C10-C4-C3-H17=134.38          
C6-C5-C4-C3=180.73            C6-C5-C4-C10=359.72           H18-C5-C4-C3=  1.69           H18-C5-C4-C10=180.68          
C7-C6-C5-C4=359.97            C7-C6-C5-H18=179.02           H19-C6-C5-C4=180.46           H19-C6-C5-H18=359.50          
Cl8-C7-C6-C5=180.68           Cl8-C7-C6-H19=  0.19          C9-C7-C6-C5=  0.08            C9-C7-C6-H19=179.60           
C10-C9-C7-C6=  0.18           C10-C9-C7-Cl8=179.58          H20-C9-C7-C6=180.46           H20-C9-C7-Cl8=359.86          
C9-C10-C4-C3=179.52           C9-C10-C4-C5=  0.55           H21-C10-C4-C3=357.92          H21-C10-C4-C5=178.94          
C4-C10-C9-C7=359.50           C4-C10-C9-H20=179.22          H21-C10-C9-C7=181.08          H21-C10-C9-H20=  0.80         
           -------------------------------------------------
          |                Final Singlepoint                |
           -------------------------------------------------

          ...................................................
          :                      SETUP                      :
          :.................................................:
          :  # basis functions                  57          :
          :  # atomic orbitals                  56          :
          :  # shells                           32          :
          :  # electrons                        54          :
          :  max. iterations                   250          :
          :  Hamiltonian                  GFN2-xTB          :
          :  restarted?                      false          :
          :  GBSA solvation                   true          :
          :  PC potential                    false          :
          :  electronic temp.          300.0000000     K    :
          :  accuracy                    1.0000000          :
          :  -> integral cutoff          0.2500000E+02      :
          :  -> integral neglect         0.1000000E-07      :
          :  -> SCF convergence          0.1000000E-05 Eh   :
          :  -> wf. convergence          0.1000000E-03 e    :
          :  Broyden damping             0.4000000          :
          ...................................................

 iter      E             dE          RMSdq      gap      omega  full diag
   1    -30.3283033 -0.303283E+02  0.238E-04    4.41       0.0  T
   2    -30.3283033 -0.163297E-09  0.201E-04    4.41     108.4  T
   3    -30.3283033 -0.175330E-09  0.153E-04    4.41     142.4  T

   *** convergence criteria satisfied after 3 iterations ***

         #    Occupation            Energy/Eh            Energy/eV
      -------------------------------------------------------------
         1        2.0000           -1.0658589             -29.0035
       ...           ...                  ...                  ...
        21        2.0000           -0.4588833             -12.4869
        22        2.0000           -0.4461506             -12.1404
        23        2.0000           -0.4381324             -11.9222
        24        2.0000           -0.4361823             -11.8691
        25        2.0000           -0.4208819             -11.4528
        26        2.0000           -0.4161364             -11.3236
        27        2.0000           -0.3978312             -10.8255 (HOMO)
        28                         -0.2359399              -6.4203 (LUMO)
        29                         -0.2347834              -6.3888
        30                         -0.1357281              -3.6934
        31                         -0.1094472              -2.9782
        32                         -0.0431524              -1.1742
       ...                                ...                  ...
        56                          0.6404217              17.4268
      -------------------------------------------------------------
                  HL-Gap            0.1618912 Eh            4.4053 eV
             Fermi-level           -0.3168855 Eh           -8.6229 eV

 SCC (total)                   0 d,  0 h,  0 min,  0.006 sec
 SCC setup                      ...        0 min,  0.000 sec (  2.356%)
 Dispersion                     ...        0 min,  0.000 sec (  1.922%)
 classical contributions        ...        0 min,  0.000 sec (  0.414%)
 integral evaluation            ...        0 min,  0.001 sec ( 10.148%)
 iterations                     ...        0 min,  0.003 sec ( 58.710%)
 molecular gradient             ...        0 min,  0.001 sec ( 22.930%)
 printout                       ...        0 min,  0.000 sec (  1.559%)

         :::::::::::::::::::::::::::::::::::::::::::::::::::::
         ::                     SUMMARY                     ::
         :::::::::::::::::::::::::::::::::::::::::::::::::::::
         :: total energy             -29.888077176236 Eh    ::
         :: total w/o Gsasa/hb       -29.877031916544 Eh    ::
         :: gradient norm              0.000247929214 Eh/a0 ::
         :: HOMO-LUMO gap              4.405284644222 eV    ::
         ::.................................................::
         :: SCC energy               -30.328303290132 Eh    ::
         :: -> isotropic ES            0.141643374962 Eh    ::
         :: -> anisotropic ES         -0.029061698198 Eh    ::
         :: -> anisotropic XC          0.015128705467 Eh    ::
         :: -> dispersion             -0.016644946140 Eh    ::
         :: -> Gsolv                  -0.129321465329 Eh    ::
         ::    -> Gelec               -0.118276205637 Eh    ::
         ::    -> Gsasa               -0.001492430102 Eh    ::
         ::    -> Ghb                 -0.010633589288 Eh    ::
         ::    -> Gshift               0.001080759698 Eh    ::
         :: repulsion energy           0.440145941629 Eh    ::
         :: add. restraining           0.000000000000 Eh    ::
         :: total charge               1.000000000000 e     ::
         :::::::::::::::::::::::::::::::::::::::::::::::::::::

           -------------------------------------------------
          |                Property Printout                |
           -------------------------------------------------

    * Orbital Energies and Occupations

         #    Occupation            Energy/Eh            Energy/eV
      -------------------------------------------------------------
         1        2.0000           -1.0658589             -29.0035
       ...           ...                  ...                  ...
        15        2.0000           -0.5088050             -13.8453
        16        2.0000           -0.5020638             -13.6619
        17        2.0000           -0.4934975             -13.4288
        18        2.0000           -0.4862840             -13.2325
        19        2.0000           -0.4854802             -13.2106
        20        2.0000           -0.4733977             -12.8818
        21        2.0000           -0.4588833             -12.4869
        22        2.0000           -0.4461506             -12.1404
        23        2.0000           -0.4381324             -11.9222
        24        2.0000           -0.4361823             -11.8691
        25        2.0000           -0.4208819             -11.4528
        26        2.0000           -0.4161364             -11.3236
        27        2.0000           -0.3978312             -10.8255 (HOMO)
        28                         -0.2359399              -6.4203 (LUMO)
        29                         -0.2347834              -6.3888
        30                         -0.1357281              -3.6934
        31                         -0.1094472              -2.9782
        32                         -0.0431524              -1.1742
        33                          0.0115896               0.3154
        34                          0.0150671               0.4100
        35                          0.0151627               0.4126
        36                          0.0268659               0.7311
        37                          0.0615761               1.6756
        38                          0.0801818               2.1819
       ...                                ...                  ...
        56                          0.6404217              17.4268
      -------------------------------------------------------------
                  HL-Gap            0.1618912 Eh            4.4053 eV
             Fermi-level           -0.3168855 Eh           -8.6229 eV

     #   Z          covCN         q      C6AA      α(0)
     1   7 N        3.485    -0.156    24.363     7.331
     2   6 C        3.733    -0.039    21.362     6.597
     3   6 C        3.809    -0.099    22.378     6.734
     4   6 C        2.968     0.015    27.673     8.629
     5   6 C        2.927    -0.041    29.030     8.836
     6   6 C        2.946    -0.041    29.019     8.835
     7   6 C        2.889     0.103    25.728     8.316
     8  17 Cl       0.950    -0.261   107.444    15.858
     9   6 C        2.945    -0.043    29.068     8.843
    10   6 C        2.927    -0.048    29.189     8.860
    11   1 H        0.859     0.317     0.665     1.277
    12   1 H        0.859     0.311     0.681     1.293
    13   1 H        0.859     0.295     0.727     1.336
    14   1 H        0.925     0.121     1.606     1.982
    15   1 H        0.925     0.113     1.673     2.023
    16   1 H        0.925     0.090     1.883     2.146
    17   1 H        0.925     0.092     1.862     2.134
    18   1 H        0.926     0.075     2.033     2.230
    19   1 H        0.926     0.055     2.257     2.349
    20   1 H        0.926     0.060     2.201     2.320
    21   1 H        0.926     0.082     1.956     2.187

 Mol. C6AA /au·bohr⁶  :       4911.978968
 Mol. C8AA /au·bohr⁸  :     128836.860717
 Mol. α(0) /au        :        110.115259


Wiberg/Mayer (AO) data.
largest (>0.10) Wiberg bond orders for each atom

 ---------------------------------------------------------------------------
     #   Z sym  total        # sym  WBO       # sym  WBO       # sym  WBO
 ---------------------------------------------------------------------------
     1   7 N    3.656 --     2 C    0.966    13 H    0.893    12 H    0.888
                            11 H    0.886
     2   6 C    3.925 --     3 C    0.999     1 N    0.966    15 H    0.965
                            14 H    0.963
     3   6 C    3.986 --     4 C    1.011     2 C    0.999    16 H    0.967
                            17 H    0.956
     4   6 C    3.987 --    10 C    1.413     5 C    1.403     3 C    1.011
     5   6 C    3.985 --     6 C    1.447     4 C    1.403    18 H    0.964
                             9 C    0.111
     6   6 C    3.986 --     5 C    1.447     7 C    1.404    19 H    0.967
                            10 C    0.108
     7   6 C    3.880 --     9 C    1.413     6 C    1.404     8 Cl   0.921
     8  17 Cl   1.040 --     7 C    0.921
     9   6 C    3.984 --    10 C    1.433     7 C    1.413    20 H    0.967
                             5 C    0.111
    10   6 C    3.983 --     9 C    1.433     4 C    1.413    21 H    0.962
                             6 C    0.108
    11   1 H    0.899 --     1 N    0.886
    12   1 H    0.903 --     1 N    0.888
    13   1 H    0.913 --     1 N    0.893
    14   1 H    0.985 --     2 C    0.963
    15   1 H    0.987 --     2 C    0.965
    16   1 H    0.992 --     3 C    0.967
    17   1 H    0.991 --     3 C    0.956
    18   1 H    0.994 --     5 C    0.964
    19   1 H    0.997 --     6 C    0.967
    20   1 H    0.996 --     9 C    0.967
    21   1 H    0.993 --    10 C    0.962
 ---------------------------------------------------------------------------

Topologies differ in total number of bonds
Writing topology from bond orders to xtbtopo.mol

molecular dipole:
                 x           y           z       tot (Debye)
 q only:        3.352       5.310       1.741
   full:        4.297       5.340       1.671      17.932
molecular quadrupole (traceless):
                xx          xy          yy          xz          yz          zz
 q only:      -36.911      33.902      39.339      17.362      12.586      -2.428
  q+dip:      -10.747      36.751      27.282      14.338       9.765     -16.535
   full:      -11.226      36.918      26.819      14.092      11.986     -15.593

           -------------------------------------------------
          |                Geometry Summary                 |
           -------------------------------------------------

      molecular mass/u    :      156.6328762
   center of mass at/Å    :        5.7293465       1.5343859      -0.4184923
  moments of inertia/u·Å² :        0.1670321E+03   0.9781873E+03   0.1021637E+04
rotational constants/cm⁻¹ :        0.1009245E+00   0.1723354E-01   0.1650060E-01

 * 20 selected distances

     #   Z          #   Z                                           value/Å
     1   7 N        2   6 C                                       1.4826774
     2   6 C        3   6 C                                       1.5280563
     4   6 C        5   6 C                                       1.3908894
     5   6 C        6   6 C                                       1.3828923
     6   6 C        7   6 C                                       1.3854478
     7   6 C        8  17 Cl                                      1.7552654 (max)
     7   6 C        9   6 C                                       1.3835383
     4   6 C       10   6 C                                       1.3897040
     9   6 C       10   6 C                                       1.3852458
     1   7 N       11   1 H                                       1.0258477 (min)
     1   7 N       12   1 H                                       1.0266464
     1   7 N       13   1 H                                       1.0274006
     2   6 C       14   1 H                                       1.0891071
     2   6 C       15   1 H                                       1.0894469
     3   6 C       16   1 H                                       1.0892976
     3   6 C       17   1 H                                       1.0892409
     5   6 C       18   1 H                                       1.0789784
     6   6 C       19   1 H                                       1.0778245
     9   6 C       20   1 H                                       1.0776393
    10   6 C       21   1 H                                       1.0791541

 * 5 distinct bonds (by element types)

   Z      Z             #   av. dist./Å        max./Å        min./Å
   1 H    6 C           8     1.0838361     1.0894469     1.0776393
   6 C    6 C           7     1.4065391     1.5280563     1.3828923
   1 H    7 N           3     1.0266316     1.0274006     1.0258477
   6 C    7 N           1     1.4826774     1.4826774     1.4826774
   6 C   17 Cl          1     1.7552654     1.7552654     1.7552654


optimized geometry written to: xtbopt.xyz


           -------------------------------------------------
          | TOTAL ENERGY              -29.888077176236 Eh   |
          | GRADIENT NORM               0.000247929214 Eh/α |
          | HOMO-LUMO GAP               4.405284644222 eV   |
           -------------------------------------------------

------------------------------------------------------------------------
 * finished run on 2023/01/24 at 15:46:15.850     
------------------------------------------------------------------------
 total:
 * wall-time:     0 d,  0 h,  0 min,  0.317 sec
 *  cpu-time:     0 d,  0 h,  0 min, 31.437 sec
 * ratio c/w:    99.232 speedup
 SCF:
 * wall-time:     0 d,  0 h,  0 min,  0.027 sec
 *  cpu-time:     0 d,  0 h,  0 min,  3.830 sec
 * ratio c/w:   142.062 speedup
 ANC optimizer:
 * wall-time:     0 d,  0 h,  0 min,  0.273 sec
 *  cpu-time:     0 d,  0 h,  0 min, 25.529 sec
 * ratio c/w:    93.421 speedup

