21
 energy: -29.888077176236 gnorm: 0.000247929214 xtb: 6.5.1 (fef0646)
N            2.78212594229004        2.98476790511194        0.97721106993151
C            2.49174540368158        1.55963734916640        0.68908970000036
C            3.03952870367283        1.18577766845336       -0.68754311767420
C            4.54413403953536        1.25363466612831       -0.71783488542366
C            5.29980699674549        0.27962571727722       -0.07375576315765
C            6.68162537270171        0.33393074547255       -0.07820834711532
C            7.31682673449611        1.37503880211505       -0.73553504804721
Cl           9.07071262070732        1.44010628992906       -0.76016113317372
C            6.58677749789765        2.35622056998472       -1.38244173508000
C            5.20313278970913        2.29195107618082       -1.36505706821243
H            2.48067846496334        3.23851699970429        1.92436686089207
H            2.29947184953895        3.58929830310369        0.30223644731208
H            3.79231020172345        3.15172923459098        0.89233831698450
H            1.41482158398105        1.39937555971362        0.71564528156063
H            2.96140828716505        0.93955689587862        1.45185531723987
H            2.62471525650109        1.84490357719127       -1.44915452258723
H            2.72422820593909        0.16948870160629       -0.92032596891455
H            4.81033437431408       -0.54190212320645        0.42594697235414
H            7.26520872400050       -0.42599391405883        0.41540113358229
H            7.09589030454488        3.15550805707016       -1.89552065792503
H            4.64378664589112        3.05260791858717       -1.88765285254635
