22
 energy: -34.978328864060 gnorm: 0.000345451389 xtb: 6.5.1 (fef0646)
N            1.03445978599446        0.08464100437148        0.27841063077825
C            2.50974698974546        0.08722099692898        0.24819304199230
C            3.00101109281981       -0.54553109773562       -1.05454022141152
C            4.48619887678238       -0.36657671423685       -1.19407441119852
C            5.36569262545610       -1.32188797793968       -0.69927266169510
C            6.73515300849551       -1.14723703374162       -0.79851734186982
C            7.20713313522450        0.00259633840485       -1.39889419480627
F            8.56021926188234        0.18419844731740       -1.50575580172045
C            6.36374473713994        0.97539264581982       -1.89874236872978
C            4.99849770850905        0.78069716167309       -1.78840018395556
Cl           0.00114394723227        1.52960055568529       -2.20966092465144
H            0.67399921397912        0.55404169977623        1.11192390725865
H            0.66916705235797       -0.86967028141617        0.23310575584792
H            0.66378857184666        0.59533033125658       -0.56454591922100
H            2.89961094430201       -0.46207680854180        1.10567535421047
H            2.85874226161014        1.11833219487924        0.29507328774317
H            2.48885725282057       -0.05469797068861       -1.88352801704186
H            2.75729419325148       -1.60716030023134       -1.07190618930564
H            4.98357188566656       -2.21840203185228       -0.23742157227443
H            7.42967527336466       -1.88149313667067       -0.42386395113235
H            6.77501931007211        1.85734356473364       -2.36285674903799
H            4.32227287143821        1.52683841222097       -2.17720146979030
