 Entering Gaussian System
 *********************************************
 Gaussian 98:
 frequency output generated by the xtb code
 *********************************************
                         Standard orientation:
 --------------------------------------------------------------------
  Center     Atomic     Atomic              Coordinates (Angstroms)
  Number     Number      Type              X           Y           Z
 --------------------------------------------------------------------
    1          8             0        2.668657    1.509585   -0.392342
    2          6             0        1.309548    1.575463   -0.007377
    3          6             0        0.923916    0.521317    1.025326
    4          6             0        1.245377   -0.891796    0.557777
    5          7             0        0.509661   -1.269064   -0.681690
    6         17             0       -2.887274   -0.598975   -0.138199
    7          1             0        3.252110    1.681804    0.372756
    8          1             0        0.716384    1.448605   -0.920565
    9          1             0        1.088695    2.589565    0.350772
   10          1             0       -0.144903    0.597003    1.256180
   11          1             0        1.444471    0.730416    1.966794
   12          1             0        1.014766   -1.613213    1.351899
   13          1             0        2.322646   -0.984292    0.378364
   14          1             0        0.659495   -2.254835   -0.936788
   15          1             0        0.811231   -0.691047   -1.476572
   16          1             0       -0.506388   -1.121798   -0.558016
 --------------------------------------------------------------------
     1 basis functions        1 primitive gaussians
     1 alpha electrons        1 beta electrons

 Harmonic frequencies (cm**-1), IR intensities (km*mol⁻¹),
 Raman scattering activities (A**4/amu), Raman depolarization ratios,
 reduced masses (AMU), force constants (mDyne/A) and normal coordinates:
                      1                      2                      3
                        a                      a                      a 
 Frequencies --  -136.8556                41.3742                89.0475
 Red. masses --    21.3991                18.2747                13.8048
 Frc consts  --     0.0000                 0.0000                 0.0000
 IR Inten    --   140.4329                 3.4213                23.4483
 Raman Activ --     0.0000                 0.0000                 0.0000
 Depolar     --     0.0000                 0.0000                 0.0000
 Atom AN      X      Y      Z        X      Y      Z        X      Y      Z
   1   8     0.00  -0.01  -0.02     0.50   0.10   0.29     0.03   0.31   0.37
   2   6     0.00  -0.02  -0.00     0.34   0.11  -0.10    -0.14  -0.09  -0.21
   3   6     0.03  -0.03   0.00     0.05   0.14  -0.17    -0.24  -0.11  -0.27
   4   6     0.24  -0.01   0.07    -0.05   0.11  -0.12     0.06  -0.09  -0.12
   5   7     0.59  -0.07  -0.11    -0.24   0.02   0.00     0.06  -0.38  -0.04
   6  17    -0.65   0.10   0.06    -0.39  -0.33   0.07     0.18   0.26   0.19
   7   1     0.00   0.02  -0.01     0.08   0.02   0.11    -0.08   0.11   0.15
   8   1    -0.00  -0.01   0.00     0.17   0.02  -0.07     0.08  -0.10  -0.13
   9   1     0.00  -0.01   0.00     0.07   0.04  -0.06    -0.17  -0.04  -0.11
  10   1     0.00  -0.04  -0.02     0.01   0.08  -0.09    -0.09  -0.07  -0.15
  11   1    -0.02   0.01   0.01    -0.01   0.02  -0.03    -0.14   0.01  -0.05
  12   1     0.04  -0.01   0.00     0.01   0.05  -0.01     0.07  -0.01  -0.01
  13   1     0.08   0.02   0.08    -0.02   0.03  -0.07     0.02   0.03  -0.04
  14   1     0.21  -0.01  -0.03    -0.01   0.02  -0.02    -0.02  -0.12   0.06
  15   1     0.19   0.00  -0.01    -0.15   0.03  -0.01     0.03  -0.17  -0.06
  16   1     0.17  -0.06  -0.08    -0.07  -0.07   0.06     0.03  -0.05  -0.01
                      4                      5                      6
                        a                      a                      a 
 Frequencies --   113.0324               208.4038               266.9473
 Red. masses --    13.0717                 8.0510                 4.9574
 Frc consts  --     0.0000                 0.0000                 0.0000
 IR Inten    --    15.4035                 0.8033                 7.6993
 Raman Activ --     0.0000                 0.0000                 0.0000
 Depolar     --     0.0000                 0.0000                 0.0000
 Atom AN      X      Y      Z        X      Y      Z        X      Y      Z
   1   8     0.03  -0.46   0.12    -0.12  -0.33   0.04     0.03   0.01  -0.11
   2   6     0.01   0.05  -0.05    -0.06   0.12   0.14     0.14   0.31   0.25
   3   6    -0.41   0.14  -0.12    -0.13   0.02  -0.00    -0.09   0.06  -0.07
   4   6    -0.21   0.15  -0.00     0.44   0.24  -0.23    -0.13   0.04  -0.06
   5   7     0.21   0.19  -0.26    -0.10  -0.11   0.19     0.04  -0.27  -0.11
   6  17     0.23  -0.07   0.23    -0.03   0.06  -0.09    -0.00  -0.07   0.04
   7   1    -0.00  -0.12   0.04     0.00  -0.10  -0.01     0.07  -0.05  -0.06
   8   1     0.02   0.07  -0.03    -0.04   0.10   0.05    -0.03   0.23   0.10
   9   1     0.08   0.04  -0.02     0.07   0.04   0.07     0.16   0.07   0.20
  10   1    -0.14   0.04  -0.14    -0.06  -0.09  -0.07    -0.04   0.04  -0.07
  11   1    -0.21   0.05   0.02    -0.11   0.01   0.04    -0.07  -0.05   0.02
  12   1    -0.12   0.03  -0.03     0.39   0.01  -0.04    -0.07   0.04   0.00
  13   1    -0.04   0.06   0.09     0.11   0.27  -0.26    -0.03  -0.01   0.03
  14   1     0.18   0.09  -0.14     0.01  -0.03   0.06    -0.26  -0.18   0.25
  15   1     0.03   0.15  -0.01    -0.18  -0.04  -0.01     0.28  -0.38  -0.15
  16   1     0.04  -0.07  -0.09    -0.02  -0.09   0.17     0.04   0.25  -0.17
                      7                      8                      9
                        a                      a                      a 
 Frequencies --   275.7769               396.2116               495.0264
 Red. masses --     6.3879                 7.8547                 5.2100
 Frc consts  --     0.0000                 0.0000                 0.0000
 IR Inten    --    12.2190                 7.4184                47.7658
 Raman Activ --     0.0000                 0.0000                 0.0000
 Depolar     --     0.0000                 0.0000                 0.0000
 Atom AN      X      Y      Z        X      Y      Z        X      Y      Z
   1   8    -0.00  -0.24   0.22     0.11   0.19  -0.23    -0.14  -0.01   0.16
   2   6    -0.12  -0.20  -0.20     0.14  -0.11   0.04    -0.15   0.25  -0.14
   3   6     0.06   0.04   0.07    -0.26  -0.26  -0.17     0.19  -0.00  -0.33
   4   6     0.15   0.12  -0.06     0.18  -0.21   0.17     0.12  -0.17   0.06
   5   7    -0.00   0.37  -0.05    -0.03   0.32   0.21     0.02   0.06   0.13
   6  17    -0.05  -0.09   0.03    -0.03  -0.03  -0.01    -0.01  -0.01  -0.00
   7   1    -0.07   0.03   0.09     0.06   0.02  -0.08    -0.09  -0.63   0.23
   8   1     0.03  -0.19  -0.08     0.03   0.07   0.00    -0.03   0.21  -0.06
   9   1    -0.10  -0.03  -0.19     0.04  -0.06   0.11     0.02   0.04   0.09
  10   1     0.03  -0.02   0.08    -0.14  -0.14  -0.32     0.07  -0.05  -0.01
  11   1     0.07   0.06  -0.02    -0.35  -0.00   0.08     0.11   0.06  -0.13
  12   1     0.08  -0.00  -0.04     0.06  -0.08   0.03    -0.09   0.04   0.06
  13   1     0.04   0.07  -0.06     0.05  -0.04   0.04     0.03  -0.20   0.07
  14   1    -0.35   0.00   0.16    -0.17   0.09  -0.04    -0.06   0.02  -0.04
  15   1     0.27  -0.15  -0.09     0.06   0.11   0.10     0.01   0.06   0.06
  16   1     0.04   0.45  -0.09     0.01   0.22   0.10     0.01   0.06   0.07
                     10                     11                     12
                        a                      a                      a 
 Frequencies --   558.9353               783.8640               856.6330
 Red. masses --     5.7033                 3.2872                 6.7379
 Frc consts  --     0.0000                 0.0000                 0.0000
 IR Inten    --   144.5536                28.7920                16.6841
 Raman Activ --     0.0000                 0.0000                 0.0000
 Depolar     --     0.0000                 0.0000                 0.0000
 Atom AN      X      Y      Z        X      Y      Z        X      Y      Z
   1   8    -0.10  -0.31   0.19     0.15   0.05  -0.02     0.01   0.04   0.01
   2   6    -0.08   0.28  -0.05    -0.04   0.00  -0.14    -0.01  -0.34   0.04
   3   6     0.14  -0.04  -0.28    -0.23  -0.10  -0.06    -0.07  -0.22  -0.27
   4   6     0.08  -0.18   0.03    -0.20  -0.11   0.12    -0.12   0.31  -0.18
   5   7    -0.01   0.03   0.08     0.01  -0.03   0.11     0.16   0.21   0.21
   6  17     0.00   0.00  -0.00     0.01  -0.00   0.00    -0.00   0.00  -0.00
   7   1    -0.04   0.69  -0.12     0.01   0.01   0.02    -0.01   0.04   0.00
   8   1    -0.04   0.20  -0.02    -0.01   0.23  -0.07    -0.03   0.16   0.00
   9   1     0.05   0.06   0.08     0.09  -0.04   0.15     0.06  -0.18   0.28
  10   1     0.05  -0.06  -0.02     0.02   0.10   0.32     0.03   0.02   0.12
  11   1     0.08   0.01  -0.11     0.27  -0.04  -0.19     0.18  -0.12  -0.17
  12   1    -0.08   0.03   0.05     0.36  -0.15   0.04    -0.19   0.11  -0.06
  13   1     0.02  -0.16   0.06    -0.06   0.33  -0.21    -0.01   0.04   0.13
  14   1    -0.04   0.02  -0.07     0.03   0.03  -0.11     0.12   0.00   0.31
  15   1    -0.00   0.07   0.07     0.24   0.13   0.22    -0.15  -0.13  -0.15
  16   1     0.01   0.04   0.06    -0.02   0.04  -0.22     0.04  -0.05   0.16
                     13                     14                     15
                        a                      a                      a 
 Frequencies --   889.0357               959.1785               968.7956
 Red. masses --     4.5111                 6.3248                 7.3897
 Frc consts  --     0.0000                 0.0000                 0.0000
 IR Inten    --    24.6028                15.6497                21.4859
 Raman Activ --     0.0000                 0.0000                 0.0000
 Depolar     --     0.0000                 0.0000                 0.0000
 Atom AN      X      Y      Z        X      Y      Z        X      Y      Z
   1   8    -0.18  -0.02   0.07    -0.19  -0.03   0.01    -0.28   0.03   0.09
   2   6     0.07  -0.14   0.09     0.18   0.13   0.25     0.21  -0.38   0.09
   3   6     0.33  -0.02  -0.20    -0.05  -0.01  -0.21     0.11   0.25  -0.18
   4   6    -0.12   0.14  -0.01    -0.20  -0.03  -0.30     0.06   0.11   0.19
   5   7    -0.14   0.08   0.13     0.21  -0.04   0.28    -0.02  -0.20  -0.23
   6  17     0.00   0.00   0.01    -0.00  -0.00  -0.00    -0.00  -0.00  -0.00
   7   1    -0.04   0.01   0.01     0.13  -0.07  -0.11    -0.05   0.03   0.01
   8   1    -0.02  -0.07   0.05     0.17  -0.32   0.02     0.00   0.07   0.04
   9   1    -0.05  -0.07   0.06    -0.18   0.10  -0.26     0.04  -0.17   0.23
  10   1     0.03  -0.03  -0.31     0.02   0.16   0.02     0.04   0.30  -0.12
  11   1    -0.15  -0.00   0.07     0.09  -0.31  -0.05     0.02   0.12  -0.05
  12   1     0.11   0.12   0.11    -0.01   0.08   0.01     0.08   0.06   0.09
  13   1    -0.08  -0.05  -0.25    -0.03   0.06  -0.02     0.03   0.15   0.08
  14   1     0.28   0.04   0.14    -0.11   0.02  -0.14    -0.25  -0.02  -0.31
  15   1     0.29   0.01   0.15     0.09   0.13   0.19    -0.05   0.10   0.04
  16   1    -0.12  -0.13  -0.46     0.08   0.13   0.15     0.05   0.12   0.14
                     16                     17                     18
                        a                      a                      a 
 Frequencies --  1022.8805              1050.5089              1107.7335
 Red. masses --     6.6062                 6.3413                 7.4805
 Frc consts  --     0.0000                 0.0000                 0.0000
 IR Inten    --    22.5641                58.3050                30.3790
 Raman Activ --     0.0000                 0.0000                 0.0000
 Depolar     --     0.0000                 0.0000                 0.0000
 Atom AN      X      Y      Z        X      Y      Z        X      Y      Z
   1   8     0.32   0.01  -0.08    -0.19  -0.02   0.03    -0.24   0.06   0.05
   2   6    -0.30  -0.14   0.19     0.17   0.10   0.17     0.27  -0.17  -0.06
   3   6    -0.13   0.02  -0.06    -0.17  -0.13  -0.20    -0.23   0.27   0.21
   4   6     0.20   0.29  -0.08     0.21   0.05   0.36     0.12  -0.18  -0.37
   5   7    -0.12  -0.19  -0.01    -0.18   0.09  -0.22     0.01  -0.02   0.19
   6  17    -0.00  -0.00   0.00     0.00   0.00   0.00     0.00   0.00   0.00
   7   1     0.11  -0.01  -0.04     0.27  -0.06  -0.21     0.05   0.01  -0.07
   8   1    -0.07  -0.04   0.05     0.36  -0.10  -0.14     0.20   0.15  -0.13
   9   1    -0.03  -0.02   0.01    -0.20   0.01  -0.07     0.10  -0.06   0.08
  10   1    -0.02  -0.24   0.15     0.01  -0.12   0.18    -0.05  -0.07   0.16
  11   1     0.06   0.01  -0.06     0.16   0.07  -0.18     0.03   0.35  -0.05
  12   1    -0.15   0.37   0.18     0.03   0.01   0.08    -0.12  -0.02  -0.11
  13   1     0.04  -0.21   0.06     0.05   0.01   0.07     0.01  -0.31  -0.08
  14   1    -0.09   0.01  -0.26     0.09   0.00   0.11     0.07   0.01   0.02
  15   1     0.15   0.15   0.21    -0.06  -0.09  -0.14     0.11   0.03   0.11
  16   1    -0.03   0.07  -0.12    -0.08  -0.10  -0.15    -0.02  -0.01  -0.10
                     19                     20                     21
                        a                      a                      a 
 Frequencies --  1118.8575              1165.1497              1226.4771
 Red. masses --     8.1186                 5.0110                 3.2106
 Frc consts  --     0.0000                 0.0000                 0.0000
 IR Inten    --    16.2170                10.3482                16.3598
 Raman Activ --     0.0000                 0.0000                 0.0000
 Depolar     --     0.0000                 0.0000                 0.0000
 Atom AN      X      Y      Z        X      Y      Z        X      Y      Z
   1   8     0.27  -0.04  -0.03    -0.02  -0.04   0.03    -0.05   0.05  -0.01
   2   6    -0.41  -0.10   0.33    -0.09   0.08  -0.12     0.14  -0.06   0.10
   3   6     0.07   0.32  -0.18     0.26  -0.20   0.18    -0.05   0.05  -0.11
   4   6    -0.08  -0.30  -0.06    -0.31   0.23  -0.02    -0.24  -0.07   0.11
   5   7     0.08   0.09   0.03     0.15  -0.11   0.01     0.21   0.08  -0.10
   6  17    -0.00   0.00  -0.00    -0.00  -0.00  -0.00     0.00   0.00  -0.00
   7   1     0.24  -0.03  -0.14     0.21  -0.04  -0.15    -0.10   0.03   0.06
   8   1    -0.00  -0.08   0.03     0.31   0.19  -0.27    -0.12  -0.10   0.14
   9   1    -0.21  -0.06   0.08    -0.23  -0.10   0.17     0.23   0.09  -0.16
  10   1     0.01   0.18  -0.10     0.01  -0.32  -0.08    -0.01  -0.36   0.12
  11   1    -0.00   0.34  -0.10    -0.13   0.22   0.09     0.03   0.18  -0.08
  12   1     0.09  -0.17  -0.06     0.02   0.02  -0.02     0.21   0.20   0.30
  13   1    -0.03   0.01  -0.10    -0.09   0.10  -0.10    -0.15  -0.18  -0.40
  14   1     0.04  -0.00   0.11    -0.12  -0.02  -0.10    -0.09  -0.02   0.05
  15   1    -0.04  -0.05  -0.07    -0.05   0.07   0.04    -0.15  -0.02  -0.13
  16   1     0.02  -0.04   0.06     0.08   0.10   0.14     0.08  -0.00   0.18
                     22                     23                     24
                        a                      a                      a 
 Frequencies --  1260.7686              1318.6730              1325.0641
 Red. masses --     2.3400                 3.3151                 3.6389
 Frc consts  --     0.0000                 0.0000                 0.0000
 IR Inten    --     2.7559                10.0965                43.2011
 Raman Activ --     0.0000                 0.0000                 0.0000
 Depolar     --     0.0000                 0.0000                 0.0000
 Atom AN      X      Y      Z        X      Y      Z        X      Y      Z
   1   8    -0.03   0.03  -0.00     0.08  -0.08  -0.08    -0.09   0.09   0.21
   2   6     0.12  -0.00   0.14     0.19   0.11  -0.05    -0.15  -0.16  -0.12
   3   6     0.09  -0.05  -0.18    -0.10   0.20  -0.08     0.04   0.15  -0.06
   4   6    -0.09   0.11  -0.01     0.02   0.16   0.16     0.02   0.13   0.16
   5   7    -0.06  -0.09   0.10     0.09  -0.05   0.09     0.09  -0.02   0.09
   6  17    -0.00   0.00   0.00     0.00  -0.00  -0.00     0.00  -0.00   0.00
   7   1    -0.08   0.01   0.06    -0.17   0.03   0.11     0.44  -0.06  -0.29
   8   1    -0.16  -0.16   0.18    -0.14  -0.14   0.13    -0.11   0.09  -0.00
   9   1     0.17   0.10  -0.16    -0.47  -0.19   0.28     0.36   0.09  -0.15
  10   1     0.02  -0.39   0.02    -0.02  -0.16   0.10    -0.00  -0.07  -0.05
  11   1     0.03   0.39  -0.14     0.02  -0.16   0.00     0.01  -0.31   0.06
  12   1    -0.13  -0.29  -0.33    -0.03  -0.27  -0.25    -0.04  -0.23  -0.21
  13   1     0.05   0.31   0.27    -0.06  -0.26  -0.23    -0.04  -0.15  -0.14
  14   1     0.00   0.01  -0.08    -0.09   0.00  -0.10    -0.16  -0.01  -0.08
  15   1     0.05   0.03   0.09    -0.13  -0.00  -0.03    -0.12  -0.00  -0.03
  16   1    -0.03   0.04  -0.07     0.01   0.03  -0.13    -0.01  -0.05  -0.16
                     25                     26                     27
                        a                      a                      a 
 Frequencies --  1347.2916              1354.3507              1373.4165
 Red. masses --     3.7375                 4.7556                 2.6701
 Frc consts  --     0.0000                 0.0000                 0.0000
 IR Inten    --    71.2645                 5.6066               127.1861
 Raman Activ --     0.0000                 0.0000                 0.0000
 Depolar     --     0.0000                 0.0000                 0.0000
 Atom AN      X      Y      Z        X      Y      Z        X      Y      Z
   1   8     0.04  -0.02  -0.19    -0.00  -0.00  -0.06     0.00  -0.01  -0.00
   2   6    -0.19  -0.08   0.32    -0.04  -0.13   0.06     0.03   0.03  -0.03
   3   6     0.04  -0.05  -0.05     0.08   0.49  -0.08     0.00  -0.01   0.07
   4   6     0.02   0.13   0.11    -0.05  -0.22  -0.03     0.01  -0.16  -0.12
   5   7     0.08  -0.04   0.07    -0.07   0.05  -0.03     0.20   0.12   0.18
   6  17     0.00  -0.00   0.00    -0.00   0.00  -0.00     0.00   0.00   0.01
   7   1    -0.39   0.08   0.24    -0.10   0.02   0.06    -0.01   0.00   0.01
   8   1     0.46   0.13  -0.26     0.21   0.09  -0.14    -0.02  -0.02   0.02
   9   1     0.20   0.12  -0.18     0.00  -0.05   0.07    -0.07  -0.03   0.04
  10   1     0.01   0.13  -0.05    -0.00  -0.48   0.08    -0.01  -0.02  -0.04
  11   1     0.02  -0.02  -0.01    -0.03  -0.42   0.13     0.01   0.07  -0.01
  12   1    -0.05  -0.15  -0.15     0.06   0.01   0.07    -0.03   0.19   0.16
  13   1    -0.04  -0.13  -0.15     0.05   0.24   0.21     0.05   0.22   0.15
  14   1    -0.10  -0.00  -0.07     0.08   0.01   0.05    -0.48  -0.03  -0.10
  15   1    -0.13   0.01  -0.03     0.05  -0.04  -0.02    -0.30  -0.01  -0.13
  16   1    -0.00   0.02  -0.16    -0.01  -0.01   0.06    -0.09  -0.35  -0.49
                     28                     29                     30
                        a                      a                      a 
 Frequencies --  1398.3921              1435.3518              1475.0044
 Red. masses --     1.5752                 1.8669                 1.8748
 Frc consts  --     0.0000                 0.0000                 0.0000
 IR Inten    --    70.2942                92.3666                13.2599
 Raman Activ --     0.0000                 0.0000                 0.0000
 Depolar     --     0.0000                 0.0000                 0.0000
 Atom AN      X      Y      Z        X      Y      Z        X      Y      Z
   1   8    -0.00  -0.00  -0.02    -0.01   0.00   0.00    -0.01   0.00   0.01
   2   6    -0.01   0.01   0.02    -0.02   0.03  -0.03     0.00  -0.01  -0.01
   3   6    -0.01   0.00  -0.00     0.00  -0.02   0.02     0.09  -0.04  -0.21
   4   6     0.01   0.10   0.03    -0.02  -0.01   0.01     0.11  -0.09   0.07
   5   7    -0.01   0.14  -0.11    -0.06   0.10   0.22     0.01   0.00   0.00
   6  17     0.00   0.01  -0.00     0.00   0.00   0.00     0.00   0.00  -0.00
   7   1    -0.04   0.01   0.02     0.01   0.00  -0.01     0.01  -0.00  -0.01
   8   1     0.04  -0.02  -0.02     0.05  -0.09  -0.02     0.00  -0.01  -0.00
   9   1     0.01  -0.01   0.03     0.07  -0.01   0.08     0.02  -0.00   0.01
  10   1    -0.01  -0.03  -0.02    -0.00   0.00  -0.02     0.14   0.12   0.53
  11   1     0.04  -0.02  -0.02     0.02   0.03  -0.01    -0.48   0.05   0.24
  12   1    -0.01  -0.10  -0.11    -0.05   0.04   0.03    -0.39   0.08  -0.04
  13   1    -0.01  -0.07  -0.04    -0.02   0.04  -0.07    -0.02   0.25  -0.30
  14   1    -0.38  -0.06   0.06     0.16   0.19  -0.61    -0.02  -0.01   0.02
  15   1     0.47  -0.02   0.14     0.18  -0.56  -0.32     0.03   0.02   0.03
  16   1    -0.05  -0.64   0.33    -0.01  -0.05   0.09     0.00  -0.04   0.01
                     31                     32                     33
                        a                      a                      a 
 Frequencies --  1480.6254              1507.5910              2903.2806
 Red. masses --     1.9474                 1.8402                 1.8978
 Frc consts  --     0.0000                 0.0000                 0.0000
 IR Inten    --     6.4617                 3.6398               221.8840
 Raman Activ --     0.0000                 0.0000                 0.0000
 Depolar     --     0.0000                 0.0000                 0.0000
 Atom AN      X      Y      Z        X      Y      Z        X      Y      Z
   1   8    -0.00  -0.00   0.01     0.02  -0.01  -0.01    -0.01   0.00   0.00
   2   6    -0.02   0.01  -0.01     0.16  -0.18   0.13     0.01   0.21   0.14
   3   6     0.07  -0.05  -0.15     0.02  -0.01  -0.01    -0.00   0.00  -0.01
   4   6    -0.14   0.14  -0.12    -0.01   0.01  -0.00     0.02  -0.00  -0.01
   5   7    -0.00   0.02   0.02    -0.01   0.02   0.03    -0.11   0.02   0.02
   6  17     0.00   0.00   0.00     0.00   0.00  -0.00     0.00  -0.00  -0.00
   7   1     0.01   0.01  -0.01     0.00  -0.00   0.00     0.00  -0.00   0.00
   8   1     0.02  -0.06  -0.01    -0.22   0.63   0.06    -0.18  -0.01  -0.26
   9   1     0.06  -0.00   0.03    -0.43   0.08  -0.50     0.16  -0.75  -0.27
  10   1     0.09   0.10   0.37     0.01  -0.00   0.04    -0.02   0.00   0.00
  11   1    -0.34   0.06   0.16    -0.04   0.00   0.02     0.02   0.01   0.04
  12   1     0.53  -0.12   0.03     0.03  -0.01   0.00     0.00  -0.01   0.01
  13   1     0.04  -0.35   0.42     0.00  -0.01   0.03    -0.07   0.01   0.02
  14   1    -0.03   0.01  -0.06     0.01   0.02  -0.08    -0.01  -0.01  -0.00
  15   1    -0.02  -0.05  -0.04     0.05  -0.10  -0.06    -0.00   0.01  -0.01
  16   1    -0.02  -0.04  -0.06    -0.01  -0.05   0.02     0.37  -0.05  -0.05
                     34                     35                     36
                        a                      a                      a 
 Frequencies --  2909.7189              2944.1491              2948.7707
 Red. masses --     1.9615                 1.7066                 1.8940
 Frc consts  --     0.0000                 0.0000                 0.0000
 IR Inten    --  1358.6309                11.0971                18.2167
 Raman Activ --     0.0000                 0.0000                 0.0000
 Depolar     --     0.0000                 0.0000                 0.0000
 Atom AN      X      Y      Z        X      Y      Z        X      Y      Z
   1   8     0.00  -0.00  -0.00    -0.01   0.00   0.00    -0.00   0.00   0.00
   2   6    -0.01  -0.09  -0.07    -0.10   0.05  -0.11    -0.05   0.02  -0.06
   3   6     0.02  -0.00   0.01     0.15   0.02   0.09    -0.03   0.01   0.02
   4   6     0.03   0.00  -0.02    -0.06  -0.03   0.05     0.18   0.11  -0.16
   5   7    -0.24   0.04   0.04    -0.00   0.00  -0.00     0.03  -0.01  -0.01
   6  17     0.01  -0.00  -0.00    -0.00  -0.00  -0.00    -0.00   0.00   0.00
   7   1    -0.00  -0.00  -0.00    -0.01  -0.00  -0.01    -0.00  -0.00  -0.00
   8   1     0.09   0.00   0.13     0.34   0.10   0.54     0.18   0.05   0.28
   9   1    -0.07   0.33   0.12     0.04  -0.28  -0.13     0.02  -0.12  -0.06
  10   1    -0.02   0.00   0.01    -0.34   0.03   0.09     0.17  -0.01  -0.03
  11   1    -0.03  -0.01  -0.06    -0.22  -0.09  -0.41    -0.05  -0.02  -0.07
  12   1    -0.00  -0.02   0.02     0.03   0.12  -0.13    -0.14  -0.44   0.49
  13   1    -0.13   0.01   0.03     0.21  -0.02  -0.03    -0.52   0.05   0.08
  14   1    -0.01  -0.02   0.00    -0.00   0.00   0.00     0.00   0.01   0.00
  15   1    -0.01   0.02  -0.02    -0.00  -0.00   0.01     0.00   0.01  -0.00
  16   1     0.85  -0.12  -0.12    -0.00   0.00  -0.00    -0.11   0.02   0.01
                     37                     38                     39
                        a                      a                      a 
 Frequencies --  2955.2829              2974.7733              2979.5676
 Red. masses --     1.8443                 1.5461                 1.5736
 Frc consts  --     0.0000                 0.0000                 0.0000
 IR Inten    --    11.8859                13.9137                 5.9167
 Raman Activ --     0.0000                 0.0000                 0.0000
 Depolar     --     0.0000                 0.0000                 0.0000
 Atom AN      X      Y      Z        X      Y      Z        X      Y      Z
   1   8     0.00  -0.00  -0.00    -0.00  -0.00   0.00     0.00  -0.00   0.00
   2   6     0.08  -0.02   0.11    -0.01  -0.00  -0.03    -0.01   0.01  -0.00
   3   6     0.19   0.02   0.11     0.10  -0.04  -0.17    -0.09   0.02   0.04
   4   6     0.03   0.05  -0.06    -0.02   0.06  -0.06    -0.17   0.10  -0.06
   5   7     0.01  -0.00  -0.00    -0.01   0.00   0.00    -0.03   0.00   0.00
   6  17    -0.00   0.00   0.00     0.00  -0.00  -0.00     0.00  -0.00  -0.00
   7   1     0.01   0.00   0.01     0.00   0.00  -0.00    -0.00  -0.00  -0.00
   8   1    -0.28  -0.08  -0.43     0.05   0.01   0.08     0.01   0.00   0.02
   9   1    -0.02   0.15   0.07    -0.00   0.01  -0.00     0.00  -0.03  -0.01
  10   1    -0.41   0.03   0.10    -0.66   0.04   0.11     0.37  -0.03  -0.07
  11   1    -0.27  -0.11  -0.50     0.30   0.11   0.49    -0.05  -0.01  -0.06
  12   1    -0.07  -0.20   0.23    -0.08  -0.22   0.24    -0.14  -0.30   0.35
  13   1    -0.00   0.01  -0.01     0.18  -0.00  -0.04     0.73  -0.04  -0.14
  14   1    -0.00   0.00  -0.00    -0.00  -0.00  -0.00    -0.00  -0.00  -0.00
  15   1     0.00   0.00  -0.01     0.00   0.01  -0.01     0.00   0.01  -0.01
  16   1    -0.05   0.00   0.00     0.02  -0.00  -0.01     0.10  -0.02  -0.01
                     40                     41                     42
                        a                      a                      a 
 Frequencies --  3240.0932              3253.7803              3355.0234
 Red. masses --     1.9594                 1.5786                 1.8703
 Frc consts  --     0.0000                 0.0000                 0.0000
 IR Inten    --    58.9087                36.4062                10.8658
 Raman Activ --     0.0000                 0.0000                 0.0000
 Depolar     --     0.0000                 0.0000                 0.0000
 Atom AN      X      Y      Z        X      Y      Z        X      Y      Z
   1   8     0.00   0.00   0.00    -0.00   0.00  -0.00     0.14   0.04   0.19
   2   6    -0.00  -0.00  -0.00     0.00  -0.00   0.00     0.01   0.00   0.01
   3   6    -0.00   0.00  -0.00    -0.00   0.00  -0.00     0.00  -0.00  -0.00
   4   6     0.00  -0.01   0.00    -0.00   0.00  -0.01     0.00  -0.00   0.00
   5   7     0.00  -0.27   0.01     0.07   0.05  -0.19    -0.00   0.00  -0.00
   6  17    -0.00   0.00  -0.00    -0.00  -0.00   0.00    -0.00   0.00  -0.00
   7   1    -0.00  -0.00  -0.00     0.00  -0.00   0.00    -0.58  -0.18  -0.76
   8   1     0.00   0.00   0.00    -0.00  -0.00  -0.01    -0.00  -0.00  -0.01
   9   1     0.00   0.00   0.00    -0.00   0.00   0.00    -0.00   0.00  -0.00
  10   1    -0.00   0.00   0.00     0.00   0.00  -0.00    -0.00  -0.00   0.00
  11   1     0.00  -0.00   0.00     0.00   0.00   0.00     0.00   0.00  -0.00
  12   1     0.00   0.01  -0.01    -0.01  -0.01   0.01    -0.00  -0.00   0.00
  13   1    -0.00   0.00   0.00     0.01  -0.00   0.00    -0.00   0.00   0.00
  14   1    -0.14   0.87   0.21    -0.04   0.35   0.06     0.00   0.00   0.00
  15   1     0.11   0.17  -0.27    -0.27  -0.53   0.69    -0.00  -0.00   0.00
  16   1     0.02  -0.03   0.00     0.06  -0.00  -0.02     0.00  -0.00   0.00
