 Entering Gaussian System
 *********************************************
 Gaussian 98:
 frequency output generated by the xtb code
 *********************************************
                         Standard orientation:
 --------------------------------------------------------------------
  Center     Atomic     Atomic              Coordinates (Angstroms)
  Number     Number      Type              X           Y           Z
 --------------------------------------------------------------------
    1          7             0       -0.315599    1.901833    0.386198
    2          6             0       -1.406894    1.417667   -0.503938
    3          6             0       -1.995610    0.084420   -0.042393
    4          6             0       -1.041606   -1.057875   -0.126265
    5          6             0       -1.425662   -2.316863   -0.030491
    6         17             0        2.447329   -0.203613    0.088242
    7          1             0        0.024655    2.838650    0.110755
    8          1             0        0.499598    1.260148    0.365956
    9          1             0       -0.635645    1.961336    1.366119
   10          1             0       -1.029149    1.319363   -1.529159
   11          1             0       -2.195071    2.180261   -0.552416
   12          1             0       -2.888863   -0.156386   -0.633940
   13          1             0       -2.347256    0.180004    0.992398
   14          1             0        0.008165   -0.832591   -0.234319
   15          1             0       -2.460683   -2.571047    0.099343
   16          1             0       -0.725817   -3.130997   -0.077222
 --------------------------------------------------------------------
     1 basis functions        1 primitive gaussians
     1 alpha electrons        1 beta electrons

 Harmonic frequencies (cm**-1), IR intensities (km*mol⁻¹),
 Raman scattering activities (A**4/amu), Raman depolarization ratios,
 reduced masses (AMU), force constants (mDyne/A) and normal coordinates:
                      1                      2                      3
                        a                      a                      a 
 Frequencies --  -130.0442               -69.0296                94.9533
 Red. masses --    21.3869                 7.4129                21.3485
 Frc consts  --     0.0000                 0.0000                 0.0000
 IR Inten    --   133.7825                 2.8120                20.9109
 Raman Activ --     0.0000                 0.0000                 0.0000
 Depolar     --     0.0000                 0.0000                 0.0000
 Atom AN      X      Y      Z        X      Y      Z        X      Y      Z
   1   7     0.47  -0.34  -0.06     0.04   0.11  -0.21    -0.03   0.13  -0.05
   2   6     0.25  -0.07   0.04    -0.01  -0.09  -0.04    -0.05   0.08   0.02
   3   6     0.08  -0.01  -0.02     0.05  -0.01   0.27     0.14   0.01   0.05
   4   6    -0.02  -0.09  -0.01     0.04  -0.02   0.45     0.31   0.16   0.02
   5   6    -0.09  -0.06   0.02    -0.12  -0.04  -0.45     0.52   0.09  -0.03
   6  17    -0.52   0.41   0.02    -0.00   0.04   0.02    -0.59  -0.31  -0.00
   7   1     0.12  -0.08   0.02    -0.01   0.02  -0.10     0.03   0.01  -0.05
   8   1     0.15  -0.10  -0.09     0.02   0.04  -0.05    -0.04  -0.01   0.02
   9   1     0.17  -0.14   0.00     0.03   0.06  -0.05    -0.01   0.09  -0.02
  10   1     0.04  -0.01  -0.00    -0.02  -0.08  -0.01    -0.03   0.04  -0.00
  11   1     0.10   0.02   0.05    -0.01  -0.03  -0.04    -0.03   0.01   0.03
  12   1     0.02   0.03  -0.02    -0.01  -0.04   0.13     0.04  -0.04   0.02
  13   1     0.02  -0.00  -0.01     0.06   0.06   0.09     0.05  -0.01   0.02
  14   1    -0.00  -0.04  -0.01     0.04  -0.01   0.41     0.08   0.09   0.02
  15   1    -0.03  -0.00   0.01    -0.07  -0.01  -0.43     0.16  -0.03  -0.02
  16   1    -0.04  -0.03   0.01    -0.04  -0.02  -0.06     0.19   0.06  -0.01
                      4                      5                      6
                        a                      a                      a 
 Frequencies --   117.4147               158.5183               265.3947
 Red. masses --     7.7573                11.1149                 7.0030
 Frc consts  --     0.0000                 0.0000                 0.0000
 IR Inten    --     4.8058                14.7551                 4.7336
 Raman Activ --     0.0000                 0.0000                 0.0000
 Depolar     --     0.0000                 0.0000                 0.0000
 Atom AN      X      Y      Z        X      Y      Z        X      Y      Z
   1   7    -0.06  -0.22   0.21    -0.19   0.35   0.32     0.09   0.25  -0.16
   2   6     0.03   0.07  -0.05     0.36  -0.10  -0.13    -0.23   0.20   0.23
   3   6    -0.14   0.03  -0.39     0.29  -0.04  -0.07     0.24  -0.16  -0.19
   4   6     0.04   0.13   0.40     0.11  -0.20   0.03     0.22  -0.21  -0.05
   5   6     0.10   0.09   0.13    -0.19  -0.11   0.07    -0.20  -0.08   0.07
   6  17     0.03  -0.04  -0.19    -0.23   0.04  -0.17    -0.02  -0.04   0.06
   7   1    -0.07   0.00   0.19    -0.10   0.12   0.11    -0.11   0.13   0.00
   8   1     0.02  -0.01  -0.06    -0.00   0.16   0.15     0.08   0.14  -0.21
   9   1    -0.01  -0.23   0.07    -0.16   0.07   0.05     0.17  -0.06   0.01
  10   1     0.05   0.07  -0.01     0.26  -0.09   0.03    -0.21   0.25  -0.00
  11   1     0.02   0.03  -0.00     0.08  -0.07  -0.21    -0.15  -0.01   0.29
  12   1     0.08  -0.03  -0.28     0.08   0.00  -0.02     0.12  -0.05  -0.13
  13   1    -0.25   0.02  -0.18     0.08   0.02  -0.02    -0.02  -0.13  -0.08
  14   1     0.03   0.06   0.31     0.04  -0.11   0.02     0.08  -0.11   0.05
  15   1     0.01  -0.01  -0.20    -0.08   0.05   0.01    -0.10   0.10  -0.04
  16   1     0.07   0.05   0.19    -0.12  -0.09   0.04    -0.15  -0.11   0.10
                      7                      8                      9
                        a                      a                      a 
 Frequencies --   311.6913               351.8926               484.8083
 Red. masses --     2.9572                 8.1387                 7.0350
 Frc consts  --     0.0000                 0.0000                 0.0000
 IR Inten    --     1.0980                 7.9119                 6.1856
 Raman Activ --     0.0000                 0.0000                 0.0000
 Depolar     --     0.0000                 0.0000                 0.0000
 Atom AN      X      Y      Z        X      Y      Z        X      Y      Z
   1   7    -0.11  -0.11  -0.07     0.21   0.39  -0.04     0.10   0.10  -0.04
   2   6    -0.01  -0.06  -0.17     0.14  -0.01   0.14     0.05  -0.40   0.22
   3   6     0.06   0.07   0.19    -0.25   0.02  -0.03    -0.24  -0.24   0.04
   4   6     0.06   0.10  -0.08    -0.39  -0.11   0.01     0.20   0.21   0.01
   5   6     0.02   0.12  -0.02     0.21  -0.31  -0.04    -0.06   0.33  -0.08
   6  17    -0.00  -0.07   0.07    -0.02  -0.05   0.02    -0.01  -0.01   0.00
   7   1    -0.36   0.19   0.32    -0.14   0.18   0.01    -0.11   0.04  -0.13
   8   1     0.17   0.23  -0.34     0.16   0.24  -0.12     0.10   0.12  -0.01
   9   1     0.07  -0.53   0.04     0.15  -0.01   0.03     0.09   0.08   0.01
  10   1     0.01  -0.06  -0.04     0.05  -0.04   0.05     0.07  -0.24   0.09
  11   1     0.00  -0.01  -0.09     0.05   0.01  -0.01     0.05  -0.08  -0.07
  12   1    -0.06  -0.01   0.18    -0.04   0.10  -0.10     0.08  -0.08  -0.20
  13   1     0.15   0.07   0.10    -0.15  -0.01  -0.04    -0.28  -0.15  -0.06
  14   1     0.01   0.03  -0.07    -0.13   0.03  -0.01     0.03   0.10  -0.12
  15   1     0.01   0.06   0.06     0.11  -0.29   0.01    -0.04   0.25   0.11
  16   1    -0.01   0.02  -0.05     0.22   0.04  -0.04    -0.14  -0.00  -0.13
                     10                     11                     12
                        a                      a                      a 
 Frequencies --   585.0477               817.2360               867.2729
 Red. masses --     4.7851                 3.3611                 7.5237
 Frc consts  --     0.0000                 0.0000                 0.0000
 IR Inten    --     6.1699                40.0267                 4.2755
 Raman Activ --     0.0000                 0.0000                 0.0000
 Depolar     --     0.0000                 0.0000                 0.0000
 Atom AN      X      Y      Z        X      Y      Z        X      Y      Z
   1   7    -0.06  -0.03  -0.06    -0.07   0.06  -0.02    -0.26  -0.16  -0.21
   2   6    -0.02   0.15  -0.10    -0.16   0.27   0.09     0.15  -0.15   0.24
   3   6     0.12   0.10   0.05    -0.02   0.08   0.18     0.41   0.22   0.17
   4   6     0.05  -0.07   0.47     0.11  -0.10  -0.13    -0.15   0.07  -0.15
   5   6    -0.03  -0.12  -0.18     0.02  -0.11   0.03    -0.11   0.10   0.09
   6  17    -0.00   0.00   0.01     0.01   0.01   0.01    -0.00   0.00  -0.00
   7   1     0.04  -0.01   0.06     0.20  -0.05   0.06    -0.13  -0.03  -0.08
   8   1    -0.05  -0.05  -0.02    -0.22  -0.22  -0.32    -0.03  -0.00  -0.01
   9   1    -0.05  -0.06  -0.02     0.25  -0.07   0.09    -0.11  -0.03  -0.07
  10   1    -0.03   0.08  -0.04     0.22  -0.29   0.15    -0.06  -0.07   0.03
  11   1    -0.03   0.02   0.01     0.03   0.12  -0.44    -0.02  -0.10   0.10
  12   1     0.17  -0.04  -0.17     0.11   0.01  -0.12     0.27   0.18  -0.25
  13   1    -0.21   0.11  -0.08    -0.17  -0.13  -0.00    -0.19  -0.07  -0.05
  14   1    -0.02  -0.06  -0.29     0.05  -0.08   0.03    -0.01  -0.10   0.05
  15   1     0.05  -0.04   0.42    -0.02   0.01  -0.07     0.02  -0.22  -0.13
  16   1    -0.04  -0.04  -0.49    -0.04  -0.07   0.07     0.17   0.20  -0.02
                     13                     14                     15
                        a                      a                      a 
 Frequencies --   897.9764               912.1445               956.1781
 Red. masses --     4.3473                 3.2648                 5.9780
 Frc consts  --     0.0000                 0.0000                 0.0000
 IR Inten    --     5.4738                21.4791                21.3786
 Raman Activ --     0.0000                 0.0000                 0.0000
 Depolar     --     0.0000                 0.0000                 0.0000
 Atom AN      X      Y      Z        X      Y      Z        X      Y      Z
   1   7     0.11   0.04  -0.08    -0.07  -0.02   0.12    -0.24  -0.28  -0.09
   2   6     0.02   0.10  -0.10    -0.05  -0.09   0.04     0.12   0.12   0.21
   3   6    -0.16   0.01   0.20     0.08  -0.04  -0.24    -0.09   0.31  -0.06
   4   6     0.07  -0.07  -0.22    -0.07   0.05  -0.03     0.09  -0.10   0.02
   5   6     0.12  -0.08   0.34    -0.02   0.09   0.29     0.20  -0.22  -0.02
   6  17    -0.00   0.00  -0.01     0.00  -0.00   0.01    -0.00  -0.01  -0.00
   7   1     0.07   0.06   0.19    -0.05  -0.06  -0.18    -0.33  -0.06  -0.32
   8   1     0.06   0.04   0.20    -0.05  -0.04  -0.18     0.12   0.14   0.01
   9   1    -0.30  -0.10  -0.12     0.32   0.10   0.13     0.06   0.14   0.00
  10   1    -0.16  -0.05  -0.08     0.17   0.09   0.06     0.09   0.01   0.08
  11   1     0.07   0.11   0.06    -0.08  -0.10  -0.06     0.12   0.13   0.01
  12   1     0.04   0.03  -0.09    -0.08  -0.05   0.11    -0.06   0.20   0.01
  13   1    -0.18  -0.07   0.01     0.20   0.09  -0.01     0.03   0.11  -0.00
  14   1     0.03   0.04   0.18     0.01  -0.02   0.20     0.00   0.08   0.01
  15   1    -0.05   0.11  -0.30     0.00  -0.09  -0.12    -0.03   0.26   0.01
  16   1    -0.16  -0.16  -0.45     0.01   0.08  -0.62    -0.21  -0.29   0.02
                     16                     17                     18
                        a                      a                      a 
 Frequencies --  1005.0043              1011.9957              1048.9302
 Red. masses --     3.3262                 3.2247                 7.3437
 Frc consts  --     0.0000                 0.0000                 0.0000
 IR Inten    --    11.5889                25.6286                 9.1260
 Raman Activ --     0.0000                 0.0000                 0.0000
 Depolar     --     0.0000                 0.0000                 0.0000
 Atom AN      X      Y      Z        X      Y      Z        X      Y      Z
   1   7    -0.14   0.14  -0.08     0.14  -0.11   0.14     0.14   0.03   0.30
   2   6     0.25  -0.15   0.06    -0.26   0.06  -0.11    -0.26  -0.28  -0.33
   3   6    -0.01  -0.04   0.01     0.04   0.07   0.01     0.14   0.24   0.21
   4   6    -0.12   0.04   0.14     0.11  -0.03   0.13    -0.09  -0.01  -0.19
   5   6     0.15  -0.02   0.08    -0.08   0.01   0.13     0.11  -0.09  -0.03
   6  17     0.00   0.00   0.01    -0.00  -0.00   0.00    -0.00  -0.00  -0.00
   7   1     0.19  -0.01   0.11    -0.18   0.00  -0.13     0.00  -0.03  -0.08
   8   1    -0.22  -0.18  -0.18     0.19   0.15   0.13     0.05   0.03  -0.03
   9   1     0.07  -0.11   0.02     0.05   0.12   0.03     0.22   0.11   0.13
  10   1     0.03   0.17  -0.02    -0.00  -0.09   0.01    -0.08   0.08  -0.11
  11   1    -0.13  -0.24   0.13     0.06   0.15  -0.11    -0.17  -0.17   0.05
  12   1    -0.05   0.13   0.00     0.05  -0.15   0.01     0.17   0.00  -0.13
  13   1    -0.01   0.10  -0.01    -0.03   0.02  -0.01    -0.24   0.29  -0.06
  14   1    -0.11   0.15  -0.45    -0.01  -0.12  -0.56    -0.01   0.05   0.13
  15   1    -0.07   0.20  -0.39    -0.04  -0.17  -0.47    -0.01   0.13   0.04
  16   1    -0.12  -0.14   0.05     0.08   0.09   0.02    -0.09  -0.13   0.11
                     19                     20                     21
                        a                      a                      a 
 Frequencies --  1096.5481              1162.3912              1207.7037
 Red. masses --     6.5602                 7.5233                 3.7534
 Frc consts  --     0.0000                 0.0000                 0.0000
 IR Inten    --     6.5505                16.2779                 9.2636
 Raman Activ --     0.0000                 0.0000                 0.0000
 Depolar     --     0.0000                 0.0000                 0.0000
 Atom AN      X      Y      Z        X      Y      Z        X      Y      Z
   1   7     0.17   0.07   0.01    -0.05   0.13   0.00    -0.11  -0.00   0.20
   2   6    -0.36  -0.25   0.14     0.08  -0.27   0.07     0.14   0.03  -0.35
   3   6     0.20   0.26  -0.33    -0.35   0.33  -0.07    -0.07  -0.07   0.12
   4   6    -0.07   0.01   0.16     0.46  -0.12  -0.06     0.08  -0.03   0.09
   5   6     0.08  -0.05  -0.01    -0.14  -0.03   0.01    -0.05   0.03   0.00
   6  17     0.00   0.00  -0.00    -0.00   0.01   0.00    -0.00   0.00   0.00
   7   1     0.11   0.04   0.16     0.08   0.01   0.04    -0.04  -0.05  -0.14
   8   1     0.02  -0.01   0.10    -0.12  -0.08  -0.07    -0.03   0.01  -0.14
   9   1    -0.11  -0.07  -0.04     0.03  -0.06   0.02     0.21   0.09   0.12
  10   1    -0.15  -0.37   0.05    -0.13  -0.03  -0.04    -0.25   0.00  -0.20
  11   1    -0.06  -0.05  -0.11     0.08   0.00   0.17     0.09   0.09   0.12
  12   1    -0.08   0.37  -0.00    -0.14   0.11   0.05    -0.06   0.46  -0.11
  13   1     0.23  -0.16  -0.00    -0.03   0.29  -0.02     0.05  -0.53   0.09
  14   1    -0.03   0.05  -0.02     0.20  -0.32  -0.02     0.01   0.03  -0.02
  15   1    -0.00   0.09   0.03     0.02  -0.22   0.00     0.00  -0.03   0.01
  16   1    -0.06  -0.08  -0.07     0.07   0.07  -0.01     0.04   0.05  -0.03
                     22                     23                     24
                        a                      a                      a 
 Frequencies --  1241.5225              1290.4647              1329.3278
 Red. masses --     2.8111                 2.9865                 3.6882
 Frc consts  --     0.0000                 0.0000                 0.0000
 IR Inten    --     7.7456                 6.8396                12.0340
 Raman Activ --     0.0000                 0.0000                 0.0000
 Depolar     --     0.0000                 0.0000                 0.0000
 Atom AN      X      Y      Z        X      Y      Z        X      Y      Z
   1   7     0.14  -0.11  -0.10    -0.08   0.01  -0.01    -0.11   0.08  -0.14
   2   6    -0.14   0.06  -0.03    -0.05   0.01   0.04    -0.26  -0.32  -0.04
   3   6    -0.13  -0.04   0.12     0.12  -0.19  -0.01     0.09  -0.05   0.05
   4   6     0.21  -0.07   0.00     0.21  -0.12  -0.05    -0.09   0.01   0.02
   5   6    -0.10   0.01   0.01    -0.23  -0.08   0.03     0.06   0.03  -0.01
   6  17     0.00  -0.00  -0.00     0.00  -0.00   0.00    -0.00   0.00  -0.00
   7   1    -0.03   0.02   0.05     0.09  -0.03   0.01     0.16  -0.01   0.10
   8   1     0.12   0.06   0.14     0.01   0.04   0.00    -0.00   0.05   0.15
   9   1    -0.10   0.01  -0.07     0.06  -0.02   0.03     0.13  -0.10   0.03
  10   1     0.41   0.35   0.12    -0.09  -0.11  -0.01     0.33   0.36   0.09
  11   1    -0.34  -0.31  -0.18     0.15   0.16   0.01     0.42   0.44   0.11
  12   1    -0.10   0.44  -0.06    -0.03   0.18  -0.01     0.03   0.12  -0.05
  13   1    -0.06  -0.06   0.03    -0.05   0.35  -0.06     0.00  -0.04   0.01
  14   1     0.05   0.05   0.00    -0.10   0.72  -0.00     0.00  -0.13   0.01
  15   1     0.01  -0.10   0.01    -0.02  -0.14   0.01    -0.00   0.08   0.00
  16   1     0.06   0.07   0.00     0.10   0.11  -0.01     0.01   0.01   0.00
                     25                     26                     27
                        a                      a                      a 
 Frequencies --  1338.6488              1375.9344              1401.3319
 Red. masses --     4.1730                 2.5735                 1.9290
 Frc consts  --     0.0000                 0.0000                 0.0000
 IR Inten    --     3.1668               148.3876                42.6433
 Raman Activ --     0.0000                 0.0000                 0.0000
 Depolar     --     0.0000                 0.0000                 0.0000
 Atom AN      X      Y      Z        X      Y      Z        X      Y      Z
   1   7    -0.02   0.04  -0.05    -0.30  -0.05  -0.09    -0.00   0.06  -0.13
   2   6     0.02  -0.16  -0.01     0.07   0.11   0.01     0.05   0.07  -0.03
   3   6    -0.08   0.45  -0.02    -0.03  -0.01  -0.02    -0.05   0.09  -0.00
   4   6     0.12   0.02  -0.00    -0.00   0.04  -0.00     0.00  -0.19  -0.00
   5   6    -0.11  -0.12   0.02     0.03   0.02  -0.00    -0.03  -0.08   0.01
   6  17     0.00  -0.00  -0.00    -0.00  -0.01  -0.00    -0.00   0.00  -0.01
   7   1     0.04  -0.00   0.01     0.53  -0.19   0.06    -0.19   0.07  -0.02
   8   1    -0.02  -0.02   0.06     0.34   0.46   0.22    -0.13  -0.17   0.51
   9   1     0.05  -0.06   0.01     0.29  -0.10   0.10     0.35  -0.23   0.12
  10   1     0.12   0.17   0.02    -0.06  -0.14  -0.00    -0.03  -0.07  -0.01
  11   1    -0.02  -0.06   0.05    -0.14  -0.14   0.02    -0.08  -0.08   0.01
  12   1     0.11  -0.41   0.02    -0.01  -0.04   0.01     0.01  -0.07   0.01
  13   1     0.09  -0.45   0.07    -0.00   0.01  -0.00    -0.01  -0.04   0.01
  14   1    -0.05   0.41   0.00     0.02  -0.10  -0.00    -0.02   0.03   0.02
  15   1     0.02  -0.25   0.02     0.02  -0.06  -0.00    -0.10   0.40  -0.00
  16   1    -0.10  -0.11   0.01    -0.05  -0.04   0.01     0.31   0.28  -0.04
                     28                     29                     30
                        a                      a                      a 
 Frequencies --  1405.1708              1450.4207              1470.8791
 Red. masses --     2.2423                 1.9555                 1.8508
 Frc consts  --     0.0000                 0.0000                 0.0000
 IR Inten    --    31.6927                74.4286                16.0754
 Raman Activ --     0.0000                 0.0000                 0.0000
 Depolar     --     0.0000                 0.0000                 0.0000
 Atom AN      X      Y      Z        X      Y      Z        X      Y      Z
   1   7     0.03   0.05  -0.10     0.06   0.19   0.16    -0.02  -0.05  -0.04
   2   6     0.02   0.07  -0.03    -0.02  -0.00   0.03     0.02   0.00  -0.05
   3   6     0.07  -0.17   0.00     0.08  -0.00  -0.02     0.23   0.07  -0.09
   4   6    -0.01   0.22  -0.01    -0.00   0.00  -0.00     0.02  -0.01  -0.00
   5   6     0.04   0.10  -0.01     0.00   0.00  -0.00    -0.00  -0.01   0.00
   6  17     0.00   0.00  -0.00     0.00   0.00   0.00    -0.00  -0.00   0.00
   7   1    -0.24   0.09  -0.01     0.10  -0.21  -0.61    -0.01   0.05   0.16
   8   1    -0.15  -0.20   0.40     0.00   0.03  -0.00     0.01   0.01  -0.04
   9   1     0.27  -0.16   0.09    -0.23  -0.60  -0.03     0.04   0.17  -0.00
  10   1    -0.04  -0.07  -0.01    -0.00   0.08  -0.00     0.07  -0.06   0.02
  11   1    -0.01   0.00  -0.00     0.01   0.01  -0.09     0.00  -0.00   0.12
  12   1    -0.04   0.12   0.02    -0.10   0.02   0.15    -0.36  -0.00   0.54
  13   1    -0.06   0.07  -0.03    -0.17  -0.05  -0.05    -0.59  -0.19  -0.19
  14   1     0.03  -0.05   0.01     0.00  -0.01   0.00     0.01  -0.00   0.01
  15   1     0.11  -0.45   0.01     0.00   0.00   0.00    -0.01   0.03   0.00
  16   1    -0.37  -0.32   0.06    -0.00  -0.00  -0.00     0.02   0.02  -0.01
                     31                     32                     33
                        a                      a                      a 
 Frequencies --  1486.4159              1711.8999              2849.0842
 Red. masses --     1.8992                11.3168                 1.9954
 Frc consts  --     0.0000                 0.0000                 0.0000
 IR Inten    --    13.0814                 5.8174              1653.2921
 Raman Activ --     0.0000                 0.0000                 0.0000
 Depolar     --     0.0000                 0.0000                 0.0000
 Atom AN      X      Y      Z        X      Y      Z        X      Y      Z
   1   7    -0.01  -0.03  -0.02     0.00   0.00   0.00    -0.20   0.18   0.02
   2   6     0.09  -0.14   0.22     0.01  -0.01  -0.00     0.02  -0.02  -0.01
   3   6     0.04   0.02  -0.01     0.03  -0.09  -0.00     0.00   0.00   0.00
   4   6    -0.01  -0.00  -0.00     0.11   0.71  -0.03     0.01   0.00  -0.00
   5   6     0.01   0.00  -0.00    -0.18  -0.62   0.05    -0.00   0.00   0.00
   6  17    -0.00  -0.00  -0.00    -0.00   0.00   0.00     0.01  -0.01  -0.00
   7   1     0.01   0.02   0.10     0.00  -0.00   0.00    -0.03  -0.02   0.01
   8   1     0.03   0.02   0.06     0.00   0.00   0.00     0.73  -0.61  -0.02
   9   1     0.08   0.07   0.02    -0.00  -0.00  -0.00    -0.00   0.01  -0.03
  10   1    -0.45   0.43  -0.20    -0.00   0.01  -0.00    -0.00  -0.00   0.01
  11   1     0.08   0.03  -0.66     0.00  -0.00  -0.00    -0.07   0.08   0.00
  12   1    -0.04  -0.02   0.07    -0.00   0.03  -0.01    -0.00   0.00  -0.00
  13   1    -0.08  -0.02  -0.03     0.02  -0.00   0.01     0.00   0.00  -0.01
  14   1     0.00  -0.02   0.01     0.10  -0.06  -0.02    -0.01  -0.01   0.00
  15   1     0.00   0.01   0.00    -0.13   0.09   0.01     0.00   0.00  -0.00
  16   1     0.00   0.00   0.00     0.15  -0.01  -0.02     0.00  -0.00   0.00
                     34                     35                     36
                        a                      a                      a 
 Frequencies --  2911.7268              2936.6688              2944.3739
 Red. masses --     1.9366                 1.7222                 1.7201
 Frc consts  --     0.0000                 0.0000                 0.0000
 IR Inten    --    22.4823                12.2229                11.8923
 Raman Activ --     0.0000                 0.0000                 0.0000
 Depolar     --     0.0000                 0.0000                 0.0000
 Atom AN      X      Y      Z        X      Y      Z        X      Y      Z
   1   7    -0.00   0.00   0.00    -0.02   0.01  -0.00     0.02  -0.02  -0.00
   2   6    -0.01   0.00   0.01    -0.15   0.12   0.08     0.15  -0.12  -0.06
   3   6    -0.07  -0.05  -0.28     0.14   0.03  -0.01     0.15   0.02  -0.03
   4   6     0.00  -0.00  -0.01    -0.00  -0.01  -0.00    -0.01  -0.01   0.00
   5   6     0.00   0.00   0.00    -0.00   0.00  -0.00    -0.00   0.00   0.00
   6  17     0.00  -0.00   0.00     0.00  -0.00  -0.00    -0.00   0.00   0.00
   7   1     0.00   0.00  -0.00    -0.00   0.00  -0.00     0.00   0.01  -0.00
   8   1     0.01  -0.01  -0.00     0.06  -0.05  -0.00    -0.05   0.04   0.00
   9   1     0.00   0.00   0.00    -0.00   0.00   0.01     0.00   0.00   0.01
  10   1     0.03  -0.01  -0.09     0.10  -0.02  -0.30    -0.08   0.01   0.25
  11   1    -0.00  -0.00   0.00     0.44  -0.42   0.03    -0.43   0.41  -0.02
  12   1     0.48   0.13   0.29    -0.43  -0.12  -0.32    -0.43  -0.12  -0.32
  13   1    -0.25   0.06   0.71    -0.10   0.03   0.37    -0.12   0.04   0.44
  14   1    -0.01  -0.00  -0.00     0.03   0.00  -0.00     0.04   0.01  -0.00
  15   1     0.00   0.00  -0.00     0.01  -0.00   0.00     0.01  -0.00  -0.00
  16   1    -0.00  -0.00   0.00     0.00  -0.00  -0.00     0.00  -0.00   0.00
                     37                     38                     39
                        a                      a                      a 
 Frequencies --  2974.0462              3075.0507              3131.1734
 Red. masses --     1.5726                 1.8722                 1.5075
 Frc consts  --     0.0000                 0.0000                 0.0000
 IR Inten    --     6.5984               115.1678                14.6454
 Raman Activ --     0.0000                 0.0000                 0.0000
 Depolar     --     0.0000                 0.0000                 0.0000
 Atom AN      X      Y      Z        X      Y      Z        X      Y      Z
   1   7    -0.01   0.01   0.00    -0.00   0.00   0.00     0.00  -0.00  -0.00
   2   6     0.00   0.05  -0.22    -0.00   0.00   0.00     0.00   0.00  -0.00
   3   6     0.00   0.00  -0.03    -0.01  -0.00  -0.00     0.00  -0.00  -0.00
   4   6     0.00  -0.00  -0.00    -0.27  -0.07   0.03     0.01  -0.01  -0.00
   5   6     0.00  -0.00   0.00     0.05   0.01  -0.01     0.06   0.20  -0.01
   6  17     0.00  -0.00   0.00     0.00   0.00   0.00     0.00   0.00   0.00
   7   1    -0.00  -0.00  -0.00     0.00  -0.00   0.00     0.00   0.00  -0.00
   8   1     0.02  -0.02  -0.00     0.02  -0.01  -0.00    -0.00  -0.00  -0.00
   9   1     0.01  -0.00  -0.03     0.00   0.00  -0.01    -0.00  -0.00   0.00
  10   1    -0.32   0.11   0.80     0.00   0.00  -0.01    -0.00  -0.00   0.00
  11   1     0.32  -0.29  -0.02     0.01  -0.01  -0.00     0.00   0.00   0.00
  12   1     0.02   0.01   0.01     0.03   0.01   0.02    -0.00  -0.00  -0.00
  13   1    -0.03   0.01   0.08     0.00  -0.00  -0.02    -0.00   0.00   0.00
  14   1     0.00   0.00  -0.00     0.92   0.20  -0.10    -0.06  -0.01   0.01
  15   1     0.00   0.00  -0.00    -0.13  -0.03   0.02    -0.66  -0.14   0.08
  16   1    -0.00   0.00   0.00    -0.03   0.04   0.00     0.47  -0.51  -0.03
                     40                     41                     42
                        a                      a                      a 
 Frequencies --  3161.3561              3182.1106              3198.2639
 Red. masses --     2.1124                 1.9110                 1.6160
 Frc consts  --     0.0000                 0.0000                 0.0000
 IR Inten    --    28.9955                43.3947                22.5220
 Raman Activ --     0.0000                 0.0000                 0.0000
 Depolar     --     0.0000                 0.0000                 0.0000
 Atom AN      X      Y      Z        X      Y      Z        X      Y      Z
   1   7     0.00   0.00   0.00    -0.10  -0.20   0.13    -0.05   0.06   0.20
   2   6    -0.00   0.00   0.00    -0.00  -0.00   0.00     0.00   0.00   0.01
   3   6    -0.00  -0.00   0.00    -0.00   0.00  -0.00     0.00  -0.00  -0.00
   4   6    -0.05  -0.01   0.01     0.00   0.00  -0.00     0.00   0.00  -0.00
   5   6    -0.30   0.10   0.03    -0.00  -0.00   0.00     0.00   0.00  -0.00
   6  17    -0.00  -0.00   0.00    -0.00   0.00  -0.00     0.00  -0.00  -0.00
   7   1    -0.00  -0.01   0.00     0.29   0.84  -0.26    -0.09  -0.23   0.10
   8   1    -0.00   0.00   0.00     0.02  -0.04   0.01    -0.05   0.04   0.02
   9   1     0.00   0.00  -0.00     0.08  -0.04  -0.24     0.30  -0.04  -0.88
  10   1     0.00   0.00  -0.00     0.00  -0.00  -0.01     0.01  -0.00  -0.02
  11   1     0.00  -0.00  -0.00     0.00   0.00   0.00    -0.01   0.01  -0.00
  12   1     0.01  -0.00   0.01     0.00  -0.00   0.00    -0.01  -0.00  -0.00
  13   1     0.00  -0.00  -0.01     0.00   0.00  -0.00    -0.00   0.00   0.01
  14   1     0.13   0.02  -0.01    -0.00  -0.00   0.00    -0.01  -0.00   0.00
  15   1     0.64   0.18  -0.08     0.01   0.00  -0.00    -0.01  -0.00   0.00
  16   1     0.42  -0.51  -0.03     0.00  -0.00  -0.00     0.00  -0.00  -0.00
