      -----------------------------------------------------------      
     |                   =====================                   |     
     |                           x T B                           |     
     |                   =====================                   |     
     |                         S. Grimme                         |     
     |          Mulliken Center for Theoretical Chemistry        |     
     |                    University of Bonn                     |     
      -----------------------------------------------------------      

   * xtb version 6.5.1 (fef0646) compiled by 'conda@b96dff2e9fd6' on 2023-01-04

   xtb is free software: you can redistribute it and/or modify it under
   the terms of the GNU Lesser General Public License as published by
   the Free Software Foundation, either version 3 of the License, or
   (at your option) any later version.
   
   xtb is distributed in the hope that it will be useful,
   but WITHOUT ANY WARRANTY; without even the implied warranty of
   MERCHANTABILITY or FITNESS FOR A PARTICULAR PURPOSE.  See the
   GNU Lesser General Public License for more details.
   
   Cite this work as:
   * C. Bannwarth, E. Caldeweyher, S. Ehlert, A. Hansen, P. Pracht,
     J. Seibert, S. Spicher, S. Grimme, WIREs Comput. Mol. Sci., 2020, 11,
     e01493. DOI: 10.1002/wcms.1493
   
   for GFN2-xTB:
   * C. Bannwarth, S. Ehlert and S. Grimme., J. Chem. Theory Comput., 2019,
     15, 1652-1671. DOI: 10.1021/acs.jctc.8b01176
   for GFN1-xTB:
   * S. Grimme, C. Bannwarth, P. Shushkov, J. Chem. Theory Comput., 2017,
     13, 1989-2009. DOI: 10.1021/acs.jctc.7b00118
   for GFN0-xTB:
   * P. Pracht, E. Caldeweyher, S. Ehlert, S. Grimme, ChemRxiv, 2019, preprint.
     DOI: 10.26434/chemrxiv.8326202.v1
   for GFN-FF:
   * S. Spicher and S. Grimme, Angew. Chem. Int. Ed., 2020, 59, 15665-15673.
     DOI: 10.1002/anie.202004239
   
   for ALPB and GBSA implicit solvation:
   * S. Ehlert, M. Stahn, S. Spicher, S. Grimme, J. Chem. Theory Comput.,
     2021, 17, 4250-4261. DOI: 10.1021/acs.jctc.1c00471
   
   for DFT-D4:
   * E. Caldeweyher, C. Bannwarth and S. Grimme, J. Chem. Phys., 2017,
     147, 034112. DOI: 10.1063/1.4993215
   * E. Caldeweyher, S. Ehlert, A. Hansen, H. Neugebauer, S. Spicher,
     C. Bannwarth and S. Grimme, J. Chem. Phys., 2019, 150, 154122.
     DOI: 10.1063/1.5090222
   * E. Caldeweyher, J.-M. Mewes, S. Ehlert and S. Grimme, Phys. Chem. Chem. Phys.
     2020, 22, 8499-8512. DOI: 10.1039/D0CP00502A
   
   for sTDA-xTB:
   * S. Grimme and C. Bannwarth, J. Chem. Phys., 2016, 145, 054103.
     DOI: 10.1063/1.4959605
   
   in the mass-spec context:
   * V. Asgeirsson, C. Bauer and S. Grimme, Chem. Sci., 2017, 8, 4879.
     DOI: 10.1039/c7sc00601b
   * J. Koopman and S. Grimme, ACS Omega 2019, 4, 12, 15120-15133.
     DOI: 10.1021/acsomega.9b02011
   
   for metadynamics refer to:
   * S. Grimme, J. Chem. Theory Comput., 2019, 155, 2847-2862
     DOI: 10.1021/acs.jctc.9b00143
   
   for SPH calculations refer to:
   * S. Spicher and S. Grimme, J. Chem. Theory Comput., 2021, 17, 1701-1714
     DOI: 10.1021/acs.jctc.0c01306
   
   with help from (in alphabetical order)
   P. Atkinson, C. Bannwarth, F. Bohle, G. Brandenburg, E. Caldeweyher
   M. Checinski, S. Dohm, S. Ehlert, S. Ehrlich, I. Gerasimov, C. Hölzer
   A. Katbashev, J. Koopman, C. Lavigne, S. Lehtola, F. März, M. Müller,
   F. Musil, H. Neugebauer, J. Pisarek, C. Plett, P. Pracht, F. Pultar,
   J. Seibert, P. Shushkov, S. Spicher, M. Stahn, M. Steiner, T. Strunk,
   J. Stückrath, T. Rose, and J. Unsleber
   
 * started run on 2023/01/24 at 15:07:15.384     

           -------------------------------------------------
          |                Calculation Setup                |
           -------------------------------------------------

          program call               : xtb init.xyz --opt -c 1 -u 0 -P 16 --alpb water
          hostname                   : gpg-woodward
          coordinate file            : init.xyz
          omp threads                :                    16

   ID    Z sym.   atoms
    1    8 O      1
    2    6 C      2-4
    3    7 N      5
    4    1 H      6-15

           -------------------------------------------------
          |                 G F N 2 - x T B                 |
           -------------------------------------------------

        Reference                      10.1021/acs.jctc.8b01176
      * Hamiltonian:
        H0-scaling (s, p, d)           1.850000    2.230000    2.230000
        zeta-weighting                 0.500000
      * Dispersion:
        s8                             2.700000
        a1                             0.520000
        a2                             5.000000
        s9                             5.000000
      * Repulsion:
        kExp                           1.500000    1.000000
        rExp                           1.000000
      * Coulomb:
        alpha                          2.000000
        third order                    shell-resolved
        anisotropic                    true
        a3                             3.000000
        a5                             4.000000
        cn-shift                       1.200000
        cn-exp                         4.000000
        max-rad                        5.000000

      * Solvation model:               ALPB
        Solvent                        water
        Parameter file                 internal GFN2-xTB/ALPB
        Dielectric constant                8.0200E+01
        Reference state                gsolv [1 M gas/solution]
        Free energy shift                  1.0808E-03 Eh       6.7819E-01 kcal/mol
        Temperature                        2.9815E+02 K
        Density                            1.0000E+00 kg/L
        Solvent mass                       1.8000E+01 g/mol
        Interaction kernel             P16
        Born radius scaling (c1)           1.4744E+00
        Born radii integrator          GBOBC
        Born offset                        0.0000E+00 a0       0.0000E+00 AA
        H-bond correction              true
        Ion screening                  false
        Surface tension                    1.0000E-05 Eh       1.5569E+01 dyn/cm
        Grid points                               230 per atom

          ...................................................
          :                      SETUP                      :
          :.................................................:
          :  # basis functions                  30          :
          :  # atomic orbitals                  30          :
          :  # shells                           20          :
          :  # electrons                        32          :
          :  max. iterations                   250          :
          :  Hamiltonian                  GFN2-xTB          :
          :  restarted?                      false          :
          :  GBSA solvation                   true          :
          :  PC potential                    false          :
          :  electronic temp.          300.0000000     K    :
          :  accuracy                    1.0000000          :
          :  -> integral cutoff          0.2500000E+02      :
          :  -> integral neglect         0.1000000E-07      :
          :  -> SCF convergence          0.1000000E-05 Eh   :
          :  -> wf. convergence          0.1000000E-03 e    :
          :  Broyden damping             0.4000000          :
          ...................................................

 iter      E             dE          RMSdq      gap      omega  full diag
   1    -18.3246224 -0.183246E+02  0.395E+00   11.43       0.0  T
   2    -18.3816154 -0.569930E-01  0.206E+00   10.55       1.0  T
   3    -18.3842414 -0.262595E-02  0.966E-01   10.15       1.0  T
   4    -18.3845232 -0.281811E-03  0.181E-01   10.19       1.0  T
   5    -18.3845727 -0.495076E-04  0.827E-02   10.23       1.0  T
   6    -18.3845785 -0.584960E-05  0.245E-02   10.27       1.1  T
   7    -18.3845791 -0.546708E-06  0.893E-03   10.27       2.9  T
   8    -18.3845792 -0.121656E-06  0.249E-03   10.27      10.4  T
   9    -18.3845792 -0.324486E-08  0.102E-03   10.27      25.4  T
  10    -18.3845792 -0.138351E-08  0.133E-04   10.27     194.1  T
  11    -18.3845792 -0.196003E-10  0.587E-05   10.27     440.1  T

   *** convergence criteria satisfied after 11 iterations ***

         #    Occupation            Energy/Eh            Energy/eV
      -------------------------------------------------------------
         1        2.0000           -0.7006022             -19.0644
       ...           ...                  ...                  ...
        10        2.0000           -0.5238494             -14.2547
        11        2.0000           -0.5173810             -14.0787
        12        2.0000           -0.4987303             -13.5711
        13        2.0000           -0.4707238             -12.8090
        14        2.0000           -0.4600632             -12.5190
        15        2.0000           -0.4433998             -12.0655
        16        2.0000           -0.4195903             -11.4176 (HOMO)
        17                         -0.0421821              -1.1478 (LUMO)
        18                          0.0129752               0.3531
        19                          0.0735362               2.0010
        20                          0.0820643               2.2331
        21                          0.1137184               3.0944
       ...                                ...                  ...
        30                          0.2860165               7.7829
      -------------------------------------------------------------
                  HL-Gap            0.3774081 Eh           10.2698 eV
             Fermi-level           -0.2308862 Eh           -6.2827 eV

 SCC (total)                   0 d,  0 h,  0 min,  0.011 sec
 SCC setup                      ...        0 min,  0.000 sec (  2.355%)
 Dispersion                     ...        0 min,  0.000 sec (  3.287%)
 classical contributions        ...        0 min,  0.000 sec (  0.547%)
 integral evaluation            ...        0 min,  0.000 sec (  3.792%)
 iterations                     ...        0 min,  0.009 sec ( 77.195%)
 molecular gradient             ...        0 min,  0.001 sec (  9.766%)
 printout                       ...        0 min,  0.000 sec (  0.956%)

         :::::::::::::::::::::::::::::::::::::::::::::::::::::
         ::                     SUMMARY                     ::
         :::::::::::::::::::::::::::::::::::::::::::::::::::::
         :: total energy             -18.182903577164 Eh    ::
         :: total w/o Gsasa/hb       -18.168907474206 Eh    ::
         :: gradient norm              0.037876118313 Eh/a0 ::
         :: HOMO-LUMO gap             10.269798246892 eV    ::
         ::.................................................::
         :: SCC energy               -18.384579213942 Eh    ::
         :: -> isotropic ES            0.130873029446 Eh    ::
         :: -> anisotropic ES         -0.016475827006 Eh    ::
         :: -> anisotropic XC          0.008679432206 Eh    ::
         :: -> dispersion             -0.006455914469 Eh    ::
         :: -> Gsolv                  -0.109887468133 Eh    ::
         ::    -> Gelec               -0.095891365175 Eh    ::
         ::    -> Gsasa               -0.000119715067 Eh    ::
         ::    -> Ghb                 -0.014957147589 Eh    ::
         ::    -> Gshift               0.001080759698 Eh    ::
         :: repulsion energy           0.201663300596 Eh    ::
         :: add. restraining           0.000000000000 Eh    ::
         :: total charge               1.000000000000 e     ::
         :::::::::::::::::::::::::::::::::::::::::::::::::::::

      ----------------------------------------------------------- 
     |                   =====================                   |
     |                        A N C O P T                        |
     |                   =====================                   |
     |               Approximate Normal Coordinate               |
     |                Rational Function Optimizer                |
      ----------------------------------------------------------- 

          ...................................................
          :                      SETUP                      :
          :.................................................:
          :   optimization level            normal          :
          :   max. optcycles                   200          :
          :   ANC micro-cycles                  20          :
          :   degrees of freedom                39          :
          :.................................................:
          :   RF solver                   davidson          :
          :   write xtbopt.log                true          :
          :   linear?                        false          :
          :   energy convergence         0.5000000E-05 Eh   :
          :   grad. convergence          0.1000000E-02 Eh/α :
          :   maximium RF displ.         1.0000000          :
          :   Hlow (freq-cutoff)         0.1000000E-01      :
          :   Hmax (freq-cutoff)         5.0000000          :
          :   S6 in model hess.         20.0000000          :
          ...................................................

generating ANC from model Hessian ...
Using Lindh-Hessian (1995)
 Shifting diagonal of input Hessian by    4.8182358170464883E-003
 Lowest  eigenvalues of input Hessian
    0.000000    0.000000    0.000000    0.000000    0.000000    0.000000
    0.010000    0.014319    0.022683    0.024043    0.029206    0.035874
    0.049540    0.058121    0.061155    0.062401    0.064421    0.069593
 Highest eigenvalues
    1.205256    1.277714    1.347649    1.407413    1.424275    1.467837


........................................................................
.............................. CYCLE    1 ..............................
........................................................................
   1    -18.3845792 -0.183846E+02  0.108E-05   10.27       0.0  T
   2    -18.3845792 -0.710543E-13  0.721E-06   10.27    3579.3  T
   3    -18.3845792 -0.135003E-12  0.135E-06   10.27   19066.5  T
     SCC iter.                  ...        0 min,  0.002 sec
     gradient                   ...        0 min,  0.001 sec
 * total energy  :   -18.1829036 Eh     change       -0.1201528E-10 Eh
   gradient norm :     0.0378755 Eh/α   predicted     0.0000000E+00 (-100.00%)
   displ. norm   :     0.2232878 α      lambda       -0.3547649E-02
   maximum displ.:     0.1329235 α      in ANC's #2, #6, #10, ...

........................................................................
.............................. CYCLE    2 ..............................
........................................................................
   1    -18.3899598 -0.183900E+02  0.200E-01   10.33       0.0  T
   2    -18.3899773 -0.174522E-04  0.114E-01   10.32       1.0  T
   3    -18.3899801 -0.279724E-05  0.187E-02   10.31       1.4  T
   4    -18.3899804 -0.344391E-06  0.648E-03   10.32       4.0  T
   5    -18.3899805 -0.519003E-07  0.253E-03   10.32      10.2  T
   6    -18.3899805 -0.579102E-08  0.881E-04   10.32      29.3  T
   7    -18.3899805 -0.118239E-08  0.271E-04   10.32      95.3  T
     SCC iter.                  ...        0 min,  0.005 sec
     gradient                   ...        0 min,  0.001 sec
 * total energy  :   -18.1852222 Eh     change       -0.2318616E-02 Eh
   gradient norm :     0.0149193 Eh/α   predicted    -0.1862263E-02 ( -19.68%)
   displ. norm   :     0.1693261 α      lambda       -0.8751149E-03
   maximum displ.:     0.1363927 α      in ANC's #2, #6, #3, ...

........................................................................
.............................. CYCLE    3 ..............................
........................................................................
   1    -18.3923074 -0.183923E+02  0.100E-01   10.38       0.0  T
   2    -18.3923140 -0.665821E-05  0.579E-02   10.37       1.0  T
   3    -18.3923148 -0.775848E-06  0.125E-02   10.37       2.1  T
   4    -18.3923150 -0.185153E-06  0.399E-03   10.37       6.5  T
   5    -18.3923150 -0.168429E-07  0.154E-03   10.38      16.7  T
   6    -18.3923150 -0.168284E-08  0.417E-04   10.38      61.9  T
   7    -18.3923150 -0.254396E-09  0.163E-04   10.38     158.4  T
     SCC iter.                  ...        0 min,  0.005 sec
     gradient                   ...        0 min,  0.001 sec
 * total energy  :   -18.1857814 Eh     change       -0.5592261E-03 Eh
   gradient norm :     0.0062364 Eh/α   predicted    -0.4501031E-03 ( -19.51%)
   displ. norm   :     0.1316499 α      lambda       -0.2538962E-03
   maximum displ.:     0.1139956 α      in ANC's #2, #7, #3, ...

........................................................................
.............................. CYCLE    4 ..............................
........................................................................
   1    -18.3928372 -0.183928E+02  0.644E-02   10.39       0.0  T
   2    -18.3928386 -0.140372E-05  0.388E-02   10.39       1.0  T
   3    -18.3928389 -0.258152E-06  0.539E-03   10.39       4.8  T
   4    -18.3928389 -0.547392E-07  0.219E-03   10.39      11.8  T
   5    -18.3928389 -0.295201E-08  0.743E-04   10.39      34.8  T
   6    -18.3928389 -0.509711E-09  0.157E-04   10.39     164.6  T
     SCC iter.                  ...        0 min,  0.004 sec
     gradient                   ...        0 min,  0.001 sec
 * total energy  :   -18.1859618 Eh     change       -0.1804036E-03 Eh
   gradient norm :     0.0035938 Eh/α   predicted    -0.1291481E-03 ( -28.41%)
   displ. norm   :     0.1287970 α      lambda       -0.1452066E-03
   maximum displ.:     0.1096713 α      in ANC's #2, #7, #3, ...

........................................................................
.............................. CYCLE    5 ..............................
........................................................................
   1    -18.3928971 -0.183929E+02  0.645E-02   10.37       0.0  T
   2    -18.3928977 -0.661177E-06  0.394E-02   10.38       1.0  T
   3    -18.3928980 -0.276528E-06  0.355E-03   10.38       7.3  T
   4    -18.3928980 -0.145310E-07  0.187E-03   10.38      13.8  T
   5    -18.3928980 -0.230332E-08  0.487E-04   10.38      53.0  T
   6    -18.3928980 -0.353854E-09  0.162E-04   10.38     159.6  T
     SCC iter.                  ...        0 min,  0.004 sec
     gradient                   ...        0 min,  0.001 sec
 * total energy  :   -18.1860539 Eh     change       -0.9206987E-04 Eh
   gradient norm :     0.0031497 Eh/α   predicted    -0.7380964E-04 ( -19.83%)
   displ. norm   :     0.0588792 α      lambda       -0.3931381E-04
   maximum displ.:     0.0491776 α      in ANC's #2, #7, #3, ...

........................................................................
.............................. CYCLE    6 ..............................
........................................................................
   1    -18.3932560 -0.183933E+02  0.303E-02   10.36       0.0  T
   2    -18.3932561 -0.122136E-06  0.184E-02   10.36       1.4  T
   3    -18.3932562 -0.491235E-07  0.159E-03   10.36      16.3  T
   4    -18.3932562 -0.298260E-08  0.846E-04   10.36      30.5  T
   5    -18.3932562 -0.347409E-09  0.145E-04   10.36     177.7  T
     SCC iter.                  ...        0 min,  0.004 sec
     gradient                   ...        0 min,  0.001 sec
 * total energy  :   -18.1860802 Eh     change       -0.2626197E-04 Eh
   gradient norm :     0.0023022 Eh/α   predicted    -0.1972485E-04 ( -24.89%)
   displ. norm   :     0.0337689 α      lambda       -0.1620411E-04
   maximum displ.:     0.0264395 α      in ANC's #2, #5, #7, ...

........................................................................
.............................. CYCLE    7 ..............................
........................................................................
   1    -18.3934836 -0.183935E+02  0.178E-02   10.35       0.0  T
   2    -18.3934837 -0.746635E-07  0.108E-02   10.35       2.4  T
   3    -18.3934837 -0.158787E-07  0.128E-03   10.35      20.2  T
   4    -18.3934837 -0.362056E-08  0.556E-04   10.35      46.4  T
   5    -18.3934837 -0.114028E-09  0.104E-04   10.35     247.3  T
     SCC iter.                  ...        0 min,  0.004 sec
     gradient                   ...        0 min,  0.001 sec
 * total energy  :   -18.1860911 Eh     change       -0.1091001E-04 Eh
   gradient norm :     0.0011773 Eh/α   predicted    -0.8112529E-05 ( -25.64%)
   displ. norm   :     0.0370876 α      lambda       -0.8024815E-05
   maximum displ.:     0.0231531 α      in ANC's #5, #2, #3, ...

........................................................................
.............................. CYCLE    8 ..............................
........................................................................
   1    -18.3935907 -0.183936E+02  0.167E-02   10.35       0.0  T
   2    -18.3935908 -0.910515E-07  0.101E-02   10.35       2.5  T
   3    -18.3935909 -0.169617E-07  0.143E-03   10.35      18.1  T
   4    -18.3935909 -0.462110E-08  0.576E-04   10.35      44.8  T
   5    -18.3935909 -0.206537E-09  0.203E-04   10.35     127.2  T
     SCC iter.                  ...        0 min,  0.004 sec
     gradient                   ...        0 min,  0.001 sec
 * total energy  :   -18.1860981 Eh     change       -0.7030467E-05 Eh
   gradient norm :     0.0008842 Eh/α   predicted    -0.4014501E-05 ( -42.90%)
   displ. norm   :     0.0242140 α      lambda       -0.4143537E-05
   maximum displ.:     0.0167433 α      in ANC's #3, #5, #6, ...

........................................................................
.............................. CYCLE    9 ..............................
........................................................................
   1    -18.3935274 -0.183935E+02  0.825E-03   10.36       0.0  T
   2    -18.3935274 -0.181590E-07  0.494E-03   10.36       5.2  T
   3    -18.3935274 -0.383754E-08  0.550E-04   10.36      46.9  T
   4    -18.3935274 -0.449571E-09  0.217E-04   10.36     119.1  T
     SCC iter.                  ...        0 min,  0.003 sec
     gradient                   ...        0 min,  0.001 sec
 * total energy  :   -18.1861029 Eh     change       -0.4756961E-05 Eh
   gradient norm :     0.0007783 Eh/α   predicted    -0.2072722E-05 ( -56.43%)
   displ. norm   :     0.0357162 α      lambda       -0.4119144E-05
   maximum displ.:     0.0244120 α      in ANC's #3, #5, #6, ...

   *** GEOMETRY OPTIMIZATION CONVERGED AFTER 9 ITERATIONS ***

------------------------------------------------------------------------
 total energy gain   :        -0.0031993 Eh       -2.0076 kcal/mol
 total RMSD          :         0.1789069 a0        0.0947 Å
 total power (kW/mol):        -0.9332995 (step) -131.4711 (real)
------------------------------------------------------------------------

 ANCopt (total)                0 d,  0 h,  0 min,  0.064 sec
 optimizer setup                ...        0 min,  0.000 sec (  0.218%)
 model hessian                  ...        0 min,  0.006 sec (  9.615%)
 ANC generation                 ...        0 min,  0.001 sec (  1.047%)
 coordinate transformation      ...        0 min,  0.000 sec (  0.423%)
 single point calculation       ...        0 min,  0.053 sec ( 82.504%)
 optimization log               ...        0 min,  0.001 sec (  1.600%)
 hessian update                 ...        0 min,  0.000 sec (  0.530%)
 rational function              ...        0 min,  0.001 sec (  1.830%)

================
 final structure:
================
15
 xtb: 6.5.1 (fef0646)
O            2.81258098346870        1.30862974620603       -0.61063644290994
C            2.36986758077980        0.04602079369953       -0.12785575684343
C            2.90930048975324       -0.16418446591658        1.28757316796615
C            4.43311162862678       -0.20473985310504        1.31584000620463
N            4.97012471627587        1.13953225433342        0.99695239107824
H            2.39058993271581        1.51127922891613       -1.45231749550280
H            2.72889766124162       -0.75223570837201       -0.78978946426941
H            1.27576677949548        0.00838881512091       -0.10835458066660
H            2.51144635411183       -1.10347623895501        1.66618803332981
H            2.54269040837803        0.63924971829028        1.92648336562565
H            4.79158269347911       -0.91632513528197        0.57163491489819
H            4.78314045242241       -0.52052935209869        2.29802100807770
H            4.43463019818739        1.49388888344274        0.17827745086973
H            5.97073806947233        1.11100127340271        0.78376677725573
H            4.80781205159158        1.78638004031754        1.77488662488638

 Bond Distances (Angstroems)
 ---------------------------
O1-C2=1.4224         O1-H6=0.9631         C2-O1=1.4224         C2-C3=1.5293         C2-H7=1.0974         C2-H8=1.0949         
C3-C2=1.5293         C3-C4=1.5246         C3-H9=1.0881         C3-H10=1.0900        C4-C3=1.5246         C4-N5=1.4823         
C4-H11=1.0903        C4-H12=1.0895        N5-C4=1.4823         N5-H13=1.0405        N5-H14=1.0235        N5-H15=1.0247        
H6-O1=0.9631         H7-C2=1.0974         H8-C2=1.0949         H9-C3=1.0881         H10-C3=1.0900        H11-C4=1.0903        
H12-C4=1.0895        H13-N5=1.0405        H14-N5=1.0235        H15-N5=1.0247        
 C  H  Rav=1.0917 sigma=0.0033  Rmin=1.0881  Rmax=1.0974     6
 C  C  Rav=1.5269 sigma=0.0023  Rmin=1.5246  Rmax=1.5293     2
 N  H  Rav=1.0295 sigma=0.0077  Rmin=1.0235  Rmax=1.0405     3
 N  C  Rav=1.4823 sigma=0.0000  Rmin=1.4823  Rmax=1.4823     1
 O  H  Rav=0.9631 sigma=0.0000  Rmin=0.9631  Rmax=0.9631     1
 O  C  Rav=1.4224 sigma=0.0000  Rmin=1.4224  Rmax=1.4224     1

 selected bond angles (degree)
 --------------------
H6-O1-C2=110.31                C3-C2-O1=109.05                H7-C2-O1=109.82                H7-C2-C3=110.05                
H8-C2-O1=110.34                H8-C2-C3=109.35                H8-C2-H7=108.22                C4-C3-C2=111.92                
H9-C3-C2=108.16                H9-C3-C4=109.64                H10-C3-C2=108.82               H10-C3-C4=110.18               
H10-C3-H9=108.02               N5-C4-C3=109.51                H11-C4-C3=109.47               H11-C4-N5=109.02               
H12-C4-C3=110.21               H12-C4-N5=109.90               H12-C4-H11=108.70              H13-N5-C4=106.96               
H14-N5-C4=111.95               H14-N5-H13=110.41              H15-N5-C4=110.60               H15-N5-H13=107.51              
H15-N5-H14=109.31              

 selected dihedral angles (degree)
 ---------------------------------
C3-C2-O1-H6=187.41            H7-C2-O1-H6= 66.74            H8-C2-O1-H6=307.53            C4-C3-C2-O1=297.36            
C4-C3-C2-H7= 57.89            C4-C3-C2-H8=176.64            H9-C3-C2-O1=176.48            H9-C3-C2-H7=297.01            
H9-C3-C2-H8= 55.75            H10-C3-C2-O1= 59.36           H10-C3-C2-H7=179.89           H10-C3-C2-H8=298.64           
N5-C4-C3-C2= 68.48            N5-C4-C3-H9=188.51            N5-C4-C3-H10=307.26           H11-C4-C3-C2=309.01           
H11-C4-C3-H9= 69.04           H11-C4-C3-H10=187.79          H12-C4-C3-C2=189.51           H12-C4-C3-H9=309.53           
H12-C4-C3-H10= 68.28          H13-N5-C4-C3=314.82           H13-N5-C4-H11= 74.57          H13-N5-C4-H12=193.61          
H14-N5-C4-C3=193.75           H14-N5-C4-H11=313.50          H14-N5-C4-H12= 72.54          H15-N5-C4-C3= 71.60           
H15-N5-C4-H11=191.35          H15-N5-C4-H12=310.39          
           -------------------------------------------------
          |                Final Singlepoint                |
           -------------------------------------------------

          ...................................................
          :                      SETUP                      :
          :.................................................:
          :  # basis functions                  30          :
          :  # atomic orbitals                  30          :
          :  # shells                           20          :
          :  # electrons                        32          :
          :  max. iterations                   250          :
          :  Hamiltonian                  GFN2-xTB          :
          :  restarted?                      false          :
          :  GBSA solvation                   true          :
          :  PC potential                    false          :
          :  electronic temp.          300.0000000     K    :
          :  accuracy                    1.0000000          :
          :  -> integral cutoff          0.2500000E+02      :
          :  -> integral neglect         0.1000000E-07      :
          :  -> SCF convergence          0.1000000E-05 Eh   :
          :  -> wf. convergence          0.1000000E-03 e    :
          :  Broyden damping             0.4000000          :
          ...................................................

 iter      E             dE          RMSdq      gap      omega  full diag
   1    -18.3935274 -0.183935E+02  0.101E-04   10.36       0.0  T
   2    -18.3935274 -0.710898E-11  0.639E-05   10.36     403.9  T
   3    -18.3935274 -0.235900E-11  0.159E-05   10.36    1619.7  T

   *** convergence criteria satisfied after 3 iterations ***

         #    Occupation            Energy/Eh            Energy/eV
      -------------------------------------------------------------
         1        2.0000           -0.6995770             -19.0365
       ...           ...                  ...                  ...
        10        2.0000           -0.5236622             -14.2496
        11        2.0000           -0.5176023             -14.0847
        12        2.0000           -0.4961309             -13.5004
        13        2.0000           -0.4704049             -12.8004
        14        2.0000           -0.4630233             -12.5995
        15        2.0000           -0.4439173             -12.0796
        16        2.0000           -0.4182391             -11.3809 (HOMO)
        17                         -0.0376687              -1.0250 (LUMO)
        18                          0.0241038               0.6559
        19                          0.0726661               1.9773
        20                          0.0779037               2.1199
        21                          0.1109505               3.0191
       ...                                ...                  ...
        30                          0.2818255               7.6689
      -------------------------------------------------------------
                  HL-Gap            0.3805703 Eh           10.3558 eV
             Fermi-level           -0.2279539 Eh           -6.2029 eV

 SCC (total)                   0 d,  0 h,  0 min,  0.004 sec
 SCC setup                      ...        0 min,  0.000 sec (  5.121%)
 Dispersion                     ...        0 min,  0.000 sec (  2.969%)
 classical contributions        ...        0 min,  0.000 sec (  1.107%)
 integral evaluation            ...        0 min,  0.000 sec (  9.170%)
 iterations                     ...        0 min,  0.002 sec ( 52.358%)
 molecular gradient             ...        0 min,  0.001 sec ( 22.813%)
 printout                       ...        0 min,  0.000 sec (  2.217%)

         :::::::::::::::::::::::::::::::::::::::::::::::::::::
         ::                     SUMMARY                     ::
         :::::::::::::::::::::::::::::::::::::::::::::::::::::
         :: total energy             -18.186102852391 Eh    ::
         :: total w/o Gsasa/hb       -18.171756052334 Eh    ::
         :: gradient norm              0.000778970773 Eh/a0 ::
         :: HOMO-LUMO gap             10.355845742926 eV    ::
         ::.................................................::
         :: SCC energy               -18.393527407157 Eh    ::
         :: -> isotropic ES            0.133673679709 Eh    ::
         :: -> anisotropic ES         -0.017539650465 Eh    ::
         :: -> anisotropic XC          0.008278332986 Eh    ::
         :: -> dispersion             -0.006448768981 Eh    ::
         :: -> Gsolv                  -0.111895858018 Eh    ::
         ::    -> Gelec               -0.097549057961 Eh    ::
         ::    -> Gsasa               -0.000111557283 Eh    ::
         ::    -> Ghb                 -0.015316002472 Eh    ::
         ::    -> Gshift               0.001080759698 Eh    ::
         :: repulsion energy           0.207412125284 Eh    ::
         :: add. restraining           0.000000000000 Eh    ::
         :: total charge               1.000000000000 e     ::
         :::::::::::::::::::::::::::::::::::::::::::::::::::::

           -------------------------------------------------
          |                Property Printout                |
           -------------------------------------------------

    * Orbital Energies and Occupations

         #    Occupation            Energy/Eh            Energy/eV
      -------------------------------------------------------------
         1        2.0000           -0.6995770             -19.0365
       ...           ...                  ...                  ...
         4        2.0000           -0.6257982             -17.0288
         5        2.0000           -0.6001705             -16.3315
         6        2.0000           -0.5877035             -15.9922
         7        2.0000           -0.5770276             -15.7017
         8        2.0000           -0.5599646             -15.2374
         9        2.0000           -0.5497021             -14.9582
        10        2.0000           -0.5236622             -14.2496
        11        2.0000           -0.5176023             -14.0847
        12        2.0000           -0.4961309             -13.5004
        13        2.0000           -0.4704049             -12.8004
        14        2.0000           -0.4630233             -12.5995
        15        2.0000           -0.4439173             -12.0796
        16        2.0000           -0.4182391             -11.3809 (HOMO)
        17                         -0.0376687              -1.0250 (LUMO)
        18                          0.0241038               0.6559
        19                          0.0726661               1.9773
        20                          0.0779037               2.1199
        21                          0.1109505               3.0191
        22                          0.1195081               3.2520
        23                          0.1410480               3.8381
        24                          0.1491800               4.0594
        25                          0.1695536               4.6138
        26                          0.2153785               5.8607
        27                          0.2302707               6.2660
       ...                                ...                  ...
        30                          0.2818255               7.6689
      -------------------------------------------------------------
                  HL-Gap            0.3805703 Eh           10.3558 eV
             Fermi-level           -0.2279539 Eh           -6.2029 eV

     #   Z          covCN         q      C6AA      α(0)
     1   8 O        1.654    -0.494    22.767     6.441
     2   6 C        3.673     0.066    19.696     6.360
     3   6 C        3.802    -0.091    22.235     6.713
     4   6 C        3.732    -0.034    21.268     6.583
     5   7 N        3.485    -0.170    24.657     7.375
     6   1 H        0.805     0.357     0.573     1.188
     7   1 H        0.924     0.038     2.470     2.458
     8   1 H        0.924     0.030     2.593     2.518
     9   1 H        0.925     0.074     2.046     2.237
    10   1 H        0.925     0.084     1.934     2.175
    11   1 H        0.924     0.107     1.725     2.054
    12   1 H        0.925     0.106     1.731     2.058
    13   1 H        0.858     0.319     0.660     1.273
    14   1 H        0.859     0.306     0.695     1.305
    15   1 H        0.859     0.301     0.709     1.319

 Mol. C6AA /au·bohr⁶  :       1246.118586
 Mol. C8AA /au·bohr⁸  :      25526.560782
 Mol. α(0) /au        :         52.056932


Wiberg/Mayer (AO) data.
largest (>0.10) Wiberg bond orders for each atom

 ---------------------------------------------------------------------------
     #   Z sym  total        # sym  WBO       # sym  WBO       # sym  WBO
 ---------------------------------------------------------------------------
     1   8 O    1.948 --     2 C    0.986     6 H    0.856
     2   6 C    3.952 --     3 C    1.006     1 O    0.986     8 H    0.974
                             7 H    0.970
     3   6 C    3.989 --     4 C    1.014     2 C    1.006    10 H    0.968
                             9 H    0.968
     4   6 C    3.935 --     3 C    1.014     5 N    0.971    12 H    0.968
                            11 H    0.966
     5   7 N    3.645 --     4 C    0.971    15 H    0.895    14 H    0.893
                            13 H    0.843
     6   1 H    0.873 --     1 O    0.856
     7   1 H    0.999 --     2 C    0.970
     8   1 H    0.999 --     2 C    0.974
     9   1 H    0.995 --     3 C    0.968
    10   1 H    0.993 --     3 C    0.968
    11   1 H    0.989 --     4 C    0.966
    12   1 H    0.989 --     4 C    0.968
    13   1 H    0.898 --     5 N    0.843
    14   1 H    0.906 --     5 N    0.893
    15   1 H    0.909 --     5 N    0.895
 ---------------------------------------------------------------------------

Topologies differ in total number of bonds
Writing topology from bond orders to xtbtopo.mol

molecular dipole:
                 x           y           z       tot (Debye)
 q only:        8.723       1.645       1.574
   full:        8.573       1.650       1.379      22.467
molecular quadrupole (traceless):
                xx          xy          yy          xz          yz          zz
 q only:       74.971      23.819     -38.598      24.437       3.016     -36.373
  q+dip:       73.876      23.048     -39.207      23.197       3.970     -34.669
   full:       73.711      23.612     -38.730      23.303       3.367     -34.981

           -------------------------------------------------
          |                Geometry Summary                 |
           -------------------------------------------------

      molecular mass/u    :       76.1177233
   center of mass at/Å    :        3.5181213       0.4769398       0.5364145
  moments of inertia/u·Å² :        0.7061413E+02   0.1277427E+03   0.1771830E+03
rotational constants/cm⁻¹ :        0.2387289E+00   0.1319655E+00   0.9514250E-01

 * 14 selected distances

     #   Z          #   Z                                           value/Å
     1   8 O        2   6 C                                       1.4224114
     2   6 C        3   6 C                                       1.5292526 (max)
     3   6 C        4   6 C                                       1.5246129
     4   6 C        5   7 N                                       1.4822754
     1   8 O        6   1 H                                       0.9631046 (min)
     2   6 C        7   1 H                                       1.0973935
     2   6 C        8   1 H                                       1.0949216
     3   6 C        9   1 H                                       1.0880746
     3   6 C       10   1 H                                       1.0900073
     4   6 C       11   1 H                                       1.0902736
     4   6 C       12   1 H                                       1.0894599
     5   7 N       13   1 H                                       1.0404575
     5   7 N       14   1 H                                       1.0234693
     5   7 N       15   1 H                                       1.0246655

 * 6 distinct bonds (by element types)

   Z      Z             #   av. dist./Å        max./Å        min./Å
   1 H    6 C           6     1.0916884     1.0973935     1.0880746
   6 C    6 C           2     1.5269328     1.5292526     1.5246129
   1 H    7 N           3     1.0295308     1.0404575     1.0234693
   6 C    7 N           1     1.4822754     1.4822754     1.4822754
   1 H    8 O           1     0.9631046     0.9631046     0.9631046
   6 C    8 O           1     1.4224114     1.4224114     1.4224114


optimized geometry written to: xtbopt.xyz


           -------------------------------------------------
          | TOTAL ENERGY              -18.186102852391 Eh   |
          | GRADIENT NORM               0.000778970773 Eh/α |
          | HOMO-LUMO GAP              10.355845742926 eV   |
           -------------------------------------------------

------------------------------------------------------------------------
 * finished run on 2023/01/24 at 15:07:15.489     
------------------------------------------------------------------------
 total:
 * wall-time:     0 d,  0 h,  0 min,  0.105 sec
 *  cpu-time:     0 d,  0 h,  0 min, 14.542 sec
 * ratio c/w:   138.930 speedup
 SCF:
 * wall-time:     0 d,  0 h,  0 min,  0.011 sec
 *  cpu-time:     0 d,  0 h,  0 min,  1.600 sec
 * ratio c/w:   140.528 speedup
 ANC optimizer:
 * wall-time:     0 d,  0 h,  0 min,  0.069 sec
 *  cpu-time:     0 d,  0 h,  0 min,  9.755 sec
 * ratio c/w:   140.919 speedup

