15
 energy: -18.186102852391 gnorm: 0.000778970773 xtb: 6.5.1 (fef0646)
O            2.81258098346870        1.30862974620603       -0.61063644290994
C            2.36986758077980        0.04602079369953       -0.12785575684343
C            2.90930048975324       -0.16418446591658        1.28757316796615
C            4.43311162862678       -0.20473985310504        1.31584000620463
N            4.97012471627587        1.13953225433342        0.99695239107824
H            2.39058993271581        1.51127922891613       -1.45231749550280
H            2.72889766124162       -0.75223570837201       -0.78978946426941
H            1.27576677949548        0.00838881512091       -0.10835458066660
H            2.51144635411183       -1.10347623895501        1.66618803332981
H            2.54269040837803        0.63924971829028        1.92648336562565
H            4.79158269347911       -0.91632513528197        0.57163491489819
H            4.78314045242241       -0.52052935209869        2.29802100807770
H            4.43463019818739        1.49388888344274        0.17827745086973
H            5.97073806947233        1.11100127340271        0.78376677725573
H            4.80781205159158        1.78638004031754        1.77488662488638
