48
 energy: -82.513900838280 gnorm: 0.000470971360 xtb: 6.5.1 (fef0646)
N            3.40387060013013        1.71005889638189        1.03082551117103
C            2.76215208564292        1.97771124956034       -0.24652766617121
C            3.66940350057770        2.68627939316702       -1.27524994889007
C            4.80795668210788        1.82234108393502       -1.69078543845989
C            4.87805417157107        0.97120896445298       -2.75387457025115
C            6.08747486076219        0.26037449298800       -2.82524949067697
C            6.95440276187311        0.56113508417205       -1.80580150231031
C            8.25510493224004        0.03540327308338       -1.56750337441628
C            9.12379378838179        0.33303512438940       -0.54464465543128
C           10.33846795616053       -0.36250142182640       -0.60123292811323
C           11.41055917330030       -0.18210893980299        0.41846587086244
C           10.40315820098526       -1.21762689945328       -1.69331277936561
C           11.45633686350465       -2.08344877022519       -2.09380785154938
C           11.46650838825915       -2.99388808038330       -3.14020001612958
C           10.39952090767390       -3.24738917670339       -4.01725622916091
N            9.55628579874904       -3.49137177507680       -4.75664175230689
C           12.69735396084975       -3.70203811407000       -3.26535797820268
C           12.86850055807899       -4.66276202834017       -4.27617219705895
N           12.95768052502499       -5.43518126004116       -5.11978895032960
C           13.64354564240521       -3.33896103108012       -2.32046390322497
C           14.96476184813304       -3.84400426577699       -2.15346669772624
C           15.93359504757374       -3.46240927589745       -1.24001038512761
C           15.78554191084500       -2.39649257867861       -0.20874159352739
C           17.12089982671834       -4.20787780573384       -1.39095150558890
C           17.05951311570346       -5.12962626088719       -2.38748200987490
S           15.54690737881748       -5.12690267522296       -3.18882820826088
S           12.99172121283213       -2.11089757628440       -1.26943918955070
S            8.93781806365746       -1.14234238558096       -2.64319341844158
S            6.25961826310686        1.74963838561454       -0.73889273008501
Cl           1.50665915014987        0.40509086501744        2.87137008616679
H            2.38040709917609        1.00101894132209        2.01975545472963
H            3.72036085259129        2.57127833515070        1.46477584260043
H            4.20695071513769        1.10007606298041        0.91280727173780
H            1.88651683141608        2.60108484692871       -0.05525352684938
H            2.42374786448467        1.02389577834456       -0.65659989938438
H            4.04461870627592        3.61433881534091       -0.83672127108793
H            3.07133380164939        2.93536387720511       -2.15300267936349
H            4.08400564392899        0.86391616428704       -3.47094914120849
H            6.32653037327342       -0.45115765279576       -3.59545582467300
H            8.88370122056785        1.04085801437675        0.22978393860035
H           11.06630946177009        0.49056982427541        1.19927601784944
H           12.30872826668701        0.24000363672146       -0.03251402988926
H           11.68046320306352       -1.13489789786296        0.87309218446389
H           14.98604555064922       -2.63911275443564        0.49161005844179
H           15.54671526712024       -1.43790080290678       -0.66966918749539
H           16.71278601884278       -2.29176710200083        0.34816273286172
H           17.98884446572887       -4.05788713908340       -0.77394529500901
H           17.81875748184328       -5.81685743953978       -2.70356714431277
