 Entering Gaussian System
 *********************************************
 Gaussian 98:
 frequency output generated by the xtb code
 *********************************************
                         Standard orientation:
 --------------------------------------------------------------------
  Center     Atomic     Atomic              Coordinates (Angstroms)
  Number     Number      Type              X           Y           Z
 --------------------------------------------------------------------
    1          7             0       -1.456743    1.222858    0.283863
    2          6             0       -0.197508    0.640491   -0.259160
    3          6             0        1.000098    1.562715   -0.076036
    4          6             0        2.297693    0.978177   -0.632510
    5          6             0        2.742369   -0.271334    0.082341
    6          8             0        2.132282   -0.578529    1.250044
    7          8             0        3.627804   -0.944990   -0.399061
    8         17             0       -4.119767   -1.053399   -0.194724
    9          1             0       -2.257467    0.580102    0.156847
   10          1             0       -1.685980    2.107209   -0.186358
   11          1             0       -1.366488    1.416190    1.288822
   12          1             0       -0.327753    0.408069   -1.322320
   13          1             0        0.001539   -0.320260    0.229801
   14          1             0        1.130513    1.773726    0.990763
   15          1             0        0.786471    2.530555   -0.543627
   16          1             0        3.107577    1.712033   -0.575604
   17          1             0        2.178088    0.744576   -1.694209
   18          1             0        2.529499   -1.387231    1.602794
 --------------------------------------------------------------------
     1 basis functions        1 primitive gaussians
     1 alpha electrons        1 beta electrons

 Harmonic frequencies (cm**-1), IR intensities (km*mol⁻¹),
 Raman scattering activities (A**4/amu), Raman depolarization ratios,
 reduced masses (AMU), force constants (mDyne/A) and normal coordinates:
                      1                      2                      3
                        a                      a                      a 
 Frequencies --   -45.9551                38.7657                69.2560
 Red. masses --    26.5919                19.7305                13.2718
 Frc consts  --     0.0000                 0.0000                 0.0000
 IR Inten    --    82.9145                20.7105                26.1512
 Raman Activ --     0.0000                 0.0000                 0.0000
 Depolar     --     0.0000                 0.0000                 0.0000
 Atom AN      X      Y      Z        X      Y      Z        X      Y      Z
   1   7     0.22   0.28   0.05     0.03   0.29  -0.07    -0.03  -0.18  -0.46
   2   6     0.16   0.18   0.03     0.03   0.23  -0.02     0.09   0.01  -0.35
   3   6     0.21   0.11   0.01     0.07   0.17   0.05     0.02   0.01   0.14
   4   6     0.17   0.03   0.00     0.06   0.08   0.11     0.17   0.21   0.28
   5   6     0.09  -0.01  -0.00    -0.19  -0.07  -0.00     0.04   0.03   0.05
   6   8     0.08   0.03  -0.00    -0.20   0.01   0.03    -0.11  -0.22  -0.08
   7   8     0.05  -0.07  -0.01    -0.49  -0.33  -0.15     0.05   0.10  -0.01
   8  17    -0.69  -0.41  -0.05     0.44  -0.29   0.04    -0.14   0.05   0.33
   9   1     0.05   0.09   0.02     0.01   0.07  -0.01     0.01  -0.07  -0.14
  10   1     0.07   0.08   0.01     0.01   0.07  -0.04    -0.03  -0.05  -0.11
  11   1     0.07   0.08   0.01     0.01   0.10  -0.02    -0.03  -0.07  -0.12
  12   1     0.04   0.05   0.01     0.02   0.07  -0.01     0.09   0.08  -0.13
  13   1     0.03   0.05   0.01    -0.01   0.06  -0.01     0.01  -0.03  -0.16
  14   1     0.07   0.03   0.00     0.01   0.04   0.02    -0.06  -0.07   0.07
  15   1     0.08   0.04   0.00     0.05   0.05   0.02     0.03   0.04   0.10
  16   1     0.06  -0.01   0.00     0.04  -0.01   0.08     0.04   0.06   0.19
  17   1     0.04   0.01   0.00     0.04   0.06   0.02     0.12   0.14   0.06
  18   1     0.01   0.00  -0.00    -0.10  -0.03  -0.01    -0.06  -0.09  -0.06
                      4                      5                      6
                        a                      a                      a 
 Frequencies --    81.1726               104.7422               157.6330
 Red. masses --    14.0923                 9.3417                10.0249
 Frc consts  --     0.0000                 0.0000                 0.0000
 IR Inten    --     6.7313                18.6181                 4.6659
 Raman Activ --     0.0000                 0.0000                 0.0000
 Depolar     --     0.0000                 0.0000                 0.0000
 Atom AN      X      Y      Z        X      Y      Z        X      Y      Z
   1   7     0.01   0.27   0.13     0.20  -0.37   0.37     0.15  -0.17   0.05
   2   6    -0.13   0.22  -0.17     0.07   0.06  -0.35     0.24  -0.19   0.32
   3   6     0.02  -0.01  -0.05     0.04   0.06  -0.18     0.06   0.15  -0.20
   4   6    -0.08  -0.16  -0.12     0.09   0.07  -0.05     0.14   0.16  -0.01
   5   6    -0.03  -0.08  -0.01    -0.06   0.05   0.03    -0.09   0.06  -0.04
   6   8    -0.38  -0.30  -0.25    -0.13   0.23   0.06    -0.46  -0.09  -0.27
   7   8     0.37   0.20   0.33    -0.18  -0.12   0.10    -0.01   0.08   0.12
   8  17     0.16  -0.11   0.10    -0.04   0.04  -0.03    -0.02   0.03   0.02
   9   1    -0.02   0.10   0.02     0.05  -0.08   0.04     0.06  -0.08   0.05
  10   1     0.01   0.11   0.11     0.01  -0.01   0.28     0.02  -0.10  -0.07
  11   1     0.05  -0.00   0.05     0.13  -0.29   0.13     0.01   0.05  -0.00
  12   1    -0.08   0.15  -0.06    -0.06   0.18  -0.13     0.08  -0.22   0.13
  13   1    -0.06   0.02  -0.13     0.08  -0.05  -0.26     0.12   0.03   0.23
  14   1     0.02  -0.05  -0.01    -0.02  -0.01  -0.04     0.02   0.19  -0.09
  15   1     0.05   0.03   0.03     0.02   0.03  -0.03    -0.05  -0.03  -0.18
  16   1    -0.01  -0.06  -0.09     0.03   0.02   0.02     0.04   0.03   0.05
  17   1    -0.06  -0.08  -0.02     0.06   0.02  -0.02     0.09   0.07  -0.01
  18   1    -0.09  -0.06  -0.04    -0.06   0.06   0.04    -0.17  -0.06  -0.09
                      7                      8                      9
                        a                      a                      a 
 Frequencies --   239.5468               287.1778               309.0240
 Red. masses --     9.4629                 9.0510                 1.6629
 Frc consts  --     0.0000                 0.0000                 0.0000
 IR Inten    --     1.3409                17.7322                 0.2593
 Raman Activ --     0.0000                 0.0000                 0.0000
 Depolar     --     0.0000                 0.0000                 0.0000
 Atom AN      X      Y      Z        X      Y      Z        X      Y      Z
   1   7     0.04  -0.13  -0.13    -0.15  -0.28  -0.09     0.01  -0.04   0.14
   2   6     0.17  -0.02   0.11     0.20   0.35   0.06    -0.05   0.05  -0.13
   3   6     0.19  -0.12   0.46     0.14   0.44  -0.01     0.00  -0.03   0.02
   4   6    -0.08  -0.04  -0.23    -0.17  -0.16  -0.09     0.02   0.00   0.01
   5   6    -0.04   0.04  -0.15    -0.10  -0.07   0.06     0.02  -0.00  -0.00
   6   8    -0.24   0.37  -0.18     0.11  -0.26   0.16    -0.00   0.02  -0.01
   7   8    -0.01  -0.09   0.11    -0.03   0.07  -0.01     0.02  -0.02   0.02
   8  17    -0.01   0.00   0.00    -0.02   0.01   0.00    -0.01   0.02  -0.04
   9   1     0.03  -0.05  -0.07     0.05  -0.19  -0.06     0.10  -0.23   0.51
  10   1     0.01  -0.04  -0.05    -0.16  -0.11  -0.03    -0.34  -0.29  -0.32
  11   1    -0.04  -0.03  -0.03    -0.11  -0.07  -0.02     0.25   0.49  -0.08
  12   1     0.12   0.05   0.01     0.10   0.09   0.01    -0.05   0.07  -0.04
  13   1     0.01  -0.03  -0.01     0.13   0.11   0.01     0.00  -0.01  -0.09
  14   1     0.14  -0.22   0.16     0.07   0.17  -0.02    -0.01  -0.07   0.02
  15   1     0.04   0.05   0.31     0.08   0.11  -0.06     0.02   0.02   0.06
  16   1     0.00  -0.03  -0.20     0.03  -0.11  -0.21     0.00   0.01   0.02
  17   1    -0.19  -0.04  -0.04    -0.19  -0.15   0.01     0.01   0.01  -0.00
  18   1    -0.07   0.13   0.04     0.10  -0.04   0.01    -0.02  -0.01  -0.01
                     10                     11                     12
                        a                      a                      a 
 Frequencies --   357.3516               488.5369               542.5358
 Red. masses --    11.4811                 4.9881                11.6502
 Frc consts  --     0.0000                 0.0000                 0.0000
 IR Inten    --    29.3150                83.5939                83.1948
 Raman Activ --     0.0000                 0.0000                 0.0000
 Depolar     --     0.0000                 0.0000                 0.0000
 Atom AN      X      Y      Z        X      Y      Z        X      Y      Z
   1   7    -0.49  -0.09   0.07    -0.06   0.01   0.01    -0.02  -0.02   0.01
   2   6    -0.19   0.23   0.13    -0.05  -0.02  -0.01     0.01   0.03   0.00
   3   6     0.08   0.05  -0.05     0.03  -0.07  -0.01     0.09  -0.07  -0.00
   4   6     0.26   0.04   0.04     0.09   0.08  -0.10     0.04  -0.32   0.26
   5   6     0.25  -0.08  -0.11     0.30   0.33   0.25     0.13  -0.17   0.19
   6   8     0.02   0.20  -0.23     0.07  -0.06   0.04    -0.28   0.28   0.09
   7   8     0.21  -0.36   0.10    -0.17  -0.07  -0.01     0.14   0.26  -0.51
   8  17    -0.01  -0.00   0.00    -0.00   0.00  -0.00    -0.00   0.00  -0.00
   9   1    -0.06  -0.10  -0.05    -0.02   0.01  -0.01     0.01  -0.02  -0.00
  10   1    -0.20  -0.03   0.05    -0.01   0.01   0.01    -0.02  -0.01   0.00
  11   1    -0.21  -0.07   0.03    -0.02  -0.01   0.01    -0.01  -0.01   0.00
  12   1    -0.06   0.06   0.04    -0.03   0.00  -0.00     0.00   0.03  -0.00
  13   1    -0.05   0.07   0.04    -0.03  -0.01  -0.01    -0.01  -0.00  -0.02
  14   1     0.03   0.06  -0.02     0.03  -0.04  -0.00    -0.02   0.08  -0.02
  15   1     0.06   0.01  -0.05    -0.01  -0.01   0.02     0.09  -0.06  -0.11
  16   1     0.04   0.04   0.12    -0.04   0.11  -0.32     0.02  -0.10  -0.01
  17   1     0.15   0.10  -0.01    -0.11  -0.23   0.04    -0.01  -0.17   0.09
  18   1    -0.08   0.03   0.00    -0.40  -0.40  -0.39    -0.33   0.02   0.18
                     13                     14                     15
                        a                      a                      a 
 Frequencies --   563.1384               641.0789               786.0605
 Red. masses --    10.2319                 6.9485                 4.3818
 Frc consts  --     0.0000                 0.0000                 0.0000
 IR Inten    --     4.5640               180.6769                57.4245
 Raman Activ --     0.0000                 0.0000                 0.0000
 Depolar     --     0.0000                 0.0000                 0.0000
 Atom AN      X      Y      Z        X      Y      Z        X      Y      Z
   1   7     0.21  -0.01  -0.05    -0.03   0.02   0.01     0.03  -0.00  -0.03
   2   6     0.05  -0.04  -0.08    -0.03  -0.04  -0.01    -0.03   0.08  -0.14
   3   6    -0.34   0.28   0.15    -0.01  -0.01   0.00    -0.15   0.18  -0.13
   4   6    -0.33   0.01   0.28     0.10   0.09   0.06    -0.07   0.11  -0.13
   5   6     0.21  -0.10  -0.08     0.35   0.26   0.25     0.17  -0.10   0.07
   6   8     0.08   0.14  -0.22    -0.24  -0.22  -0.19    -0.12  -0.06   0.18
   7   8     0.19  -0.33   0.08    -0.14  -0.13  -0.11     0.14  -0.11  -0.12
   8  17     0.00   0.00  -0.00     0.00   0.00   0.00     0.00   0.00  -0.00
   9   1     0.01   0.05   0.03    -0.01   0.01   0.01     0.01  -0.01   0.05
  10   1     0.10   0.01  -0.01    -0.01  -0.00  -0.01    -0.09   0.05   0.12
  11   1     0.12   0.01  -0.02    -0.00   0.02   0.00     0.16  -0.10  -0.00
  12   1     0.05   0.00  -0.03    -0.02   0.01  -0.01    -0.01  -0.39   0.06
  13   1     0.05  -0.01  -0.03    -0.01  -0.02  -0.02     0.13   0.22   0.31
  14   1    -0.21   0.23   0.02    -0.04   0.04  -0.00    -0.02  -0.36   0.04
  15   1    -0.08   0.01  -0.12    -0.01  -0.02  -0.04     0.01   0.24   0.33
  16   1    -0.10   0.02  -0.06    -0.02   0.10  -0.24    -0.05   0.06   0.03
  17   1    -0.24  -0.01   0.10    -0.10  -0.18   0.07     0.05   0.04  -0.05
  18   1    -0.14  -0.03  -0.03     0.42   0.35   0.33    -0.12  -0.00   0.16
                     16                     17                     18
                        a                      a                      a 
 Frequencies --   831.3433               857.1402               901.2626
 Red. masses --     7.9139                 6.8482                 4.1724
 Frc consts  --     0.0000                 0.0000                 0.0000
 IR Inten    --    14.2284                10.0406                 2.5713
 Raman Activ --     0.0000                 0.0000                 0.0000
 Depolar     --     0.0000                 0.0000                 0.0000
 Atom AN      X      Y      Z        X      Y      Z        X      Y      Z
   1   7    -0.01  -0.03   0.06     0.21  -0.03   0.01    -0.05  -0.10   0.17
   2   6     0.00  -0.11   0.12     0.09   0.22   0.16    -0.04  -0.10  -0.06
   3   6    -0.10   0.13   0.01    -0.12  -0.11  -0.12    -0.00   0.21  -0.15
   4   6     0.05   0.30  -0.31    -0.36  -0.25  -0.08     0.12  -0.08   0.20
   5   6     0.10  -0.18  -0.03     0.23   0.20   0.17    -0.10  -0.03   0.03
   6   8    -0.16  -0.12   0.37    -0.02  -0.01  -0.11     0.10   0.07  -0.19
   7   8     0.21  -0.11  -0.14    -0.08  -0.04  -0.01    -0.06   0.05   0.05
   8  17     0.00  -0.00   0.00    -0.00   0.00   0.00     0.00  -0.00   0.00
   9   1    -0.06   0.07  -0.06     0.14  -0.09  -0.15    -0.13   0.14  -0.08
  10   1     0.22  -0.05  -0.18     0.06  -0.07  -0.12     0.37  -0.08  -0.25
  11   1    -0.19   0.15   0.00    -0.22   0.06   0.01    -0.29   0.22   0.02
  12   1    -0.06   0.27  -0.03    -0.03   0.17   0.03    -0.26  -0.06   0.02
  13   1     0.01  -0.16  -0.24     0.09   0.02  -0.07     0.24   0.01  -0.06
  14   1     0.07   0.06  -0.02     0.11  -0.12  -0.03    -0.09  -0.24   0.03
  15   1    -0.20   0.01   0.02     0.01   0.02   0.06     0.12   0.20   0.20
  16   1    -0.01   0.10  -0.07    -0.25   0.08   0.35     0.13  -0.13  -0.07
  17   1    -0.02   0.12  -0.09     0.28   0.07  -0.09    -0.02  -0.15   0.09
  18   1    -0.15  -0.03   0.20     0.00   0.00  -0.02     0.02   0.01  -0.05
                     19                     20                     21
                        a                      a                      a 
 Frequencies --   946.6875              1019.1862              1026.6107
 Red. masses --     4.9356                 7.7050                10.0091
 Frc consts  --     0.0000                 0.0000                 0.0000
 IR Inten    --    91.8637               316.7582                58.8338
 Raman Activ --     0.0000                 0.0000                 0.0000
 Depolar     --     0.0000                 0.0000                 0.0000
 Atom AN      X      Y      Z        X      Y      Z        X      Y      Z
   1   7     0.28   0.13   0.06     0.18  -0.02  -0.15     0.32  -0.32  -0.19
   2   6     0.00   0.15   0.01    -0.19   0.02   0.22    -0.55   0.30   0.20
   3   6    -0.09  -0.25  -0.11    -0.21   0.15  -0.05     0.00  -0.03   0.06
   4   6     0.08   0.21   0.15     0.18   0.03  -0.05     0.12  -0.02   0.01
   5   6    -0.12  -0.11  -0.14    -0.15  -0.19   0.25     0.02   0.06  -0.13
   6   8     0.00   0.00   0.07     0.24   0.01  -0.32    -0.12   0.01   0.16
   7   8     0.06  -0.00   0.01    -0.08   0.08   0.05     0.04  -0.02  -0.03
   8  17    -0.00   0.00   0.00    -0.00   0.00  -0.00    -0.00  -0.00  -0.00
   9   1     0.36  -0.28  -0.25     0.09  -0.07  -0.01    -0.02   0.04   0.01
  10   1    -0.23  -0.07  -0.03    -0.09   0.01   0.05     0.25  -0.05  -0.08
  11   1    -0.37  -0.03   0.06     0.12  -0.09  -0.03     0.20  -0.02  -0.07
  12   1    -0.18  -0.03   0.04     0.05   0.15   0.01    -0.15   0.02   0.07
  13   1    -0.02   0.06   0.05    -0.19  -0.08  -0.05    -0.07   0.10   0.07
  14   1    -0.20  -0.10  -0.00     0.16  -0.05  -0.02    -0.01   0.05   0.01
  15   1    -0.02  -0.06  -0.01    -0.32   0.07   0.16     0.17   0.00  -0.05
  16   1    -0.00   0.09  -0.20     0.11  -0.06  -0.05     0.02   0.01  -0.04
  17   1    -0.19  -0.05   0.08     0.19  -0.24   0.03    -0.02   0.01   0.00
  18   1    -0.01   0.00   0.03    -0.17   0.02   0.22     0.13  -0.00  -0.15
                     22                     23                     24
                        a                      a                      a 
 Frequencies --  1065.8975              1087.2922              1136.7372
 Red. masses --     5.9950                 5.2008                 8.1678
 Frc consts  --     0.0000                 0.0000                 0.0000
 IR Inten    --    79.1253               110.7163                 3.2360
 Raman Activ --     0.0000                 0.0000                 0.0000
 Depolar     --     0.0000                 0.0000                 0.0000
 Atom AN      X      Y      Z        X      Y      Z        X      Y      Z
   1   7    -0.08  -0.14  -0.02     0.11  -0.00   0.03    -0.05  -0.07   0.10
   2   6     0.04   0.19   0.03    -0.21  -0.07  -0.13     0.18   0.30  -0.12
   3   6     0.21  -0.27  -0.13     0.17   0.04   0.17    -0.41  -0.19   0.28
   4   6    -0.16   0.26   0.11    -0.07   0.00  -0.24     0.32  -0.12  -0.27
   5   6    -0.14  -0.14   0.02     0.10   0.09   0.21    -0.06  -0.04   0.05
   6   8     0.20  -0.07  -0.15     0.16  -0.11  -0.15     0.04  -0.01  -0.04
   7   8    -0.06   0.04   0.09    -0.14   0.06   0.05    -0.05   0.07   0.01
   8  17     0.00  -0.00  -0.00    -0.00   0.00   0.00     0.00  -0.00  -0.00
   9   1    -0.15   0.11   0.07     0.08  -0.05  -0.07    -0.08   0.07   0.01
  10   1     0.18   0.00  -0.03    -0.01  -0.04  -0.04     0.15  -0.01  -0.05
  11   1     0.12   0.05  -0.03    -0.11   0.01   0.02    -0.03   0.09   0.01
  12   1     0.03   0.00   0.02    -0.17  -0.15   0.01     0.17  -0.05  -0.01
  13   1     0.08   0.08   0.03    -0.05   0.02   0.05     0.19   0.18   0.11
  14   1     0.11  -0.03  -0.05    -0.14   0.13   0.04    -0.33   0.10   0.07
  15   1     0.20  -0.06  -0.09     0.15  -0.04  -0.11    -0.07  -0.13  -0.11
  16   1    -0.29   0.34  -0.08     0.22  -0.26   0.12     0.01   0.05  -0.04
  17   1    -0.09  -0.04   0.05    -0.19   0.38  -0.12     0.16  -0.08  -0.07
  18   1    -0.25   0.01   0.35    -0.26  -0.01   0.32    -0.03  -0.00   0.05
                     25                     26                     27
                        a                      a                      a 
 Frequencies --  1179.8489              1205.5658              1227.2207
 Red. masses --     5.5269                 8.0212                 4.5824
 Frc consts  --     0.0000                 0.0000                 0.0000
 IR Inten    --    12.0005               128.4047                62.6003
 Raman Activ --     0.0000                 0.0000                 0.0000
 Depolar     --     0.0000                 0.0000                 0.0000
 Atom AN      X      Y      Z        X      Y      Z        X      Y      Z
   1   7    -0.11  -0.04  -0.12     0.01  -0.07   0.08    -0.03   0.11  -0.19
   2   6     0.22   0.20   0.29     0.00   0.12  -0.10     0.06  -0.18   0.26
   3   6    -0.15  -0.25  -0.30     0.09  -0.09  -0.05    -0.03   0.10   0.04
   4   6    -0.01   0.05   0.10    -0.08   0.18  -0.08     0.13  -0.07  -0.17
   5   6     0.09   0.10  -0.00    -0.05  -0.38   0.55    -0.07  -0.18   0.23
   6   8    -0.01  -0.02   0.01    -0.04   0.17  -0.14     0.01   0.06  -0.07
   7   8    -0.03  -0.01   0.01     0.08  -0.02  -0.10    -0.01   0.04  -0.03
   8  17     0.00  -0.00  -0.00    -0.00  -0.00   0.00    -0.00   0.00  -0.00
   9   1    -0.09   0.05   0.09    -0.03   0.03  -0.02     0.03  -0.04   0.06
  10   1     0.03   0.06   0.07     0.09  -0.03  -0.04    -0.16   0.07   0.11
  11   1     0.19  -0.02  -0.05    -0.05   0.06   0.01     0.14  -0.11  -0.04
  12   1     0.04   0.21   0.04     0.09  -0.08  -0.01    -0.32   0.14   0.07
  13   1     0.12  -0.01  -0.08    -0.14   0.06   0.08     0.26  -0.12  -0.17
  14   1    -0.15  -0.22  -0.03     0.09   0.02  -0.03    -0.33  -0.03   0.06
  15   1    -0.11  -0.02   0.05    -0.15  -0.04   0.01     0.34   0.08  -0.02
  16   1     0.32  -0.34  -0.00    -0.01   0.02   0.01    -0.20   0.24  -0.02
  17   1    -0.31   0.24   0.01    -0.20   0.21  -0.03    -0.03   0.11  -0.06
  18   1    -0.03  -0.01   0.02     0.27   0.01  -0.37     0.08   0.00  -0.11
                     28                     29                     30
                        a                      a                      a 
 Frequencies --  1269.2468              1309.4772              1318.6760
 Red. masses --     1.9795                 4.2839                 4.6065
 Frc consts  --     0.0000                 0.0000                 0.0000
 IR Inten    --     6.6850                28.1761                10.2621
 Raman Activ --     0.0000                 0.0000                 0.0000
 Depolar     --     0.0000                 0.0000                 0.0000
 Atom AN      X      Y      Z        X      Y      Z        X      Y      Z
   1   7     0.04  -0.03   0.12     0.01  -0.12  -0.03     0.01   0.10   0.06
   2   6    -0.04  -0.08   0.09     0.18   0.11  -0.01    -0.20  -0.08  -0.04
   3   6    -0.07   0.11  -0.18     0.22   0.15  -0.06    -0.18   0.03  -0.05
   4   6     0.05  -0.04  -0.03     0.16  -0.33   0.05     0.31  -0.31   0.12
   5   6    -0.00   0.01  -0.00     0.01   0.07  -0.10     0.01   0.02  -0.03
   6   8     0.01  -0.01   0.01     0.01  -0.03   0.01     0.02  -0.01  -0.01
   7   8    -0.01   0.01   0.00    -0.06   0.04   0.03    -0.08   0.07   0.04
   8  17    -0.00   0.00  -0.00    -0.00  -0.00  -0.00     0.00   0.00   0.00
   9   1     0.01  -0.00  -0.02    -0.08   0.07   0.04     0.06  -0.04  -0.05
  10   1     0.04  -0.04  -0.05     0.04   0.01   0.04    -0.03  -0.03  -0.07
  11   1    -0.08   0.03   0.03    -0.01   0.07  -0.02    -0.02  -0.06   0.03
  12   1     0.57   0.10  -0.08    -0.26  -0.05   0.05     0.27   0.01  -0.06
  13   1    -0.45  -0.11   0.04    -0.40  -0.03   0.06     0.31   0.04  -0.04
  14   1    -0.32  -0.15   0.03    -0.25  -0.06   0.04     0.39   0.03  -0.07
  15   1     0.41   0.15   0.02    -0.44  -0.01   0.10    -0.05   0.04   0.06
  16   1    -0.04   0.06  -0.04    -0.24   0.23   0.01    -0.16   0.19  -0.09
  17   1    -0.03   0.07  -0.03    -0.15   0.18  -0.02    -0.33   0.38  -0.03
  18   1    -0.02  -0.00   0.03    -0.04   0.00   0.06    -0.02  -0.00   0.03
                     31                     32                     33
                        a                      a                      a 
 Frequencies --  1366.7489              1397.4268              1409.3275
 Red. masses --     4.5040                 2.8690                 1.8359
 Frc consts  --     0.0000                 0.0000                 0.0000
 IR Inten    --    12.0077               220.2836                94.7959
 Raman Activ --     0.0000                 0.0000                 0.0000
 Depolar     --     0.0000                 0.0000                 0.0000
 Atom AN      X      Y      Z        X      Y      Z        X      Y      Z
   1   7    -0.02  -0.11  -0.04    -0.33   0.12   0.14    -0.03  -0.15  -0.08
   2   6     0.32   0.03  -0.06     0.04   0.01  -0.00    -0.15  -0.07  -0.00
   3   6    -0.42   0.00   0.06     0.02   0.02   0.01     0.10   0.02  -0.01
   4   6     0.11  -0.01   0.01    -0.00  -0.01  -0.01    -0.03  -0.01   0.02
   5   6     0.00   0.01   0.00     0.00   0.00  -0.01    -0.00  -0.01   0.00
   6   8     0.00  -0.01   0.00     0.00  -0.00   0.00    -0.00   0.00  -0.00
   7   8    -0.01   0.01   0.00    -0.00   0.00   0.00     0.00  -0.00   0.00
   8  17    -0.00  -0.00  -0.00    -0.00   0.00   0.00     0.00   0.00   0.00
   9   1     0.00  -0.02  -0.02     0.37  -0.42  -0.31     0.16  -0.20  -0.07
  10   1     0.03   0.08   0.17     0.41   0.02  -0.19     0.10   0.31   0.55
  11   1    -0.02   0.20  -0.05     0.47  -0.04  -0.02    -0.08   0.60  -0.11
  12   1    -0.33  -0.03   0.04    -0.06  -0.06   0.02     0.15   0.02  -0.03
  13   1    -0.38  -0.05   0.07    -0.08  -0.04  -0.03     0.17   0.02  -0.01
  14   1     0.43   0.00  -0.06    -0.04  -0.00   0.01    -0.07  -0.03   0.02
  15   1     0.37   0.05  -0.08    -0.03   0.00   0.00    -0.07  -0.02  -0.01
  16   1     0.04  -0.02  -0.02    -0.01   0.01   0.01    -0.01   0.01  -0.05
  17   1    -0.08   0.07   0.00     0.00  -0.01  -0.00     0.06   0.03  -0.01
  18   1    -0.00   0.00   0.01    -0.00  -0.00   0.00     0.00  -0.00  -0.00
                     34                     35                     36
                        a                      a                      a 
 Frequencies --  1423.5892              1427.7778              1485.6647
 Red. masses --     1.8637                 1.6036                 1.8718
 Frc consts  --     0.0000                 0.0000                 0.0000
 IR Inten    --    27.9142                72.2463                 6.4919
 Raman Activ --     0.0000                 0.0000                 0.0000
 Depolar     --     0.0000                 0.0000                 0.0000
 Atom AN      X      Y      Z        X      Y      Z        X      Y      Z
   1   7    -0.00   0.00  -0.02     0.05  -0.10   0.18     0.01   0.00  -0.00
   2   6    -0.03  -0.02  -0.01    -0.01  -0.02   0.03     0.00   0.25   0.12
   3   6    -0.00   0.01  -0.02     0.01   0.00  -0.00    -0.03  -0.02  -0.00
   4   6     0.17   0.07  -0.19     0.02   0.01  -0.03     0.01   0.00  -0.00
   5   6     0.02   0.02  -0.04     0.00   0.00  -0.00    -0.01   0.01  -0.01
   6   8    -0.01  -0.00   0.01    -0.00  -0.00   0.00    -0.00  -0.00   0.00
   7   8    -0.01   0.01   0.01    -0.00   0.00   0.00     0.01  -0.00  -0.00
   8  17    -0.00   0.00  -0.00     0.00  -0.00   0.00    -0.00   0.00   0.00
   9   1     0.03  -0.06   0.07    -0.15   0.32  -0.67    -0.02   0.02   0.01
  10   1     0.05   0.04   0.05    -0.39  -0.14  -0.03    -0.03   0.02   0.03
  11   1    -0.05   0.02  -0.00     0.34   0.26  -0.06    -0.04   0.03   0.00
  12   1     0.05   0.02  -0.01    -0.01   0.02   0.00     0.11  -0.64   0.14
  13   1     0.02   0.01   0.01     0.04  -0.01  -0.01    -0.02  -0.30  -0.61
  14   1     0.00   0.01  -0.01    -0.02  -0.01   0.00     0.01   0.06  -0.01
  15   1     0.01   0.02   0.02     0.01   0.00  -0.00     0.02   0.03   0.04
  16   1    -0.06   0.03   0.65    -0.01   0.00   0.08     0.00  -0.00   0.01
  17   1    -0.51  -0.43   0.14    -0.06  -0.05   0.02    -0.00  -0.01   0.00
  18   1     0.00  -0.00  -0.00    -0.00  -0.00  -0.00    -0.00  -0.00   0.00
                     37                     38                     39
                        a                      a                      a 
 Frequencies --  1492.3517              1699.6932              2938.0581
 Red. masses --     1.9592                13.3410                 1.9202
 Frc consts  --     0.0000                 0.0000                 0.0000
 IR Inten    --     7.5355               665.1034                19.9871
 Raman Activ --     0.0000                 0.0000                 0.0000
 Depolar     --     0.0000                 0.0000                 0.0000
 Atom AN      X      Y      Z        X      Y      Z        X      Y      Z
   1   7     0.01   0.01   0.00    -0.00   0.00  -0.00     0.00   0.00  -0.00
   2   6    -0.04   0.03   0.02    -0.00  -0.00  -0.00    -0.01   0.03  -0.05
   3   6    -0.00   0.26   0.12     0.00  -0.01  -0.00     0.06  -0.16   0.22
   4   6     0.01   0.01  -0.00     0.04  -0.06   0.01     0.00  -0.01  -0.02
   5   6    -0.00  -0.01   0.01    -0.57   0.49   0.25    -0.00   0.00  -0.00
   6   8     0.00   0.00  -0.01     0.04  -0.03  -0.02    -0.00  -0.00  -0.00
   7   8     0.00   0.00  -0.00     0.44  -0.35  -0.23     0.00  -0.00  -0.00
   8  17    -0.00   0.00   0.00    -0.00  -0.00  -0.00    -0.00   0.00  -0.00
   9   1    -0.00   0.01   0.01     0.00  -0.00  -0.00    -0.00  -0.00   0.00
  10   1    -0.01  -0.02  -0.03     0.00   0.00  -0.00    -0.00   0.00  -0.00
  11   1    -0.00  -0.04   0.01     0.00  -0.00  -0.00     0.00  -0.00  -0.00
  12   1     0.04  -0.04   0.01     0.00   0.01  -0.00     0.02   0.03   0.13
  13   1     0.03  -0.02  -0.05     0.01   0.01   0.01     0.03  -0.14   0.07
  14   1     0.10  -0.66   0.12     0.00  -0.00  -0.00    -0.06  -0.11  -0.46
  15   1    -0.07  -0.30  -0.59    -0.00  -0.00   0.00    -0.15   0.70  -0.34
  16   1    -0.00   0.01   0.02    -0.02   0.02   0.02    -0.01  -0.01  -0.01
  17   1    -0.02  -0.01   0.01    -0.04   0.03   0.00     0.01   0.02   0.09
  18   1     0.00   0.00  -0.00    -0.05  -0.01   0.07     0.00  -0.00  -0.00
                     40                     41                     42
                        a                      a                      a 
 Frequencies --  2950.2039              2964.8342              2970.2765
 Red. masses --     1.9182                 1.8693                 1.6306
 Frc consts  --     0.0000                 0.0000                 0.0000
 IR Inten    --     1.3779                10.3693                18.7195
 Raman Activ --     0.0000                 0.0000                 0.0000
 Depolar     --     0.0000                 0.0000                 0.0000
 Atom AN      X      Y      Z        X      Y      Z        X      Y      Z
   1   7     0.00   0.00   0.00     0.00   0.00  -0.00    -0.00  -0.00  -0.00
   2   6    -0.00  -0.00  -0.00     0.05  -0.07   0.25     0.03  -0.07   0.10
   3   6     0.01  -0.03  -0.02     0.01  -0.10  -0.01     0.01   0.12   0.15
   4   6     0.18   0.17   0.14    -0.01  -0.02  -0.01     0.05   0.04  -0.02
   5   6     0.00   0.01   0.00    -0.00   0.00  -0.00     0.00   0.00  -0.00
   6   8    -0.00  -0.00   0.00     0.00  -0.00   0.00     0.00  -0.00   0.00
   7   8     0.00  -0.00  -0.00     0.00  -0.00   0.00    -0.00  -0.00   0.00
   8  17     0.00   0.00  -0.00    -0.00  -0.00   0.00     0.00   0.00   0.00
   9   1    -0.00  -0.00  -0.00    -0.01  -0.00  -0.00     0.01   0.01   0.00
  10   1    -0.00  -0.00   0.00     0.00  -0.01   0.00     0.00  -0.01   0.00
  11   1    -0.00  -0.00  -0.00     0.00   0.00   0.02     0.00   0.00   0.01
  12   1    -0.00   0.00   0.01    -0.09  -0.16  -0.70    -0.02  -0.05  -0.19
  13   1    -0.00   0.00  -0.00    -0.08   0.40  -0.19    -0.07   0.32  -0.16
  14   1     0.02   0.02   0.14     0.03   0.03   0.24    -0.10  -0.11  -0.73
  15   1    -0.02   0.11  -0.06    -0.07   0.31  -0.17     0.07  -0.31   0.19
  16   1    -0.59  -0.54  -0.03     0.05   0.04   0.00    -0.19  -0.18  -0.02
  17   1    -0.04  -0.09  -0.48     0.01   0.01   0.05     0.02   0.03   0.12
  18   1    -0.00  -0.00  -0.00     0.00   0.00   0.00    -0.00   0.00  -0.00
                     43                     44                     45
                        a                      a                      a 
 Frequencies --  2977.3776              2990.4346              3128.6705
 Red. masses --     1.5791                 1.5349                 1.9134
 Frc consts  --     0.0000                 0.0000                 0.0000
 IR Inten    --    16.3674                24.5454               553.0916
 Raman Activ --     0.0000                 0.0000                 0.0000
 Depolar     --     0.0000                 0.0000                 0.0000
 Atom AN      X      Y      Z        X      Y      Z        X      Y      Z
   1   7    -0.00   0.00   0.00     0.00   0.00   0.00     0.19   0.18   0.04
   2   6    -0.01   0.03  -0.02     0.02  -0.20  -0.06     0.00   0.00   0.00
   3   6    -0.01  -0.01  -0.06    -0.00  -0.04  -0.02    -0.00   0.00   0.00
   4   6     0.06   0.03  -0.20    -0.01  -0.01  -0.02     0.00   0.00  -0.00
   5   6     0.00   0.00  -0.01    -0.00   0.00  -0.00     0.00  -0.00  -0.00
   6   8    -0.00  -0.00   0.00     0.00  -0.00   0.00    -0.00   0.00  -0.00
   7   8     0.00  -0.00   0.00    -0.00  -0.00   0.00    -0.00   0.00   0.00
   8  17     0.00  -0.00  -0.00    -0.00  -0.00   0.00    -0.00  -0.00  -0.00
   9   1     0.00   0.00   0.00    -0.00  -0.01  -0.00    -0.73  -0.61  -0.13
  10   1    -0.00   0.00  -0.00     0.01  -0.02   0.01     0.03  -0.05   0.05
  11   1    -0.00  -0.00  -0.00    -0.00  -0.00  -0.02     0.01   0.00  -0.08
  12   1     0.00   0.01   0.02     0.07   0.09   0.58    -0.00  -0.00  -0.00
  13   1     0.02  -0.10   0.05    -0.14   0.64  -0.36     0.00  -0.01   0.00
  14   1     0.03   0.04   0.23     0.02   0.02   0.15    -0.00  -0.00  -0.01
  15   1    -0.00   0.00  -0.01    -0.02   0.11  -0.06     0.00  -0.01   0.01
  16   1    -0.34  -0.32  -0.06     0.01   0.01  -0.00    -0.00  -0.00  -0.00
  17   1     0.11   0.19   0.78     0.01   0.01   0.06     0.00   0.00   0.00
  18   1    -0.00   0.00  -0.00    -0.00   0.00  -0.00     0.00  -0.00   0.00
                     46                     47                     48
                        a                      a                      a 
 Frequencies --  3245.2154              3261.3876              3478.1905
 Red. masses --     2.0341                 1.4750                 1.8595
 Frc consts  --     0.0000                 0.0000                 0.0000
 IR Inten    --   151.3171                73.1788               202.2120
 Raman Activ --     0.0000                 0.0000                 0.0000
 Depolar     --     0.0000                 0.0000                 0.0000
 Atom AN      X      Y      Z        X      Y      Z        X      Y      Z
   1   7     0.06  -0.15   0.23     0.03  -0.13  -0.13    -0.00  -0.00   0.00
   2   6     0.00  -0.01   0.01     0.00  -0.01  -0.01     0.00  -0.00   0.00
   3   6    -0.00   0.00  -0.00    -0.00   0.00   0.00     0.00   0.00   0.00
   4   6    -0.00  -0.00  -0.00    -0.00   0.00  -0.00     0.00  -0.00   0.00
   5   6    -0.00  -0.00   0.00     0.00  -0.00  -0.00     0.01   0.01  -0.01
   6   8     0.00  -0.00  -0.00    -0.00   0.00  -0.00    -0.10   0.20  -0.08
   7   8    -0.00   0.00   0.00    -0.00   0.00   0.00    -0.00   0.00   0.00
   8  17    -0.00   0.00  -0.00     0.00   0.00   0.00     0.00  -0.00   0.00
   9   1    -0.01  -0.03   0.02    -0.09  -0.09  -0.03     0.00   0.00   0.00
  10   1    -0.17   0.69  -0.37    -0.11   0.45  -0.27     0.00  -0.00   0.00
  11   1    -0.05  -0.11  -0.51     0.09   0.13   0.80     0.00  -0.00  -0.00
  12   1    -0.00  -0.00  -0.01     0.00   0.00   0.02    -0.00   0.00   0.00
  13   1    -0.00   0.02  -0.01    -0.00   0.01  -0.01    -0.00   0.00  -0.00
  14   1    -0.00  -0.00   0.00     0.00   0.00   0.00    -0.00  -0.00  -0.00
  15   1     0.00   0.00  -0.00     0.00   0.00  -0.00     0.00  -0.00   0.00
  16   1    -0.00  -0.00   0.00    -0.00  -0.00  -0.00    -0.00  -0.00  -0.00
  17   1     0.00   0.00   0.00    -0.00   0.00   0.00     0.00   0.00   0.00
  18   1    -0.00   0.00  -0.00     0.00  -0.00   0.00     0.39  -0.81   0.37
