 Entering Gaussian System
 *********************************************
 Gaussian 98:
 frequency output generated by the xtb code
 *********************************************
                         Standard orientation:
 --------------------------------------------------------------------
  Center     Atomic     Atomic              Coordinates (Angstroms)
  Number     Number      Type              X           Y           Z
 --------------------------------------------------------------------
    1          7             0       -6.200602    1.150024    0.823700
    2          6             0       -4.717612    1.017886    0.903515
    3          6             0       -4.103849    0.582981   -0.422397
    4          6             0       -2.615529    0.408573   -0.346542
    5          6             0       -1.763254    1.476468   -0.585026
    6          6             0       -0.396945    1.327511   -0.485031
    7          6             0        0.165980    0.099579   -0.136411
    8          6             0        1.604300   -0.100878   -0.018135
    9          6             0        2.543783    0.798656   -0.341860
   10          6             0        3.981133    0.595469   -0.222135
   11          6             0        4.529079   -0.540013    0.374105
   12          6             0        5.895878   -0.711110    0.476651
   13          9             0        6.405975   -1.830562    1.060851
   14          6             0        6.739762    0.266195   -0.021364
   15          6             0        6.220786    1.399296   -0.612594
   16          6             0        4.856906    1.564973   -0.712460
   17          6             0       -0.698775   -0.966116    0.114064
   18          6             0       -2.063804   -0.812049    0.012679
   19         17             0       -7.389602   -1.982602   -0.228741
   20          1             0       -6.622997    0.254516    0.536363
   21          1             0       -6.469460    1.854864    0.125359
   22          1             0       -6.615277    1.421288    1.728261
   23          1             0       -4.452163    0.295586    1.684305
   24          1             0       -4.274596    1.968175    1.222962
   25          1             0       -4.347388    1.312601   -1.201807
   26          1             0       -4.563785   -0.354277   -0.752514
   27          1             0       -2.183750    2.432380   -0.848127
   28          1             0        0.239809    2.174458   -0.668895
   29          1             0        1.916686   -1.061910    0.348595
   30          1             0        2.233377    1.748967   -0.736911
   31          1             0        3.894856   -1.306679    0.776729
   32          1             0        7.802732    0.124169    0.063003
   33          1             0        6.884628    2.156192   -0.997308
   34          1             0        4.454199    2.449815   -1.175360
   35          1             0       -0.285409   -1.921488    0.390194
   36          1             0       -2.717778   -1.643546    0.214932
 --------------------------------------------------------------------
     1 basis functions        1 primitive gaussians
     1 alpha electrons        1 beta electrons

 Harmonic frequencies (cm**-1), IR intensities (km*mol⁻¹),
 Raman scattering activities (A**4/amu), Raman depolarization ratios,
 reduced masses (AMU), force constants (mDyne/A) and normal coordinates:
                      1                      2                      3
                        a                      a                      a 
 Frequencies --   -88.8378               -50.0168               -37.1551
 Red. masses --     7.9387                10.3258                22.4882
 Frc consts  --     0.0000                 0.0000                 0.0000
 IR Inten    --     0.2103                 0.5622                98.5545
 Raman Activ --     0.0000                 0.0000                 0.0000
 Depolar     --     0.0000                 0.0000                 0.0000
 Atom AN      X      Y      Z        X      Y      Z        X      Y      Z
   1   7     0.00   0.03   0.03     0.00   0.02  -0.06     0.12   0.48   0.10
   2   6     0.00   0.03   0.03    -0.00   0.02  -0.05     0.11   0.32   0.05
   3   6    -0.01  -0.04   0.05     0.01  -0.02  -0.03     0.01   0.09   0.08
   4   6    -0.01  -0.03   0.03     0.01  -0.01  -0.00     0.01   0.04   0.03
   5   6    -0.02  -0.04  -0.07    -0.01   0.08   0.36     0.02   0.04   0.05
   6   6    -0.01  -0.04  -0.16    -0.01   0.09   0.40     0.02   0.01   0.01
   7   6     0.02  -0.04  -0.18     0.00   0.01   0.09     0.01  -0.01  -0.04
   8   6     0.02  -0.08  -0.35     0.00   0.02   0.10     0.01  -0.03  -0.05
   9   6     0.00   0.22   0.41    -0.01   0.02   0.05     0.01  -0.03  -0.04
  10   6     0.00   0.12   0.21    -0.01   0.01   0.02     0.01  -0.02  -0.03
  11   6    -0.02   0.11   0.21    -0.00   0.10   0.18     0.01  -0.04  -0.05
  12   6    -0.02  -0.01   0.01    -0.00   0.04   0.05     0.01  -0.01  -0.00
  13   9    -0.03  -0.01   0.03     0.01   0.13   0.20     0.01  -0.02  -0.01
  14   6    -0.00  -0.12  -0.17    -0.00  -0.07  -0.18     0.01   0.02   0.06
  15   6     0.01  -0.09  -0.13    -0.01  -0.14  -0.29     0.01   0.02   0.06
  16   6     0.01   0.04   0.07    -0.01  -0.10  -0.21     0.01  -0.00   0.02
  17   6     0.02  -0.02  -0.08     0.02  -0.08  -0.25    -0.00  -0.00  -0.06
  18   6     0.02  -0.01   0.04     0.02  -0.10  -0.30    -0.01   0.02  -0.02
  19  17    -0.00  -0.01   0.02    -0.01  -0.02  -0.03    -0.24  -0.63  -0.12
  20   1     0.00   0.01   0.02    -0.00   0.00  -0.01     0.01   0.14   0.05
  21   1     0.00   0.00   0.00     0.00   0.00  -0.02     0.04   0.12   0.01
  22   1     0.00   0.02   0.01    -0.00   0.01  -0.02     0.05   0.16   0.03
  23   1     0.00   0.02   0.02    -0.00   0.01  -0.01     0.02   0.11   0.04
  24   1     0.00   0.01  -0.01     0.00   0.01  -0.02     0.06   0.09  -0.03
  25   1    -0.01  -0.03   0.00     0.01  -0.01  -0.01     0.00  -0.00  -0.01
  26   1    -0.00  -0.02   0.03     0.00  -0.01  -0.01    -0.01   0.02   0.07
  27   1    -0.01  -0.02  -0.03    -0.01   0.04   0.18     0.01   0.01   0.02
  28   1    -0.01  -0.02  -0.09    -0.00   0.05   0.21     0.01   0.00   0.01
  29   1     0.02  -0.12  -0.37     0.00   0.01   0.03     0.00  -0.01  -0.02
  30   1    -0.00   0.17   0.37    -0.01  -0.01  -0.01     0.00  -0.00  -0.01
  31   1    -0.01   0.07   0.12    -0.00   0.06   0.11     0.00  -0.02  -0.03
  32   1    -0.00  -0.06  -0.09    -0.00  -0.03  -0.08     0.00   0.01   0.03
  33   1     0.01  -0.05  -0.07    -0.00  -0.06  -0.13     0.00   0.01   0.03
  34   1     0.01   0.02   0.03    -0.00  -0.05  -0.10     0.00   0.00   0.01
  35   1     0.01  -0.01  -0.02     0.01  -0.04  -0.14    -0.00  -0.01  -0.03
  36   1     0.01  -0.00   0.04     0.01  -0.05  -0.17    -0.00   0.01  -0.01
                      4                      5                      6
                        a                      a                      a 
 Frequencies --     7.4757                28.4702                32.8732
 Red. masses --    14.8016                17.1060                24.2002
 Frc consts  --     0.0000                 0.0000                 0.0000
 IR Inten    --     1.3102                 4.2601                23.3012
 Raman Activ --     0.0000                 0.0000                 0.0000
 Depolar     --     0.0000                 0.0000                 0.0000
 Atom AN      X      Y      Z        X      Y      Z        X      Y      Z
   1   7    -0.06  -0.11  -0.05     0.00   0.17  -0.23     0.07  -0.17   0.19
   2   6    -0.06  -0.09   0.01    -0.01   0.09  -0.13     0.06  -0.22   0.15
   3   6     0.02   0.10  -0.01     0.02  -0.22  -0.02     0.05   0.01   0.07
   4   6     0.02   0.12   0.06     0.02  -0.19   0.06     0.06   0.01   0.01
   5   6     0.03   0.08  -0.07     0.00  -0.17   0.07     0.06  -0.00  -0.04
   6   6     0.03   0.09  -0.00     0.00  -0.13   0.12     0.06  -0.01  -0.10
   7   6     0.01   0.14   0.20     0.03  -0.11   0.16     0.07  -0.01  -0.11
   8   6     0.01   0.14   0.24     0.04  -0.07   0.16     0.07  -0.02  -0.13
   9   6     0.03   0.07   0.11     0.00  -0.03   0.15     0.07  -0.01  -0.13
  10   6     0.03   0.03   0.05     0.01   0.02   0.08     0.07  -0.00  -0.08
  11   6     0.01   0.04   0.08     0.09   0.01  -0.02     0.05   0.05   0.02
  12   6     0.01  -0.05  -0.06     0.11   0.06  -0.11     0.05   0.07   0.09
  13   9     0.00  -0.06  -0.06     0.24   0.07  -0.25     0.04   0.14   0.25
  14   6     0.03  -0.16  -0.25     0.04   0.11  -0.13     0.06   0.05   0.09
  15   6     0.04  -0.15  -0.24    -0.04   0.13  -0.02     0.08  -0.00  -0.03
  16   6     0.04  -0.06  -0.09    -0.06   0.09   0.09     0.08  -0.03  -0.12
  17   6     0.00   0.18   0.34     0.05  -0.12   0.16     0.07  -0.00  -0.07
  18   6     0.01   0.17   0.27     0.05  -0.16   0.12     0.06   0.01  -0.01
  19  17    -0.11  -0.26  -0.30    -0.39   0.25  -0.08    -0.71   0.11  -0.10
  20   1    -0.01  -0.02  -0.04    -0.01   0.04  -0.04     0.00  -0.02   0.02
  21   1    -0.01  -0.01  -0.00     0.02   0.03  -0.09     0.03  -0.01   0.08
  22   1    -0.03  -0.05  -0.01    -0.01   0.08  -0.08     0.02  -0.08   0.06
  23   1    -0.03  -0.05  -0.02    -0.02   0.07   0.01     0.01  -0.11   0.01
  24   1    -0.03  -0.04   0.04     0.01   0.04  -0.09     0.02  -0.08   0.09
  25   1     0.01   0.05   0.02     0.01  -0.11  -0.06     0.01   0.04   0.06
  26   1     0.02   0.04  -0.04     0.01  -0.08   0.05     0.02   0.02  -0.03
  27   1     0.01   0.01  -0.07    -0.00  -0.06   0.01     0.02   0.00  -0.01
  28   1     0.01   0.02  -0.03    -0.01  -0.03   0.03     0.02  -0.01  -0.04
  29   1    -0.00   0.05   0.11     0.02  -0.02   0.04     0.02  -0.00  -0.04
  30   1     0.01   0.01  -0.00    -0.01  -0.01   0.05     0.02  -0.01  -0.04
  31   1     0.00   0.03   0.06     0.04  -0.01  -0.01     0.01   0.02   0.01
  32   1     0.01  -0.07  -0.11     0.01   0.04  -0.06     0.02   0.02   0.05
  33   1     0.01  -0.06  -0.11    -0.03   0.05  -0.01     0.02  -0.00  -0.01
  34   1     0.01  -0.02  -0.03    -0.04   0.03   0.05     0.03  -0.02  -0.06
  35   1    -0.00   0.07   0.15     0.02  -0.03   0.06     0.02  -0.00  -0.02
  36   1    -0.00   0.06   0.11     0.02  -0.05   0.04     0.02   0.00   0.01
                      7                      8                      9
                        a                      a                      a 
 Frequencies --    38.1706                68.0335                87.3318
 Red. masses --    21.0583                11.6271                10.5517
 Frc consts  --     0.0000                 0.0000                 0.0000
 IR Inten    --    15.9574                 0.4857                14.9712
 Raman Activ --     0.0000                 0.0000                 0.0000
 Depolar     --     0.0000                 0.0000                 0.0000
 Atom AN      X      Y      Z        X      Y      Z        X      Y      Z
   1   7     0.02   0.16   0.21    -0.01  -0.05   0.03     0.30   0.11   0.33
   2   6     0.01   0.06   0.20    -0.00  -0.02  -0.02     0.27  -0.10   0.03
   3   6    -0.04  -0.03   0.20     0.01   0.35  -0.13    -0.01  -0.09  -0.11
   4   6    -0.05  -0.07   0.15    -0.01   0.19  -0.11    -0.01  -0.12  -0.27
   5   6    -0.03  -0.11   0.02     0.13   0.08  -0.08    -0.04  -0.10  -0.28
   6   6    -0.03  -0.13  -0.05     0.10  -0.08  -0.03    -0.05  -0.03  -0.13
   7   6    -0.04  -0.12  -0.00    -0.04  -0.14   0.00    -0.04   0.02   0.06
   8   6    -0.03  -0.13  -0.06    -0.06  -0.25   0.06    -0.05   0.12   0.31
   9   6    -0.06  -0.11  -0.09    -0.05  -0.22   0.17    -0.05   0.05   0.09
  10   6    -0.05  -0.07  -0.10    -0.04  -0.14   0.12    -0.06   0.08   0.15
  11   6    -0.01   0.01   0.01     0.10  -0.09   0.10    -0.06   0.08   0.15
  12   6     0.00   0.08   0.04     0.12   0.05  -0.00    -0.06   0.01   0.01
  13   9     0.06   0.21   0.19     0.37   0.14  -0.04    -0.07  -0.02  -0.05
  14   6    -0.04   0.08  -0.03    -0.00   0.13  -0.07    -0.06  -0.05  -0.11
  15   6    -0.08   0.00  -0.15    -0.14   0.08  -0.04    -0.06  -0.02  -0.04
  16   6    -0.09  -0.07  -0.18    -0.16  -0.06   0.06    -0.06   0.05   0.09
  17   6    -0.05  -0.09   0.12    -0.18  -0.04  -0.04    -0.01  -0.02  -0.04
  18   6    -0.05  -0.06   0.19    -0.16   0.12  -0.09    -0.00  -0.09  -0.21
  19  17     0.34   0.20  -0.48    -0.01  -0.06   0.09     0.01   0.07  -0.02
  20   1    -0.00   0.06   0.03     0.00  -0.01  -0.02     0.04   0.06   0.07
  21   1     0.02   0.06   0.07    -0.01   0.01   0.03     0.07   0.06   0.13
  22   1     0.01   0.03   0.06     0.00  -0.04   0.02     0.13   0.01   0.12
  23   1    -0.01   0.02   0.06     0.01  -0.06  -0.06     0.09  -0.05  -0.02
  24   1     0.02   0.01   0.05    -0.01  -0.02   0.07     0.13  -0.05   0.00
  25   1    -0.01  -0.02   0.05     0.03   0.18   0.02    -0.03  -0.02  -0.01
  26   1    -0.03  -0.01   0.08    -0.01   0.14  -0.13    -0.03  -0.02  -0.02
  27   1    -0.01  -0.03  -0.01     0.07   0.04  -0.03    -0.02  -0.04  -0.11
  28   1    -0.01  -0.05  -0.04     0.06  -0.04  -0.00    -0.02  -0.00  -0.02
  29   1    -0.00  -0.04  -0.02    -0.03  -0.09  -0.01    -0.02   0.08   0.20
  30   1    -0.02  -0.04  -0.02    -0.02  -0.06   0.08    -0.02  -0.03  -0.07
  31   1     0.01   0.01   0.02     0.05  -0.04   0.04    -0.01   0.03   0.06
  32   1    -0.01   0.04   0.00     0.00   0.06  -0.04    -0.02  -0.04  -0.07
  33   1    -0.03  -0.00  -0.06    -0.07   0.04  -0.03    -0.02  -0.02  -0.03
  34   1    -0.04  -0.04  -0.08    -0.08  -0.03   0.02    -0.02   0.02   0.03
  35   1    -0.02  -0.02   0.04    -0.09  -0.03  -0.01     0.00   0.00   0.01
  36   1    -0.02  -0.01   0.08    -0.08   0.06  -0.04     0.00  -0.03  -0.07
                     10                     11                     12
                        a                      a                      a 
 Frequencies --   138.1229               155.5528               177.4471
 Red. masses --     7.7886                11.8022                10.0250
 Frc consts  --     0.0000                 0.0000                 0.0000
 IR Inten    --    17.2893                 6.7733                 1.1596
 Raman Activ --     0.0000                 0.0000                 0.0000
 Depolar     --     0.0000                 0.0000                 0.0000
 Atom AN      X      Y      Z        X      Y      Z        X      Y      Z
   1   7    -0.03  -0.41   0.23    -0.25   0.15   0.01    -0.11  -0.05  -0.13
   2   6     0.06   0.48  -0.09    -0.24  -0.05   0.13    -0.10   0.13   0.13
   3   6    -0.04  -0.02   0.03    -0.19  -0.12   0.17     0.09   0.17   0.20
   4   6    -0.03   0.02  -0.03    -0.16  -0.02   0.02     0.08   0.04   0.15
   5   6    -0.03   0.02  -0.05    -0.20  -0.00  -0.09     0.15  -0.05  -0.01
   6   6    -0.02   0.02  -0.03    -0.16   0.08  -0.19     0.14  -0.18  -0.17
   7   6    -0.01   0.03  -0.00    -0.05   0.13  -0.14     0.08  -0.20  -0.14
   8   6    -0.02   0.02   0.05    -0.04   0.15   0.08     0.07  -0.05   0.10
   9   6     0.02  -0.03   0.01     0.10  -0.03  -0.03    -0.01  -0.07  -0.20
  10   6     0.02  -0.04   0.02     0.11  -0.07   0.12    -0.02   0.17   0.12
  11   6     0.04  -0.04   0.01     0.16  -0.06   0.12    -0.05   0.22   0.24
  12   6     0.05  -0.01   0.01     0.19  -0.04   0.04    -0.07   0.06   0.04
  13   9     0.11   0.01   0.03     0.39  -0.02  -0.01    -0.21  -0.07  -0.12
  14   6     0.03  -0.01  -0.02     0.16  -0.05  -0.04    -0.03  -0.08  -0.16
  15   6     0.01  -0.02  -0.01     0.11  -0.05   0.01     0.00   0.03   0.01
  16   6     0.01  -0.04   0.01     0.10  -0.07   0.09     0.00   0.15   0.13
  17   6    -0.01   0.03  -0.02    -0.01   0.08  -0.20     0.04  -0.16  -0.15
  18   6    -0.01   0.02  -0.04    -0.03  -0.01  -0.13     0.03  -0.04  -0.01
  19  17    -0.08   0.02  -0.10     0.03  -0.00   0.01    -0.01  -0.01   0.01
  20   1     0.10  -0.20   0.16    -0.09   0.05  -0.01     0.01  -0.03  -0.04
  21   1    -0.17  -0.22   0.01    -0.03   0.06   0.00    -0.02  -0.04  -0.06
  22   1     0.01  -0.09   0.06    -0.08   0.04  -0.00    -0.08  -0.01  -0.06
  23   1     0.19   0.31   0.08    -0.12  -0.03   0.04    -0.04   0.05   0.05
  24   1    -0.11   0.26  -0.22    -0.04  -0.03   0.05    -0.07   0.05   0.05
  25   1    -0.04  -0.10  -0.07    -0.08  -0.05   0.04     0.05   0.06   0.06
  26   1    -0.01  -0.05   0.13    -0.04  -0.05   0.07     0.02   0.06   0.03
  27   1    -0.01   0.00  -0.02    -0.07  -0.01  -0.02     0.06  -0.01   0.01
  28   1    -0.01   0.01  -0.01    -0.06   0.03  -0.07     0.05  -0.06  -0.06
  29   1    -0.01   0.01   0.03    -0.04   0.07   0.12     0.03   0.06   0.20
  30   1     0.01  -0.01  -0.01     0.06  -0.03  -0.10    -0.02  -0.10  -0.23
  31   1     0.01  -0.02   0.00     0.05  -0.02   0.04    -0.02   0.08   0.10
  32   1     0.01  -0.00  -0.01     0.05  -0.02  -0.04    -0.01  -0.07  -0.12
  33   1    -0.00  -0.00  -0.01     0.02  -0.01  -0.01     0.01  -0.01  -0.01
  34   1    -0.00  -0.01   0.01     0.02  -0.02   0.03     0.01   0.05   0.05
  35   1    -0.00   0.01  -0.01     0.01   0.02  -0.07    -0.00  -0.06  -0.07
  36   1    -0.00   0.00  -0.01     0.01  -0.02  -0.04    -0.00   0.00   0.00
                     13                     14                     15
                        a                      a                      a 
 Frequencies --   217.0626               243.0273               244.7099
 Red. masses --    12.4294                10.9347                10.2251
 Frc consts  --     0.0000                 0.0000                 0.0000
 IR Inten    --     2.1488                 0.3816                 5.0236
 Raman Activ --     0.0000                 0.0000                 0.0000
 Depolar     --     0.0000                 0.0000                 0.0000
 Atom AN      X      Y      Z        X      Y      Z        X      Y      Z
   1   7    -0.01  -0.00   0.00    -0.21   0.03   0.08    -0.06   0.06   0.22
   2   6    -0.00   0.02  -0.01    -0.17   0.09   0.05    -0.03  -0.01  -0.23
   3   6    -0.01  -0.00  -0.00    -0.09   0.20   0.02    -0.14   0.04  -0.30
   4   6    -0.01  -0.01  -0.01    -0.08  -0.05  -0.06    -0.15  -0.04  -0.08
   5   6    -0.01  -0.01  -0.02     0.03  -0.16  -0.13    -0.09  -0.05   0.13
   6   6    -0.00  -0.00  -0.01     0.02  -0.20   0.00    -0.09  -0.08   0.18
   7   6    -0.00   0.00   0.01     0.03  -0.14   0.18    -0.05  -0.12  -0.01
   8   6     0.00   0.01   0.01     0.09   0.03   0.24     0.02  -0.08  -0.23
   9   6     0.00   0.02   0.05     0.04   0.13   0.27     0.04  -0.07  -0.26
  10   6     0.00   0.02   0.04     0.10   0.13  -0.11     0.09   0.11  -0.02
  11   6    -0.00   0.17   0.33     0.10   0.04  -0.29     0.10   0.21   0.17
  12   6     0.00   0.10   0.20     0.07   0.02  -0.09     0.09   0.05   0.05
  13   9     0.02  -0.24  -0.48    -0.22  -0.01   0.08    -0.02  -0.05  -0.04
  14   6    -0.00   0.19   0.38     0.16   0.05   0.12     0.17  -0.09  -0.10
  15   6     0.00   0.00   0.00     0.19  -0.02  -0.06     0.19   0.02   0.08
  16   6     0.01  -0.20  -0.39     0.19   0.04  -0.15     0.19   0.11   0.10
  17   6    -0.00   0.00   0.01    -0.07  -0.13  -0.02    -0.14  -0.02   0.16
  18   6    -0.00  -0.00   0.01    -0.08  -0.10  -0.16    -0.15   0.01   0.14
  19  17    -0.00  -0.00  -0.00     0.01  -0.00   0.00     0.01   0.00   0.00
  20   1     0.00  -0.00  -0.00    -0.05   0.01  -0.00    -0.04   0.04   0.03
  21   1    -0.01   0.00   0.00    -0.07   0.03   0.05    -0.07   0.07   0.14
  22   1    -0.00  -0.01   0.00    -0.05  -0.03   0.04     0.07  -0.05   0.12
  23   1     0.00   0.01   0.00    -0.04   0.01  -0.00     0.03  -0.02  -0.09
  24   1    -0.00   0.01  -0.01    -0.06   0.02   0.04     0.02  -0.01  -0.07
  25   1    -0.00  -0.00  -0.00     0.01   0.10   0.03    -0.01   0.03  -0.07
  26   1    -0.00  -0.00   0.00    -0.07   0.09  -0.04    -0.06   0.03  -0.11
  27   1    -0.00  -0.00  -0.01     0.04  -0.04  -0.07    -0.01  -0.00   0.05
  28   1    -0.00  -0.00  -0.01     0.01  -0.06  -0.01    -0.02  -0.02   0.08
  29   1     0.00  -0.01  -0.02     0.05  -0.01   0.02     0.02  -0.02  -0.05
  30   1     0.00   0.01   0.02    -0.01   0.06   0.15     0.00  -0.04  -0.11
  31   1    -0.00   0.07   0.13     0.02   0.00  -0.11     0.02   0.08   0.08
  32   1    -0.00   0.08   0.16     0.04   0.04   0.10     0.05  -0.07  -0.09
  33   1     0.00  -0.01  -0.02     0.07  -0.01  -0.01     0.06  -0.00   0.02
  34   1     0.00  -0.14  -0.26     0.08   0.02  -0.05     0.08   0.04   0.03
  35   1    -0.00   0.00   0.00    -0.05  -0.05  -0.01    -0.06  -0.01   0.07
  36   1     0.00  -0.00   0.00    -0.02  -0.03  -0.08    -0.05   0.01   0.06
                     16                     17                     18
                        a                      a                      a 
 Frequencies --   308.0863               327.0641               342.9096
 Red. masses --     2.8591                10.0335                 9.2367
 Frc consts  --     0.0000                 0.0000                 0.0000
 IR Inten    --     2.7185                 4.4252                 6.8023
 Raman Activ --     0.0000                 0.0000                 0.0000
 Depolar     --     0.0000                 0.0000                 0.0000
 Atom AN      X      Y      Z        X      Y      Z        X      Y      Z
   1   7    -0.14   0.03   0.07    -0.18   0.10   0.17     0.28  -0.11  -0.30
   2   6    -0.09   0.11  -0.14    -0.15  -0.14  -0.07     0.20   0.06   0.23
   3   6     0.04  -0.06  -0.05    -0.07  -0.37   0.01    -0.04  -0.09   0.21
   4   6     0.07  -0.01   0.06     0.05   0.24  -0.07    -0.07   0.07  -0.11
   5   6     0.06  -0.00   0.02     0.16   0.18  -0.07    -0.10   0.08  -0.09
   6   6     0.07   0.02  -0.04     0.17   0.02  -0.00    -0.11   0.03   0.07
   7   6     0.07   0.02  -0.04     0.11  -0.02   0.03    -0.14   0.00   0.06
   8   6     0.04   0.01   0.03     0.07  -0.25   0.08    -0.11  -0.11  -0.02
   9   6     0.01   0.02   0.02     0.03  -0.22   0.08    -0.04  -0.14   0.02
  10   6    -0.02  -0.03   0.03     0.03  -0.02  -0.00     0.03   0.01  -0.04
  11   6    -0.05  -0.06  -0.01     0.08   0.05   0.00     0.15   0.11   0.01
  12   6    -0.05  -0.03  -0.00     0.07   0.06  -0.02     0.15   0.07  -0.03
  13   9     0.02   0.01   0.01    -0.29  -0.06   0.02    -0.19  -0.06   0.02
  14   6    -0.08   0.01   0.01     0.04   0.07  -0.05     0.19   0.02  -0.05
  15   6    -0.08   0.00  -0.01    -0.03   0.07  -0.02     0.09   0.04   0.03
  16   6    -0.07  -0.02  -0.00    -0.04   0.04  -0.01     0.08   0.02   0.00
  17   6     0.11   0.00  -0.05     0.01   0.07  -0.02    -0.19   0.02   0.03
  18   6     0.11  -0.01   0.01     0.05   0.24  -0.08    -0.16   0.07  -0.05
  19  17    -0.00  -0.02   0.04     0.01   0.01  -0.01    -0.02  -0.01   0.02
  20   1     0.00   0.13  -0.42    -0.11   0.03   0.14     0.15   0.01  -0.31
  21   1    -0.09   0.38   0.42    -0.06  -0.02   0.01     0.14   0.10   0.02
  22   1    -0.03  -0.50   0.17     0.03   0.12   0.05    -0.08  -0.23  -0.09
  23   1    -0.00   0.05  -0.03    -0.05  -0.01   0.01     0.04   0.04   0.09
  24   1    -0.04   0.04  -0.06    -0.01  -0.04  -0.07     0.04   0.03   0.04
  25   1     0.02  -0.06  -0.06    -0.14  -0.23  -0.07    -0.10  -0.08   0.04
  26   1     0.03  -0.04   0.02     0.10  -0.20   0.12    -0.01  -0.06   0.15
  27   1     0.01  -0.00   0.01     0.09   0.07  -0.03    -0.02   0.02  -0.03
  28   1     0.02   0.01  -0.02     0.06  -0.00   0.00    -0.02   0.01   0.04
  29   1     0.01   0.01   0.02    -0.01  -0.08   0.01    -0.05  -0.05  -0.04
  30   1     0.01   0.00  -0.00    -0.03  -0.07   0.04    -0.02  -0.03   0.04
  31   1    -0.01  -0.02  -0.01     0.03   0.01   0.01     0.05   0.03   0.02
  32   1    -0.02   0.01   0.01     0.02   0.04  -0.03     0.06   0.01  -0.03
  33   1    -0.02  -0.00  -0.01    -0.02   0.03  -0.01     0.02   0.02   0.02
  34   1    -0.03  -0.01   0.00    -0.03   0.01  -0.00     0.03   0.01   0.00
  35   1     0.04   0.00  -0.02    -0.03   0.01  -0.01    -0.07   0.00   0.02
  36   1     0.04  -0.01   0.00    -0.00   0.08  -0.03    -0.06   0.03  -0.01
                     19                     20                     21
                        a                      a                      a 
 Frequencies --   358.6245               367.8295               384.4818
 Red. masses --     9.0333                10.0536                11.0313
 Frc consts  --     0.0000                 0.0000                 0.0000
 IR Inten    --     0.3248                 2.7384                 3.2961
 Raman Activ --     0.0000                 0.0000                 0.0000
 Depolar     --     0.0000                 0.0000                 0.0000
 Atom AN      X      Y      Z        X      Y      Z        X      Y      Z
   1   7     0.06  -0.01  -0.01    -0.12   0.02  -0.00    -0.06   0.00   0.03
   2   6     0.05  -0.01  -0.06    -0.09   0.05   0.14    -0.03   0.05  -0.01
   3   6     0.01  -0.01  -0.05    -0.03   0.02   0.13     0.04   0.18  -0.04
   4   6    -0.01   0.02   0.08     0.02  -0.03  -0.20     0.01  -0.22   0.04
   5   6    -0.05   0.13   0.48     0.07  -0.04  -0.10    -0.10  -0.14  -0.02
   6   6    -0.01  -0.10  -0.43     0.07  -0.02   0.03    -0.06   0.19  -0.02
   7   6    -0.03  -0.02  -0.10     0.07   0.06   0.31     0.04   0.24   0.01
   8   6    -0.03  -0.00   0.03     0.08  -0.04  -0.12    -0.02  -0.08  -0.02
   9   6    -0.01  -0.02   0.06     0.02   0.01  -0.16     0.07  -0.19   0.03
  10   6     0.00   0.02   0.06    -0.00  -0.06  -0.20     0.03  -0.20  -0.02
  11   6     0.05  -0.01  -0.05    -0.12   0.06   0.17     0.19  -0.00   0.11
  12   6     0.05   0.03   0.01    -0.12  -0.08  -0.04     0.21   0.05  -0.08
  13   9    -0.08  -0.03   0.01     0.18   0.07  -0.01    -0.38  -0.13   0.08
  14   6     0.05   0.05   0.03    -0.12  -0.13  -0.12     0.11   0.12  -0.16
  15   6     0.01  -0.02  -0.07    -0.01   0.09   0.23    -0.13   0.17   0.06
  16   6     0.00  -0.00   0.01     0.01   0.00  -0.05    -0.14  -0.07  -0.01
  17   6    -0.05   0.09   0.32     0.05   0.08   0.31     0.17   0.14  -0.02
  18   6    -0.02  -0.09  -0.29     0.07  -0.07  -0.38     0.14  -0.17   0.01
  19  17    -0.00   0.00   0.00     0.00  -0.00   0.00     0.00  -0.00  -0.00
  20   1     0.01  -0.00  -0.00    -0.02   0.00  -0.02    -0.01  -0.01   0.03
  21   1     0.01  -0.00   0.00    -0.02   0.01  -0.00    -0.03  -0.02  -0.00
  22   1     0.02  -0.01   0.00    -0.06  -0.01  -0.01    -0.00   0.02   0.01
  23   1     0.02  -0.00  -0.02    -0.04   0.02   0.05    -0.00  -0.00  -0.02
  24   1     0.02  -0.00  -0.02    -0.04   0.02   0.05    -0.02   0.01   0.02
  25   1     0.01  -0.00  -0.02    -0.04   0.00   0.04     0.11   0.13   0.03
  26   1     0.01  -0.01  -0.02    -0.02   0.01   0.06    -0.06   0.12  -0.10
  27   1    -0.02   0.07   0.28     0.03  -0.01  -0.04    -0.08  -0.07  -0.02
  28   1     0.00  -0.07  -0.28     0.02  -0.02  -0.03    -0.06   0.08  -0.02
  29   1    -0.02   0.02   0.06     0.04  -0.06  -0.17    -0.05  -0.05  -0.04
  30   1     0.00  -0.01  -0.00    -0.00   0.04   0.06     0.02  -0.04   0.05
  31   1     0.02  -0.02  -0.04    -0.06   0.09   0.14     0.10   0.00   0.10
  32   1     0.02   0.03   0.01    -0.04  -0.07  -0.05     0.04   0.09  -0.09
  33   1    -0.00  -0.01  -0.04     0.01   0.06   0.16    -0.07   0.10   0.05
  34   1    -0.00  -0.00   0.00     0.01   0.00  -0.01    -0.08  -0.04   0.00
  35   1    -0.02   0.06   0.22     0.00   0.04   0.16     0.11   0.06  -0.01
  36   1    -0.00  -0.05  -0.20     0.03  -0.05  -0.20     0.09  -0.09   0.00
                     22                     23                     24
                        a                      a                      a 
 Frequencies --   412.9598               464.9594               479.8815
 Red. masses --     9.7376                10.3656                12.8033
 Frc consts  --     0.0000                 0.0000                 0.0000
 IR Inten    --     0.0415                 0.6852                 6.8031
 Raman Activ --     0.0000                 0.0000                 0.0000
 Depolar     --     0.0000                 0.0000                 0.0000
 Atom AN      X      Y      Z        X      Y      Z        X      Y      Z
   1   7    -0.07   0.00  -0.01    -0.04   0.01   0.01    -0.02   0.01   0.03
   2   6    -0.05   0.04   0.10    -0.02  -0.01   0.03    -0.01  -0.02  -0.07
   3   6    -0.03   0.05   0.07     0.01  -0.03   0.03     0.12  -0.02  -0.00
   4   6    -0.00  -0.09  -0.19     0.04   0.08  -0.10     0.10   0.05   0.20
   5   6     0.02  -0.07  -0.10     0.08   0.06  -0.04     0.02   0.04  -0.07
   6   6     0.02   0.06   0.14     0.03  -0.16   0.09     0.00   0.04  -0.04
   7   6     0.06   0.06   0.07    -0.04  -0.19   0.02    -0.11   0.06   0.20
   8   6     0.05  -0.08  -0.18     0.02   0.39  -0.17    -0.13   0.02  -0.03
   9   6     0.04  -0.08  -0.16     0.02   0.39  -0.16    -0.10  -0.02  -0.06
  10   6     0.01   0.06   0.18    -0.08  -0.18   0.12    -0.11  -0.18   0.01
  11   6     0.01  -0.09  -0.11     0.15  -0.11   0.06    -0.12  -0.10   0.06
  12   6     0.01   0.17   0.33     0.21   0.01  -0.07    -0.09   0.28  -0.01
  13   9    -0.04  -0.08  -0.10    -0.14  -0.12   0.08    -0.18   0.41  -0.26
  14   6    -0.03   0.11   0.16     0.12   0.12  -0.07     0.24  -0.03   0.01
  15   6    -0.04  -0.17  -0.38    -0.16   0.05   0.01     0.22  -0.10   0.02
  16   6    -0.04   0.13   0.26    -0.16  -0.19   0.06     0.16  -0.30   0.22
  17   6     0.06   0.09   0.16    -0.05  -0.18   0.10    -0.02  -0.07  -0.02
  18   6     0.06  -0.05  -0.13    -0.02   0.05  -0.05     0.00  -0.07  -0.04
  19  17    -0.00  -0.00  -0.00     0.00   0.00  -0.00     0.00   0.00  -0.00
  20   1    -0.00  -0.00  -0.02    -0.01   0.00   0.00    -0.02   0.01   0.03
  21   1    -0.01   0.00  -0.00    -0.01   0.00   0.00    -0.02   0.01   0.02
  22   1    -0.04  -0.01  -0.01    -0.01   0.01   0.00     0.03   0.01   0.02
  23   1    -0.02   0.01   0.03    -0.01   0.00   0.01    -0.00  -0.01  -0.02
  24   1    -0.03   0.01   0.04    -0.01   0.00   0.00    -0.00  -0.01  -0.02
  25   1    -0.01   0.03   0.04    -0.04  -0.03  -0.00     0.06  -0.01  -0.01
  26   1    -0.04   0.03   0.02     0.03  -0.03   0.04     0.06  -0.01  -0.02
  27   1     0.00  -0.02  -0.02     0.06   0.04   0.00    -0.01  -0.02  -0.10
  28   1    -0.01   0.04   0.08     0.06  -0.07   0.07     0.02  -0.02  -0.10
  29   1     0.01  -0.03  -0.06     0.12   0.15  -0.03    -0.02  -0.01  -0.07
  30   1     0.01  -0.02  -0.05     0.12   0.13  -0.08     0.00   0.02   0.03
  31   1     0.01  -0.12  -0.21     0.11  -0.07   0.05     0.04  -0.09   0.02
  32   1    -0.01   0.02   0.00     0.04   0.10  -0.04     0.05  -0.11   0.01
  33   1    -0.01  -0.14  -0.30    -0.10   0.06  -0.00     0.01  -0.00  -0.04
  34   1    -0.03   0.04   0.09    -0.08  -0.07   0.02     0.05  -0.08   0.07
  35   1     0.02   0.04   0.10    -0.05  -0.06   0.06     0.02  -0.03  -0.09
  36   1     0.03  -0.03  -0.04    -0.05   0.05  -0.01    -0.02  -0.03  -0.10
                     25                     26                     27
                        a                      a                      a 
 Frequencies --   487.5476               528.7629               563.0378
 Red. masses --    10.8419                10.7757                10.5346
 Frc consts  --     0.0000                 0.0000                 0.0000
 IR Inten    --     6.6162                11.2425                 7.0514
 Raman Activ --     0.0000                 0.0000                 0.0000
 Depolar     --     0.0000                 0.0000                 0.0000
 Atom AN      X      Y      Z        X      Y      Z        X      Y      Z
   1   7    -0.02  -0.01  -0.03     0.15  -0.03  -0.06    -0.04   0.01   0.01
   2   6    -0.01   0.04   0.11     0.07  -0.01  -0.00    -0.02   0.01   0.03
   3   6    -0.14   0.03   0.02    -0.25   0.01  -0.08     0.03   0.01   0.02
   4   6    -0.08  -0.11  -0.37    -0.26   0.09   0.17     0.05  -0.05  -0.21
   5   6     0.00  -0.06   0.08    -0.09  -0.08   0.09     0.02   0.04   0.07
   6   6     0.03  -0.01   0.08    -0.06  -0.18  -0.05     0.02  -0.01  -0.05
   7   6     0.15  -0.08  -0.36     0.19  -0.00   0.20    -0.02  -0.06  -0.20
   8   6     0.12  -0.05   0.03     0.27   0.07   0.05    -0.05   0.09   0.19
   9   6     0.10  -0.01   0.12     0.30   0.01  -0.03    -0.05   0.06   0.13
  10   6     0.03  -0.06   0.19     0.21  -0.19  -0.07    -0.04  -0.19  -0.42
  11   6    -0.14  -0.15   0.06    -0.08  -0.20   0.10     0.01  -0.00  -0.09
  12   6    -0.14   0.03  -0.25    -0.10   0.08   0.17     0.01   0.28   0.53
  13   9    -0.15   0.32  -0.10    -0.11   0.03  -0.07     0.02  -0.05  -0.10
  14   6     0.01   0.02   0.01    -0.20   0.07  -0.08     0.04  -0.12  -0.18
  15   6     0.12   0.04   0.03     0.01   0.17  -0.08    -0.01   0.02   0.13
  16   6     0.09  -0.21   0.00     0.02   0.02   0.04    -0.01  -0.01   0.00
  17   6     0.06   0.11   0.07    -0.02   0.07  -0.14     0.03  -0.05  -0.04
  18   6     0.04   0.06   0.05    -0.06   0.15   0.03     0.03   0.01   0.07
  19  17    -0.00  -0.00   0.00    -0.00  -0.00   0.00     0.00  -0.00  -0.00
  20   1     0.02  -0.01  -0.03     0.06  -0.01  -0.04    -0.01   0.00   0.00
  21   1     0.02  -0.01  -0.02     0.06  -0.01  -0.02    -0.01   0.00   0.00
  22   1    -0.05  -0.01  -0.03    -0.00  -0.02  -0.03    -0.01  -0.00   0.00
  23   1    -0.01   0.01   0.03     0.04  -0.01  -0.02    -0.01   0.00   0.01
  24   1    -0.01   0.01   0.03     0.04  -0.01  -0.01    -0.01   0.00   0.01
  25   1    -0.07   0.02   0.03    -0.07   0.01  -0.02    -0.01   0.00   0.01
  26   1    -0.08   0.02   0.03    -0.07  -0.00  -0.01    -0.00   0.01   0.01
  27   1     0.01   0.03   0.17     0.03  -0.02  -0.06    -0.00   0.04   0.14
  28   1    -0.02   0.05   0.18    -0.04  -0.06  -0.14     0.01   0.02   0.10
  29   1     0.02   0.02   0.11     0.09   0.00  -0.04    -0.01   0.00  -0.01
  30   1     0.02  -0.04  -0.06     0.10   0.03   0.05    -0.01   0.06   0.14
  31   1    -0.00  -0.05   0.06    -0.03  -0.06   0.02     0.01  -0.02  -0.06
  32   1    -0.01  -0.03   0.09    -0.06  -0.02  -0.06     0.01  -0.10  -0.19
  33   1     0.01   0.04   0.04     0.02   0.03  -0.03    -0.01   0.01   0.03
  34   1     0.00  -0.08  -0.01    -0.07  -0.01   0.05     0.01   0.03   0.05
  35   1    -0.00   0.07   0.18    -0.06  -0.03  -0.14     0.01   0.02   0.10
  36   1     0.03   0.04   0.16     0.02  -0.00  -0.06    -0.00   0.04   0.14
                     28                     29                     30
                        a                      a                      a 
 Frequencies --   599.1738               610.5962               638.5352
 Red. masses --    10.9926                11.2394                 9.3730
 Frc consts  --     0.0000                 0.0000                 0.0000
 IR Inten    --     1.4878                 0.0294                 3.0370
 Raman Activ --     0.0000                 0.0000                 0.0000
 Depolar     --     0.0000                 0.0000                 0.0000
 Atom AN      X      Y      Z        X      Y      Z        X      Y      Z
   1   7    -0.08   0.02   0.03    -0.01   0.00   0.01    -0.02   0.00   0.00
   2   6    -0.03  -0.00  -0.03    -0.01  -0.02  -0.00    -0.00   0.00   0.01
   3   6     0.24  -0.00   0.06     0.04  -0.07   0.03     0.01  -0.00   0.00
   4   6     0.20   0.01  -0.01     0.02  -0.11   0.04     0.03  -0.04  -0.13
   5   6    -0.08   0.18  -0.12     0.34  -0.28   0.07     0.02   0.02   0.07
   6   6    -0.13   0.06   0.05     0.39   0.23  -0.03     0.03  -0.01  -0.09
   7   6    -0.25  -0.06  -0.09    -0.03   0.10  -0.04    -0.02   0.01   0.01
   8   6    -0.14   0.13  -0.05    -0.02   0.09  -0.03    -0.02   0.07   0.13
   9   6     0.24  -0.16   0.10     0.05   0.07  -0.00     0.00  -0.01  -0.04
  10   6     0.31  -0.07   0.04     0.05  -0.02   0.01     0.01  -0.22  -0.42
  11   6    -0.07  -0.18   0.10    -0.01  -0.05   0.01    -0.00   0.12   0.23
  12   6    -0.10  -0.05   0.02    -0.01   0.01   0.03     0.01  -0.13  -0.25
  13   9    -0.06  -0.05   0.03    -0.01  -0.03   0.01    -0.00  -0.01  -0.02
  14   6    -0.25   0.11  -0.06    -0.04   0.02  -0.03     0.00   0.13   0.25
  15   6     0.18   0.29  -0.15     0.03   0.07  -0.01     0.00  -0.16  -0.32
  16   6     0.16   0.12  -0.06     0.02   0.00  -0.02    -0.00   0.15   0.29
  17   6    -0.07  -0.22   0.12    -0.36   0.27  -0.07    -0.01  -0.03  -0.08
  18   6    -0.03  -0.13  -0.04    -0.43  -0.25   0.03    -0.02  -0.00   0.07
  19  17     0.00   0.00  -0.00     0.00   0.00  -0.00     0.00  -0.00   0.00
  20   1    -0.04   0.01   0.03    -0.01   0.00   0.00    -0.01   0.00   0.00
  21   1    -0.04   0.01   0.02    -0.00   0.00   0.00    -0.01   0.00  -0.00
  22   1     0.02   0.01   0.03     0.01   0.00   0.00    -0.01   0.00   0.00
  23   1    -0.02   0.00   0.00    -0.01   0.00   0.01    -0.01   0.00   0.01
  24   1    -0.02   0.00   0.00    -0.00  -0.00  -0.01    -0.00   0.00   0.01
  25   1     0.08  -0.01   0.01    -0.02  -0.06  -0.02    -0.01  -0.00   0.00
  26   1     0.08  -0.00   0.00     0.04  -0.05   0.05    -0.00  -0.00   0.01
  27   1    -0.06   0.04  -0.00     0.05  -0.10   0.03     0.00   0.02   0.08
  28   1     0.03  -0.02   0.07     0.08   0.09  -0.01     0.01   0.00   0.02
  29   1    -0.10   0.02   0.01     0.00   0.03   0.00     0.00  -0.02  -0.07
  30   1     0.12  -0.03   0.01     0.05   0.02  -0.02     0.01   0.04   0.09
  31   1    -0.07  -0.02   0.00    -0.01  -0.02  -0.00    -0.00   0.13   0.24
  32   1    -0.08  -0.01   0.00    -0.01  -0.00  -0.02    -0.00   0.10   0.20
  33   1     0.09   0.05  -0.02     0.01   0.02  -0.00    -0.00  -0.00  -0.01
  34   1    -0.04   0.00  -0.00    -0.01  -0.01  -0.00    -0.00   0.13   0.26
  35   1     0.00  -0.04   0.08    -0.06   0.09  -0.02     0.00   0.00   0.02
  36   1    -0.08   0.02   0.00    -0.10  -0.08   0.02    -0.01   0.02   0.08
                     31                     32                     33
                        a                      a                      a 
 Frequencies --   685.6134               742.5537               753.0446
 Red. masses --    10.8186                12.3825                 6.1001
 Frc consts  --     0.0000                 0.0000                 0.0000
 IR Inten    --     1.3890                42.0770                 1.2739
 Raman Activ --     0.0000                 0.0000                 0.0000
 Depolar     --     0.0000                 0.0000                 0.0000
 Atom AN      X      Y      Z        X      Y      Z        X      Y      Z
   1   7    -0.07   0.01   0.01     0.02  -0.00  -0.00    -0.03   0.01   0.01
   2   6    -0.01   0.02   0.07    -0.00   0.00   0.01     0.00   0.02   0.05
   3   6     0.02  -0.00  -0.00    -0.10   0.00  -0.03    -0.04  -0.00  -0.03
   4   6     0.08  -0.13  -0.48    -0.05   0.01   0.04     0.02  -0.05  -0.18
   5   6     0.03   0.11   0.26     0.06  -0.07   0.01     0.03   0.05   0.10
   6   6     0.05  -0.02  -0.27     0.06   0.00   0.01     0.04   0.05   0.03
   7   6    -0.08   0.12   0.44     0.02  -0.00  -0.03    -0.04   0.03   0.11
   8   6    -0.07   0.03   0.00    -0.10  -0.12   0.02    -0.04  -0.11  -0.37
   9   6    -0.01  -0.07  -0.15    -0.36   0.14  -0.02     0.02   0.10   0.37
  10   6     0.01   0.09   0.19    -0.21  -0.01  -0.02     0.03  -0.04  -0.08
  11   6    -0.01  -0.03  -0.01    -0.16  -0.09   0.03     0.02  -0.03  -0.08
  12   6    -0.00  -0.02  -0.03    -0.03   0.04   0.01    -0.00   0.06   0.14
  13   9     0.00  -0.02   0.04     0.12  -0.35   0.18    -0.01   0.02  -0.05
  14   6    -0.02   0.01  -0.03    -0.02   0.20  -0.11    -0.01  -0.06  -0.07
  15   6     0.04   0.09   0.04     0.35   0.38  -0.21    -0.02  -0.07  -0.07
  16   6     0.03  -0.02  -0.03     0.20  -0.17   0.08    -0.01  -0.01  -0.10
  17   6     0.03  -0.14  -0.25     0.09   0.04   0.01     0.03  -0.04   0.07
  18   6     0.01   0.03   0.28     0.11   0.07  -0.02     0.02   0.01   0.12
  19  17     0.00  -0.00  -0.00    -0.00  -0.00   0.00    -0.00  -0.00   0.00
  20   1    -0.01   0.00  -0.00     0.02  -0.00  -0.01     0.01  -0.00  -0.01
  21   1    -0.01   0.00  -0.00     0.02  -0.00  -0.01     0.01  -0.00  -0.01
  22   1    -0.03   0.00  -0.00    -0.02  -0.00  -0.01    -0.03   0.00  -0.01
  23   1    -0.01   0.01   0.03     0.01  -0.00  -0.00    -0.00   0.00   0.01
  24   1    -0.02   0.01   0.02     0.01  -0.00  -0.00    -0.00   0.01   0.01
  25   1    -0.04   0.00   0.02    -0.03   0.01  -0.00    -0.03   0.00   0.00
  26   1    -0.03   0.01   0.02    -0.03   0.00  -0.01    -0.03   0.01   0.00
  27   1    -0.00   0.03   0.11     0.04  -0.01  -0.01     0.01  -0.03  -0.14
  28   1     0.03  -0.03  -0.12    -0.01   0.02  -0.00     0.04  -0.05  -0.17
  29   1    -0.02  -0.03  -0.10     0.00  -0.01   0.03    -0.03   0.12   0.31
  30   1     0.00   0.03   0.06    -0.16   0.00  -0.04     0.03  -0.14  -0.33
  31   1    -0.01  -0.05  -0.08    -0.01  -0.03   0.05    -0.00   0.08   0.14
  32   1    -0.01  -0.02  -0.05    -0.01   0.00   0.02    -0.00   0.08   0.17
  33   1     0.01  -0.01  -0.05     0.06   0.15  -0.05     0.00   0.08   0.18
  34   1    -0.00  -0.06  -0.11     0.00  -0.04   0.07     0.00   0.14   0.24
  35   1     0.03  -0.04  -0.10     0.03   0.01  -0.01     0.03  -0.07  -0.20
  36   1    -0.01   0.03   0.12     0.06  -0.01  -0.02     0.01  -0.04  -0.14
                     34                     35                     36
                        a                      a                      a 
 Frequencies --   785.6784               798.0343               799.9101
 Red. masses --     6.1590                 7.6307                 2.4829
 Frc consts  --     0.0000                 0.0000                 0.0000
 IR Inten    --    61.1690                 4.1144                29.5869
 Raman Activ --     0.0000                 0.0000                 0.0000
 Depolar     --     0.0000                 0.0000                 0.0000
 Atom AN      X      Y      Z        X      Y      Z        X      Y      Z
   1   7    -0.00  -0.00  -0.01     0.03   0.00   0.01    -0.01  -0.02   0.02
   2   6     0.00  -0.02  -0.07     0.00   0.07   0.05    -0.03  -0.20   0.08
   3   6     0.21  -0.01   0.09    -0.26   0.06  -0.12    -0.08  -0.19   0.01
   4   6     0.04   0.00   0.05    -0.05   0.02   0.02    -0.01   0.01  -0.01
   5   6    -0.12   0.02  -0.08     0.14  -0.04   0.06     0.05   0.04   0.03
   6   6    -0.13  -0.09  -0.11     0.16   0.10   0.10     0.06   0.04   0.05
   7   6     0.08   0.03   0.15    -0.11  -0.04  -0.19    -0.03  -0.02  -0.07
   8   6     0.18  -0.09   0.06    -0.22   0.21   0.19    -0.05   0.05   0.06
   9   6    -0.00   0.03  -0.15     0.03  -0.20  -0.21     0.01  -0.05  -0.06
  10   6    -0.03   0.11   0.20     0.04   0.09   0.19     0.01   0.02   0.05
  11   6    -0.01  -0.10  -0.16     0.03  -0.05  -0.11     0.01  -0.01  -0.03
  12   6    -0.00   0.10   0.17     0.01   0.04   0.10     0.00   0.01   0.02
  13   9     0.01  -0.04  -0.02    -0.02   0.03  -0.04    -0.00   0.01  -0.01
  14   6     0.01  -0.07  -0.17    -0.00  -0.08  -0.10    -0.00  -0.02  -0.03
  15   6    -0.00  -0.04  -0.10    -0.01  -0.05  -0.05    -0.00  -0.01  -0.01
  16   6    -0.00  -0.11  -0.12    -0.00   0.00  -0.11    -0.00   0.00  -0.02
  17   6    -0.09   0.09  -0.14     0.12  -0.14   0.11    -0.00  -0.02   0.02
  18   6    -0.10  -0.02  -0.08     0.12  -0.01   0.03     0.01   0.03  -0.01
  19  17     0.00   0.00  -0.00    -0.00  -0.00  -0.00     0.00   0.00   0.00
  20   1    -0.04   0.01   0.02     0.09  -0.03  -0.01    -0.15   0.09  -0.07
  21   1    -0.04   0.01   0.02    -0.00  -0.03  -0.03     0.23   0.08   0.01
  22   1     0.07   0.00   0.03    -0.08  -0.02  -0.03    -0.04   0.07  -0.03
  23   1    -0.02   0.01  -0.00    -0.02  -0.09  -0.08     0.16   0.32   0.31
  24   1    -0.01  -0.00  -0.02     0.05  -0.04   0.12    -0.10   0.14  -0.44
  25   1     0.09  -0.00   0.02    -0.12  -0.06  -0.09     0.07   0.25   0.25
  26   1     0.08  -0.00  -0.00    -0.08  -0.02   0.09    -0.06   0.10  -0.36
  27   1    -0.06   0.05   0.17     0.06  -0.04  -0.12     0.04  -0.00  -0.08
  28   1    -0.08   0.05   0.17     0.09  -0.04  -0.14     0.04  -0.02  -0.07
  29   1     0.09  -0.05  -0.09    -0.09  -0.05  -0.20    -0.02  -0.01  -0.05
  30   1    -0.05   0.01   0.01     0.05   0.07   0.19     0.02   0.02   0.06
  31   1     0.01   0.10   0.23    -0.02   0.09   0.12    -0.00   0.03   0.04
  32   1    -0.00   0.17   0.31    -0.00   0.11   0.22    -0.00   0.03   0.06
  33   1    -0.01   0.14   0.24     0.01   0.06   0.16     0.00   0.01   0.04
  34   1    -0.01   0.13   0.27     0.00   0.09   0.14     0.00   0.02   0.03
  35   1    -0.06   0.07   0.16     0.07  -0.05  -0.05    -0.00  -0.01  -0.01
  36   1    -0.04   0.05   0.16     0.04  -0.04  -0.08    -0.01   0.02  -0.02
                     37                     38                     39
                        a                      a                      a 
 Frequencies --   814.3126               849.5339               856.2635
 Red. masses --     7.6723                 3.7266                 3.4943
 Frc consts  --     0.0000                 0.0000                 0.0000
 IR Inten    --     6.1822                 0.3718                 0.2955
 Raman Activ --     0.0000                 0.0000                 0.0000
 Depolar     --     0.0000                 0.0000                 0.0000
 Atom AN      X      Y      Z        X      Y      Z        X      Y      Z
   1   7    -0.08   0.01  -0.01    -0.00  -0.00   0.01     0.01  -0.00   0.00
   2   6     0.02   0.01   0.01     0.00  -0.00   0.01    -0.00   0.01  -0.01
   3   6     0.29  -0.01   0.07    -0.02   0.00  -0.02    -0.02   0.01  -0.00
   4   6     0.10  -0.08  -0.25     0.00  -0.00   0.00    -0.01   0.01   0.03
   5   6    -0.14   0.11   0.13     0.00   0.01  -0.06     0.00   0.02   0.13
   6   6    -0.16  -0.00   0.23     0.01  -0.00  -0.11    -0.00   0.06   0.23
   7   6     0.12  -0.08  -0.26    -0.01   0.00  -0.00    -0.01   0.01   0.04
   8   6     0.21  -0.06   0.21     0.01  -0.01   0.00    -0.01  -0.01  -0.04
   9   6    -0.02   0.05  -0.14     0.01  -0.01  -0.01    -0.00   0.01   0.04
  10   6    -0.05   0.02   0.01     0.00   0.02   0.04    -0.00   0.00   0.00
  11   6    -0.03  -0.02  -0.02     0.00  -0.20  -0.36    -0.00  -0.07  -0.13
  12   6    -0.01   0.01  -0.00     0.00   0.02   0.03    -0.00   0.00  -0.00
  13   9     0.02  -0.04   0.02    -0.00  -0.00  -0.01     0.00  -0.00  -0.00
  14   6     0.01   0.02  -0.01     0.00   0.06   0.12     0.00   0.04   0.07
  15   6     0.01   0.02  -0.01    -0.01   0.04   0.09     0.00   0.02   0.04
  16   6    -0.00  -0.05   0.03    -0.00   0.05   0.09     0.00   0.01   0.02
  17   6    -0.12   0.17   0.09     0.00   0.00   0.10     0.02  -0.08  -0.26
  18   6    -0.13  -0.00   0.13    -0.01  -0.00   0.07     0.02  -0.05  -0.19
  19  17     0.00   0.00  -0.00     0.00   0.00   0.00    -0.00   0.00  -0.00
  20   1    -0.04   0.00   0.03    -0.00   0.00  -0.01     0.01  -0.00  -0.00
  21   1    -0.07   0.01   0.02     0.02   0.00  -0.00    -0.00  -0.01  -0.00
  22   1     0.04   0.00   0.03    -0.02   0.00  -0.01     0.00   0.00  -0.00
  23   1    -0.04  -0.01   0.00     0.01   0.00   0.00    -0.00  -0.01  -0.01
  24   1    -0.02  -0.00   0.05    -0.00   0.00  -0.00     0.01  -0.01   0.01
  25   1     0.06  -0.02   0.01    -0.01  -0.00  -0.01    -0.01  -0.01  -0.01
  26   1     0.07  -0.00   0.04    -0.01  -0.00   0.00     0.00  -0.01   0.01
  27   1    -0.05  -0.06  -0.29    -0.01   0.03   0.11     0.01  -0.07  -0.26
  28   1    -0.06  -0.08  -0.36    -0.00   0.05   0.17     0.02  -0.10  -0.42
  29   1     0.10  -0.04  -0.04     0.01   0.00   0.00    -0.00   0.01   0.03
  30   1    -0.06   0.06   0.11     0.00  -0.01  -0.01     0.01  -0.03  -0.08
  31   1     0.02   0.00   0.05    -0.01   0.33   0.63    -0.00   0.13   0.23
  32   1     0.00   0.00  -0.00     0.00  -0.09  -0.18     0.00  -0.06  -0.11
  33   1    -0.02   0.01  -0.02     0.00  -0.13  -0.25     0.00  -0.05  -0.11
  34   1    -0.01  -0.02  -0.00     0.00  -0.08  -0.15     0.00  -0.02  -0.03
  35   1    -0.04  -0.04  -0.24     0.02  -0.05  -0.17    -0.02   0.13   0.47
  36   1    -0.04  -0.06  -0.21     0.00  -0.04  -0.14    -0.01   0.11   0.39
                     40                     41                     42
                        a                      a                      a 
 Frequencies --   881.7092               887.4464               895.5742
 Red. masses --     4.0632                 9.2935                 2.9635
 Frc consts  --     0.0000                 0.0000                 0.0000
 IR Inten    --     0.2608                 9.7903                27.9200
 Raman Activ --     0.0000                 0.0000                 0.0000
 Depolar     --     0.0000                 0.0000                 0.0000
 Atom AN      X      Y      Z        X      Y      Z        X      Y      Z
   1   7    -0.00  -0.01   0.00     0.07  -0.00  -0.11     0.05   0.18  -0.07
   2   6     0.00  -0.00  -0.00    -0.03  -0.03  -0.10     0.01   0.07  -0.01
   3   6     0.01   0.02  -0.00     0.20  -0.02   0.21    -0.11  -0.27   0.07
   4   6    -0.00   0.00  -0.00    -0.10  -0.00  -0.09     0.01  -0.01   0.01
   5   6    -0.00  -0.01   0.01     0.09  -0.36   0.09     0.01   0.12  -0.02
   6   6    -0.01  -0.01   0.02    -0.05  -0.29   0.11     0.06   0.08  -0.03
   7   6     0.00   0.00   0.00    -0.03   0.01   0.01    -0.01  -0.02  -0.00
   8   6    -0.00  -0.01  -0.03    -0.33   0.18  -0.08     0.06  -0.03   0.02
   9   6    -0.00   0.02   0.04    -0.02  -0.12   0.04     0.00   0.03  -0.01
  10   6    -0.00  -0.05  -0.10     0.03  -0.01   0.02    -0.00  -0.00  -0.01
  11   6    -0.00  -0.00  -0.01     0.03  -0.01  -0.02    -0.00  -0.00  -0.00
  12   6    -0.00   0.03   0.06     0.02  -0.01   0.01    -0.00   0.00   0.00
  13   9     0.00  -0.01  -0.01    -0.02   0.03  -0.02     0.00  -0.00   0.00
  14   6     0.00  -0.16  -0.30    -0.01  -0.01   0.01    -0.00  -0.00  -0.01
  15   6     0.00   0.01   0.01     0.02   0.00   0.00    -0.00  -0.00  -0.00
  16   6    -0.00   0.17   0.33     0.01   0.05  -0.03    -0.00   0.00   0.02
  17   6     0.00   0.00  -0.01    -0.01   0.25  -0.04    -0.02  -0.05   0.01
  18   6     0.00   0.00  -0.01     0.13   0.33  -0.07    -0.03  -0.02   0.00
  19  17     0.00   0.00  -0.00     0.00   0.00  -0.00    -0.01   0.00  -0.00
  20   1    -0.02   0.01  -0.00    -0.05  -0.01   0.08     0.39  -0.17   0.08
  21   1     0.02   0.01   0.00    -0.18   0.02   0.06    -0.48  -0.13  -0.01
  22   1     0.00   0.01  -0.00     0.26  -0.02   0.09     0.01  -0.19   0.05
  23   1     0.01  -0.00  -0.01    -0.09   0.01   0.02    -0.28  -0.01   0.07
  24   1    -0.01   0.00   0.00    -0.01  -0.01  -0.02     0.28  -0.10  -0.04
  25   1    -0.00  -0.01  -0.01     0.08   0.04   0.09     0.09   0.18   0.22
  26   1     0.01  -0.00   0.02     0.06   0.01   0.00    -0.12   0.07  -0.26
  27   1     0.00  -0.01  -0.01     0.12  -0.05   0.07     0.00   0.03  -0.04
  28   1    -0.00  -0.01  -0.02    -0.04  -0.09  -0.04     0.04   0.02   0.02
  29   1    -0.00   0.02   0.05    -0.18   0.03  -0.00     0.04  -0.00  -0.00
  30   1     0.00  -0.00  -0.01     0.05  -0.01   0.02    -0.00   0.00  -0.01
  31   1    -0.00   0.02   0.03    -0.03   0.05   0.03     0.01  -0.00   0.01
  32   1    -0.01   0.27   0.52    -0.00  -0.01  -0.01    -0.00   0.01   0.02
  33   1     0.00  -0.02  -0.05     0.02  -0.02  -0.00    -0.00   0.00   0.00
  34   1     0.01  -0.28  -0.54     0.01   0.02  -0.01    -0.00  -0.02  -0.04
  35   1    -0.00   0.01   0.02    -0.07   0.02  -0.08    -0.01  -0.01   0.02
  36   1     0.00   0.01   0.02     0.10   0.05  -0.00    -0.04   0.01  -0.01
                     43                     44                     45
                        a                      a                      a 
 Frequencies --   900.6773               917.1822               918.7173
 Red. masses --     3.1300                 4.0030                 3.4166
 Frc consts  --     0.0000                 0.0000                 0.0000
 IR Inten    --     0.4240                 0.2565                 0.1913
 Raman Activ --     0.0000                 0.0000                 0.0000
 Depolar     --     0.0000                 0.0000                 0.0000
 Atom AN      X      Y      Z        X      Y      Z        X      Y      Z
   1   7     0.02   0.00   0.00     0.02  -0.01  -0.01     0.00  -0.00  -0.00
   2   6    -0.01  -0.00  -0.01    -0.01  -0.00  -0.02    -0.00  -0.00  -0.00
   3   6    -0.05  -0.01  -0.01    -0.02   0.02   0.01    -0.00   0.00   0.00
   4   6     0.01   0.00   0.01    -0.00   0.00  -0.00    -0.00   0.00   0.00
   5   6     0.01  -0.04  -0.32    -0.01   0.06   0.20     0.00  -0.00  -0.01
   6   6     0.01   0.10   0.23     0.01  -0.02  -0.15    -0.00   0.00   0.01
   7   6    -0.00   0.00   0.02     0.00   0.00   0.00    -0.00   0.00   0.00
   8   6     0.04  -0.02   0.00     0.01  -0.01   0.00    -0.00  -0.00  -0.01
   9   6     0.00   0.01  -0.02     0.00  -0.00  -0.01     0.00  -0.00  -0.01
  10   6    -0.01   0.00  -0.00     0.00   0.00   0.00    -0.00   0.02   0.04
  11   6    -0.01   0.01  -0.00     0.00  -0.00  -0.00     0.00  -0.04  -0.08
  12   6    -0.00   0.00  -0.00     0.00   0.00   0.00    -0.00   0.02   0.04
  13   9     0.00  -0.01   0.00    -0.00   0.00   0.00     0.00   0.00   0.00
  14   6     0.00   0.00  -0.00    -0.00   0.00   0.01    -0.00   0.07   0.14
  15   6    -0.00   0.00  -0.00    -0.00  -0.01  -0.02     0.00  -0.17  -0.34
  16   6    -0.00  -0.01   0.01    -0.00   0.00   0.01    -0.00   0.09   0.17
  17   6     0.00  -0.01   0.11    -0.01   0.06   0.28     0.00  -0.01  -0.02
  18   6    -0.01  -0.06  -0.08     0.01  -0.11  -0.33     0.00   0.00   0.02
  19  17    -0.00  -0.00  -0.00     0.00  -0.00  -0.00     0.00  -0.00   0.00
  20   1     0.02  -0.00  -0.00    -0.01   0.00   0.01    -0.01   0.00   0.00
  21   1     0.00  -0.00  -0.00    -0.00   0.00   0.01     0.01   0.00   0.00
  22   1    -0.01  -0.00  -0.00     0.04   0.00   0.01     0.00   0.00   0.00
  23   1    -0.00   0.00  -0.00    -0.01  -0.00  -0.00     0.00   0.00  -0.00
  24   1     0.01  -0.00  -0.01    -0.01  -0.00   0.00    -0.01   0.00  -0.00
  25   1    -0.00   0.00   0.00    -0.02  -0.00   0.00    -0.00  -0.00  -0.00
  26   1    -0.02   0.00  -0.01     0.00  -0.00   0.01     0.00  -0.00   0.00
  27   1    -0.04   0.17   0.62     0.01  -0.07  -0.28    -0.00   0.00   0.01
  28   1     0.03  -0.11  -0.47    -0.01   0.05   0.17     0.00  -0.00  -0.01
  29   1     0.02   0.01   0.04     0.00   0.00   0.01    -0.00   0.01   0.02
  30   1     0.00   0.01   0.03    -0.00   0.01   0.03     0.00   0.01   0.02
  31   1     0.00  -0.00  -0.00     0.00  -0.00   0.00    -0.00   0.02   0.04
  32   1     0.00  -0.00  -0.00     0.00  -0.01  -0.02     0.00  -0.15  -0.30
  33   1    -0.00   0.01   0.00    -0.00   0.02   0.03    -0.01   0.33   0.64
  34   1     0.00  -0.00   0.00    -0.00  -0.01  -0.01     0.00  -0.17  -0.33
  35   1     0.02  -0.08  -0.28     0.03  -0.13  -0.46    -0.00   0.01   0.03
  36   1    -0.03   0.07   0.26    -0.03   0.16   0.59     0.00  -0.01  -0.03
                     46                     47                     48
                        a                      a                      a 
 Frequencies --   925.0036               963.5190               972.0525
 Red. masses --     6.6009                 2.4613                10.4295
 Frc consts  --     0.0000                 0.0000                 0.0000
 IR Inten    --    29.8415                27.2821               102.4396
 Raman Activ --     0.0000                 0.0000                 0.0000
 Depolar     --     0.0000                 0.0000                 0.0000
 Atom AN      X      Y      Z        X      Y      Z        X      Y      Z
   1   7    -0.29   0.12   0.22     0.01  -0.00  -0.00    -0.00  -0.00   0.00
   2   6     0.20   0.05   0.17    -0.01  -0.00  -0.00     0.00   0.00  -0.00
   3   6     0.22  -0.13  -0.25    -0.01   0.00   0.00     0.00  -0.00   0.00
   4   6     0.05   0.00   0.04     0.00   0.00   0.01    -0.01  -0.01  -0.00
   5   6     0.01  -0.11   0.02     0.01  -0.00   0.00     0.00  -0.02   0.00
   6   6    -0.09  -0.19   0.03     0.01   0.01   0.00     0.01   0.05  -0.01
   7   6     0.01   0.00   0.02    -0.01   0.00   0.02    -0.03  -0.02  -0.01
   8   6    -0.10   0.06  -0.03     0.02  -0.10  -0.20    -0.04  -0.09   0.09
   9   6    -0.01  -0.03   0.01    -0.07  -0.04  -0.20    -0.31   0.18  -0.04
  10   6     0.01  -0.01   0.01     0.01  -0.01   0.02     0.05  -0.08   0.03
  11   6     0.01  -0.01  -0.00     0.08   0.00   0.01     0.40  -0.09   0.05
  12   6     0.01  -0.01   0.00     0.04  -0.05   0.02     0.22  -0.24   0.13
  13   9    -0.01   0.01  -0.01    -0.03   0.05  -0.03    -0.15   0.26  -0.14
  14   6    -0.00  -0.00   0.01    -0.10  -0.02   0.01    -0.43  -0.08   0.04
  15   6     0.01   0.00  -0.00     0.02   0.01   0.00     0.10   0.03  -0.01
  16   6     0.00   0.02  -0.01     0.02  -0.01  -0.02     0.09   0.08  -0.03
  17   6    -0.05   0.19  -0.04     0.01  -0.01  -0.03     0.01   0.01   0.01
  18   6     0.03   0.10  -0.07     0.00   0.00   0.00     0.03   0.04  -0.01
  19  17    -0.00   0.00   0.00    -0.00  -0.00  -0.00     0.00  -0.00   0.00
  20   1     0.21  -0.05  -0.11    -0.00   0.00   0.00    -0.00   0.00  -0.00
  21   1     0.09  -0.08  -0.12    -0.00   0.00   0.00     0.00   0.00   0.00
  22   1    -0.56  -0.03  -0.14     0.01  -0.00   0.00    -0.00   0.00  -0.00
  23   1     0.06  -0.02   0.02    -0.00   0.00   0.00     0.00  -0.00  -0.00
  24   1     0.14  -0.02   0.03    -0.00   0.00  -0.00    -0.00   0.00   0.00
  25   1     0.13  -0.02  -0.08    -0.00   0.00   0.00     0.01  -0.00  -0.00
  26   1     0.10  -0.04  -0.11    -0.00   0.00   0.00    -0.00   0.00   0.00
  27   1     0.04  -0.01   0.03     0.00  -0.01  -0.03    -0.01  -0.01   0.01
  28   1    -0.04  -0.04   0.02    -0.02   0.02   0.03    -0.03   0.03  -0.03
  29   1    -0.06   0.01   0.01     0.00   0.23   0.62     0.12  -0.04  -0.13
  30   1     0.01   0.00   0.01    -0.04   0.25   0.60    -0.13  -0.02  -0.14
  31   1    -0.01   0.01   0.00     0.05  -0.01   0.04     0.22  -0.10   0.06
  32   1    -0.00  -0.00  -0.00    -0.03   0.00   0.01    -0.11   0.01  -0.01
  33   1     0.01  -0.00   0.01     0.04  -0.03   0.00     0.22  -0.12   0.07
  34   1     0.00   0.00  -0.00    -0.00   0.02   0.03     0.01   0.01  -0.02
  35   1    -0.05   0.03  -0.04     0.01   0.02   0.05     0.01   0.00  -0.01
  36   1     0.03   0.04   0.06    -0.00  -0.00  -0.01     0.01   0.01   0.00
                     49                     50                     51
                        a                      a                      a 
 Frequencies --   991.7692              1019.8836              1028.3484
 Red. masses --    10.4866                 9.2656                 9.1172
 Frc consts  --     0.0000                 0.0000                 0.0000
 IR Inten    --     1.9385                 1.4314                19.3884
 Raman Activ --     0.0000                 0.0000                 0.0000
 Depolar     --     0.0000                 0.0000                 0.0000
 Atom AN      X      Y      Z        X      Y      Z        X      Y      Z
   1   7    -0.00  -0.00   0.00     0.29  -0.01   0.09    -0.39  -0.00  -0.19
   2   6     0.00   0.00  -0.00    -0.38   0.05  -0.02     0.56  -0.09   0.05
   3   6     0.01  -0.00   0.00    -0.08  -0.02  -0.03    -0.14   0.06   0.00
   4   6    -0.01  -0.00  -0.00     0.13  -0.02  -0.02     0.03   0.03   0.07
   5   6     0.01  -0.03   0.01     0.03   0.30  -0.07     0.02   0.19  -0.06
   6   6     0.01   0.04  -0.01    -0.07  -0.33   0.09    -0.02  -0.18   0.04
   7   6    -0.02  -0.01  -0.00     0.07   0.00   0.01     0.04   0.01   0.01
   8   6    -0.02  -0.07   0.02    -0.10   0.04  -0.02    -0.06   0.02  -0.01
   9   6    -0.16   0.10  -0.05    -0.06  -0.02   0.01    -0.04  -0.01   0.00
  10   6     0.10  -0.02   0.00    -0.01  -0.01   0.01    -0.01  -0.01   0.00
  11   6    -0.23  -0.48   0.25     0.01  -0.04   0.02     0.01  -0.02   0.01
  12   6     0.02   0.08  -0.04     0.02  -0.01   0.01     0.01  -0.01   0.00
  13   9    -0.01  -0.01   0.00    -0.01   0.02  -0.01    -0.01   0.01  -0.00
  14   6     0.36  -0.03   0.02     0.00  -0.01   0.01     0.00  -0.01   0.00
  15   6    -0.02  -0.06   0.03     0.02   0.01  -0.00     0.01   0.01  -0.00
  16   6    -0.09   0.49  -0.25    -0.00   0.05  -0.03    -0.00   0.03  -0.02
  17   6     0.01  -0.02   0.00     0.01   0.33  -0.09     0.03   0.16  -0.05
  18   6     0.02   0.04  -0.01    -0.06  -0.30   0.08    -0.04  -0.22   0.05
  19  17     0.00  -0.00   0.00    -0.00  -0.00   0.00     0.00   0.00  -0.00
  20   1    -0.00   0.00  -0.00     0.13  -0.01  -0.02    -0.21   0.02   0.05
  21   1     0.00   0.00  -0.00     0.13  -0.02  -0.02    -0.22   0.05   0.05
  22   1    -0.00   0.00  -0.00    -0.02  -0.01  -0.02     0.13   0.02   0.05
  23   1     0.00  -0.00  -0.00    -0.09   0.00  -0.02     0.12   0.00   0.04
  24   1     0.00   0.00   0.00    -0.07  -0.00   0.00     0.10   0.01  -0.02
  25   1     0.00  -0.00  -0.00     0.01  -0.01  -0.02    -0.17   0.03   0.06
  26   1     0.00  -0.00   0.00    -0.01   0.00  -0.04    -0.09   0.02   0.08
  27   1    -0.01  -0.01   0.00     0.17   0.15  -0.03     0.11   0.10  -0.01
  28   1    -0.03   0.03  -0.02     0.13  -0.20   0.05     0.09  -0.12   0.04
  29   1     0.03   0.00   0.02    -0.06   0.00  -0.00    -0.03   0.00   0.00
  30   1    -0.13   0.01   0.01     0.01   0.00   0.00     0.01   0.00   0.00
  31   1     0.06  -0.22   0.11     0.01  -0.02   0.01     0.01  -0.01   0.01
  32   1     0.10   0.01  -0.00     0.00  -0.00   0.00     0.00  -0.00   0.00
  33   1     0.08  -0.07   0.04     0.03  -0.02   0.01     0.02  -0.01   0.01
  34   1     0.01   0.15  -0.08     0.01   0.02  -0.01     0.01   0.01  -0.01
  35   1    -0.00  -0.01   0.00     0.16   0.15  -0.04     0.13   0.10  -0.01
  36   1     0.00   0.01  -0.00     0.11  -0.17   0.05     0.08  -0.12   0.05
                     52                     53                     54
                        a                      a                      a 
 Frequencies --  1061.1984              1112.6755              1120.3415
 Red. masses --     4.3014                 8.5737                 3.8547
 Frc consts  --     0.0000                 0.0000                 0.0000
 IR Inten    --     5.5732                37.7304                 9.0382
 Raman Activ --     0.0000                 0.0000                 0.0000
 Depolar     --     0.0000                 0.0000                 0.0000
 Atom AN      X      Y      Z        X      Y      Z        X      Y      Z
   1   7    -0.07  -0.15   0.01     0.05  -0.05  -0.17     0.00   0.00  -0.00
   2   6     0.09   0.24  -0.06    -0.08   0.14   0.54    -0.00  -0.01   0.01
   3   6    -0.05  -0.34   0.09     0.10  -0.16  -0.54     0.01   0.01  -0.01
   4   6    -0.02  -0.12   0.04     0.03   0.02   0.08    -0.01  -0.01   0.00
   5   6     0.03   0.13  -0.03     0.00  -0.02  -0.01    -0.02   0.00  -0.00
   6   6     0.06   0.04  -0.01    -0.02  -0.01  -0.01     0.01   0.02  -0.00
   7   6    -0.02  -0.06   0.02     0.00   0.00   0.00     0.00  -0.02   0.00
   8   6    -0.01  -0.00   0.00     0.00   0.00   0.00    -0.00   0.02  -0.01
   9   6    -0.00  -0.00  -0.00     0.00   0.00  -0.00     0.03  -0.05   0.02
  10   6    -0.00  -0.00   0.00     0.00   0.00  -0.00    -0.10  -0.07   0.04
  11   6    -0.00   0.00  -0.00     0.00  -0.00   0.00     0.13   0.13  -0.06
  12   6    -0.00   0.01  -0.00     0.00  -0.00   0.00    -0.07   0.08  -0.04
  13   9     0.00  -0.00   0.00    -0.00   0.00  -0.00     0.03  -0.05   0.02
  14   6     0.00  -0.00  -0.00    -0.00   0.00  -0.00     0.09  -0.17   0.09
  15   6     0.00   0.00   0.00    -0.00  -0.00   0.00     0.12   0.17  -0.09
  16   6    -0.00   0.01  -0.00     0.00  -0.00   0.00    -0.24   0.13  -0.07
  17   6    -0.05   0.07  -0.02    -0.01   0.01  -0.01    -0.00   0.01  -0.00
  18   6     0.01   0.12  -0.04     0.01   0.01  -0.02     0.00   0.02  -0.00
  19  17     0.00  -0.00   0.00     0.00   0.00  -0.00     0.00   0.00  -0.00
  20   1    -0.19   0.06  -0.02    -0.11   0.01   0.08     0.00  -0.00   0.00
  21   1     0.17   0.05   0.02    -0.12   0.06   0.08    -0.01  -0.00   0.00
  22   1     0.03   0.08  -0.01     0.28   0.01   0.07     0.00  -0.00   0.00
  23   1     0.04  -0.14  -0.20    -0.13   0.08   0.22     0.00   0.00   0.01
  24   1    -0.04  -0.00   0.26    -0.15   0.08   0.22    -0.00   0.00  -0.00
  25   1     0.47   0.04  -0.01     0.01  -0.04  -0.13    -0.01  -0.00  -0.00
  26   1    -0.46   0.14  -0.01     0.01  -0.04  -0.13     0.01  -0.00  -0.00
  27   1     0.03   0.05  -0.02    -0.03  -0.01   0.02    -0.05  -0.02   0.00
  28   1     0.11  -0.06   0.02    -0.02   0.01   0.01     0.04  -0.02   0.01
  29   1     0.02   0.01   0.00    -0.01  -0.00   0.00     0.12   0.04  -0.02
  30   1     0.05   0.02   0.00    -0.01  -0.00  -0.00     0.10   0.01  -0.01
  31   1     0.00   0.00   0.00    -0.00   0.00  -0.00     0.20  -0.07   0.04
  32   1     0.00  -0.00   0.00     0.00   0.01  -0.00    -0.07  -0.64   0.33
  33   1     0.00  -0.00  -0.00    -0.00  -0.00  -0.00     0.05   0.04  -0.02
  34   1     0.01   0.00  -0.00    -0.00  -0.00   0.00    -0.37  -0.07   0.03
  35   1    -0.10  -0.02  -0.00    -0.02   0.00   0.01    -0.01   0.00  -0.00
  36   1    -0.00   0.04  -0.00    -0.02   0.03   0.01     0.02  -0.01   0.00
                     55                     56                     57
                        a                      a                      a 
 Frequencies --  1132.7119              1143.9133              1180.5286
 Red. masses --     4.1599                 4.1516                 2.0534
 Frc consts  --     0.0000                 0.0000                 0.0000
 IR Inten    --    39.0029                49.8271                 9.0244
 Raman Activ --     0.0000                 0.0000                 0.0000
 Depolar     --     0.0000                 0.0000                 0.0000
 Atom AN      X      Y      Z        X      Y      Z        X      Y      Z
   1   7    -0.01  -0.03   0.00    -0.01  -0.03   0.01     0.00   0.00  -0.00
   2   6     0.01   0.05  -0.02     0.01   0.05  -0.01     0.00  -0.00  -0.00
   3   6    -0.03  -0.06   0.02     0.00  -0.06   0.02    -0.01   0.00  -0.00
   4   6     0.03   0.08  -0.02    -0.00   0.11  -0.03     0.01  -0.01   0.00
   5   6     0.07  -0.03   0.01     0.06  -0.10   0.03    -0.00   0.03  -0.01
   6   6    -0.06  -0.06   0.01    -0.10  -0.08   0.02     0.01   0.00  -0.00
   7   6     0.06   0.09  -0.02     0.04   0.14  -0.03     0.07   0.00   0.01
   8   6     0.03   0.02  -0.01    -0.00   0.06  -0.02    -0.00   0.06  -0.02
   9   6    -0.07   0.10  -0.04     0.11  -0.10   0.04     0.05  -0.03   0.01
  10   6     0.18  -0.01  -0.00    -0.13   0.02  -0.01    -0.06  -0.04   0.02
  11   6     0.04  -0.04   0.02    -0.00   0.05  -0.03    -0.11   0.12  -0.06
  12   6     0.08  -0.23   0.12    -0.07   0.22  -0.11    -0.02   0.13  -0.07
  13   9    -0.06   0.13  -0.07     0.05  -0.11   0.06     0.04  -0.05   0.03
  14   6     0.17  -0.06   0.03    -0.14   0.04  -0.02     0.02  -0.01   0.00
  15   6     0.05   0.08  -0.04    -0.04  -0.06   0.03     0.09  -0.05   0.02
  16   6    -0.09  -0.02   0.01     0.05  -0.00   0.00    -0.05  -0.02   0.01
  17   6     0.05  -0.09   0.03     0.08  -0.11   0.03    -0.01  -0.02   0.00
  18   6    -0.08  -0.07   0.02    -0.11  -0.07   0.01    -0.00  -0.02   0.01
  19  17    -0.00  -0.00   0.00    -0.00  -0.00   0.00     0.00  -0.00   0.00
  20   1    -0.03   0.01  -0.00    -0.03   0.01  -0.01     0.00  -0.00  -0.00
  21   1     0.03   0.01   0.00     0.03   0.01   0.00    -0.00  -0.00  -0.00
  22   1     0.00   0.01  -0.00     0.00   0.02  -0.00    -0.00  -0.00  -0.00
  23   1    -0.01  -0.02  -0.03    -0.02  -0.02  -0.02     0.00  -0.00  -0.00
  24   1     0.02  -0.01   0.03     0.02  -0.01   0.03    -0.00   0.00  -0.00
  25   1     0.04   0.01   0.01     0.05   0.01   0.01    -0.01   0.00   0.00
  26   1    -0.06   0.02  -0.01    -0.04   0.01  -0.02    -0.01   0.00   0.00
  27   1     0.26   0.09  -0.01     0.34   0.11  -0.01    -0.01   0.01  -0.00
  28   1    -0.26   0.16  -0.05    -0.27   0.15  -0.04    -0.03   0.03  -0.01
  29   1    -0.17  -0.05   0.01     0.02   0.02  -0.02    -0.07  -0.01  -0.00
  30   1    -0.29  -0.05   0.01    -0.00  -0.04   0.00    -0.04  -0.02   0.01
  31   1    -0.34   0.22  -0.12     0.33  -0.20   0.11     0.01   0.01  -0.00
  32   1     0.04  -0.06   0.03    -0.05  -0.03   0.01     0.05   0.30  -0.16
  33   1    -0.10   0.11  -0.06     0.10  -0.10   0.05     0.54  -0.37   0.20
  34   1    -0.33  -0.12   0.06     0.17   0.06  -0.03    -0.50  -0.18   0.09
  35   1     0.16   0.03  -0.00     0.32   0.09  -0.01    -0.13  -0.06   0.01
  36   1    -0.21   0.12  -0.04    -0.33   0.20  -0.07     0.04  -0.03   0.01
                     58                     59                     60
                        a                      a                      a 
 Frequencies --  1189.8639              1205.5994              1208.6458
 Red. masses --     2.7391                 4.7397                 4.1872
 Frc consts  --     0.0000                 0.0000                 0.0000
 IR Inten    --    10.3222                 4.4835                25.1569
 Raman Activ --     0.0000                 0.0000                 0.0000
 Depolar     --     0.0000                 0.0000                 0.0000
 Atom AN      X      Y      Z        X      Y      Z        X      Y      Z
   1   7     0.00   0.00   0.00     0.00  -0.05   0.01    -0.06  -0.28   0.06
   2   6     0.00  -0.00  -0.00     0.00   0.06  -0.05     0.05   0.38  -0.09
   3   6     0.01   0.00   0.01    -0.14  -0.00  -0.00     0.01  -0.08   0.02
   4   6    -0.02   0.01  -0.00     0.30  -0.01   0.04    -0.03   0.09  -0.03
   5   6    -0.03  -0.12   0.03    -0.03   0.01  -0.00    -0.02  -0.04   0.01
   6   6    -0.00  -0.04   0.01     0.04  -0.14   0.04     0.01  -0.00   0.00
   7   6    -0.25  -0.02  -0.01     0.35   0.04   0.01    -0.07   0.00  -0.00
   8   6     0.06  -0.13   0.05    -0.06   0.11  -0.04     0.01  -0.02   0.01
   9   6    -0.06   0.00  -0.00    -0.00  -0.03   0.01     0.00   0.01  -0.00
  10   6     0.05  -0.01   0.01    -0.17  -0.03   0.02     0.04   0.01  -0.01
  11   6    -0.07   0.03  -0.02     0.03  -0.03   0.02    -0.00   0.01  -0.00
  12   6    -0.01  -0.05   0.03     0.06  -0.04   0.02    -0.01   0.01  -0.01
  13   9    -0.00   0.02  -0.01    -0.02   0.02  -0.01     0.00  -0.01   0.00
  14   6     0.07  -0.02   0.01    -0.00   0.00  -0.00    -0.00   0.00  -0.00
  15   6     0.03   0.01  -0.00     0.04   0.05  -0.02    -0.01  -0.01   0.01
  16   6    -0.01   0.00  -0.00    -0.04   0.03  -0.02     0.01  -0.01   0.00
  17   6     0.06   0.08  -0.02     0.05   0.06  -0.02    -0.03  -0.02   0.00
  18   6    -0.02   0.13  -0.04    -0.03  -0.04   0.01     0.02  -0.03   0.01
  19  17    -0.00  -0.00   0.00    -0.00  -0.00   0.00     0.00  -0.00   0.00
  20   1     0.00   0.00  -0.00    -0.03   0.01  -0.01    -0.21   0.05  -0.06
  21   1     0.00  -0.00  -0.00     0.05   0.01   0.01     0.26   0.08   0.06
  22   1    -0.01  -0.00  -0.00    -0.00   0.02  -0.01     0.03   0.14  -0.03
  23   1    -0.00   0.00   0.00    -0.05  -0.01  -0.02    -0.36  -0.05  -0.03
  24   1     0.00  -0.00  -0.00     0.06  -0.02   0.01     0.37  -0.10   0.07
  25   1     0.01  -0.01  -0.01    -0.17   0.03   0.07    -0.25   0.12   0.20
  26   1     0.00   0.00  -0.01    -0.08   0.03  -0.02     0.28  -0.07  -0.23
  27   1    -0.22  -0.12   0.02    -0.46  -0.19   0.03    -0.04  -0.02   0.01
  28   1     0.27  -0.21   0.07     0.04  -0.05   0.02    -0.01   0.01  -0.00
  29   1     0.29   0.04  -0.01    -0.29  -0.05   0.01     0.05   0.01  -0.00
  30   1     0.19   0.06  -0.02    -0.01  -0.01   0.01    -0.01  -0.00  -0.00
  31   1    -0.10   0.06  -0.04    -0.02   0.01  -0.00     0.01  -0.01   0.00
  32   1     0.04   0.13  -0.07    -0.01  -0.05   0.03     0.00   0.01  -0.00
  33   1     0.05  -0.03   0.02     0.06  -0.02   0.01    -0.02   0.01  -0.00
  34   1    -0.15  -0.05   0.03     0.13   0.06  -0.03    -0.03  -0.01   0.01
  35   1     0.54   0.24  -0.04    -0.13  -0.05   0.01     0.04   0.01  -0.00
  36   1    -0.25   0.21  -0.07    -0.38   0.26  -0.09     0.15  -0.11   0.03
                     61                     62                     63
                        a                      a                      a 
 Frequencies --  1222.7040              1247.4415              1252.8897
 Red. masses --     6.1523                 5.1248                 4.0433
 Frc consts  --     0.0000                 0.0000                 0.0000
 IR Inten    --    30.2837                40.7900                 1.9392
 Raman Activ --     0.0000                 0.0000                 0.0000
 Depolar     --     0.0000                 0.0000                 0.0000
 Atom AN      X      Y      Z        X      Y      Z        X      Y      Z
   1   7     0.01   0.02  -0.01    -0.01  -0.01  -0.00     0.03   0.08  -0.01
   2   6    -0.00  -0.02  -0.01     0.00  -0.00   0.02     0.01   0.05  -0.06
   3   6    -0.08  -0.01  -0.00     0.06   0.01   0.01    -0.11  -0.14   0.01
   4   6     0.15  -0.01   0.02    -0.15   0.00  -0.02     0.29   0.07   0.02
   5   6     0.07  -0.03   0.01    -0.05  -0.01   0.00     0.12  -0.00   0.01
   6   6     0.01  -0.09   0.02     0.03   0.03  -0.01    -0.06  -0.07   0.01
   7   6    -0.22   0.00  -0.01    -0.03   0.04  -0.01    -0.07  -0.14   0.03
   8   6     0.07   0.03  -0.01     0.10  -0.08   0.04    -0.09  -0.03   0.01
   9   6     0.04   0.11  -0.04    -0.08   0.16  -0.07    -0.08  -0.03   0.01
  10   6     0.35   0.14  -0.08     0.11  -0.14   0.07     0.12  -0.09   0.05
  11   6     0.06  -0.01   0.00     0.13  -0.08   0.04     0.01   0.01  -0.01
  12   6    -0.11   0.22  -0.11     0.09   0.29  -0.15     0.00   0.12  -0.06
  13   9     0.04  -0.09   0.05     0.01  -0.09   0.05     0.01  -0.04   0.02
  14   6    -0.12   0.05  -0.03    -0.07   0.19  -0.10    -0.01   0.05  -0.03
  15   6    -0.12  -0.17   0.08    -0.13  -0.07   0.03    -0.06  -0.03   0.02
  16   6     0.10  -0.11   0.06    -0.09  -0.06   0.03     0.01  -0.01   0.01
  17   6    -0.06   0.07  -0.02     0.03  -0.05   0.01    -0.09   0.09  -0.03
  18   6     0.07   0.06  -0.01    -0.03   0.01  -0.00     0.06   0.02  -0.00
  19  17    -0.00  -0.00   0.00     0.00   0.00  -0.00     0.00   0.00   0.00
  20   1     0.01  -0.00   0.00    -0.01  -0.00  -0.00     0.04  -0.00   0.01
  21   1    -0.02  -0.01  -0.00     0.01   0.00   0.00    -0.05  -0.02  -0.02
  22   1    -0.00  -0.01   0.00     0.01   0.00   0.00    -0.02  -0.03  -0.00
  23   1     0.04  -0.01  -0.02    -0.02   0.01   0.02     0.22  -0.07  -0.17
  24   1    -0.04   0.01   0.01     0.04  -0.01  -0.02    -0.28   0.08   0.19
  25   1    -0.04   0.01   0.02     0.08  -0.02  -0.04    -0.24   0.11   0.20
  26   1    -0.07   0.02   0.01     0.06  -0.02  -0.00    -0.01   0.00  -0.12
  27   1    -0.19  -0.10   0.02     0.05   0.03  -0.00    -0.13  -0.07   0.01
  28   1     0.10  -0.10   0.02     0.14  -0.09   0.03    -0.36   0.23  -0.07
  29   1    -0.18  -0.05   0.01    -0.22  -0.09   0.03     0.28   0.08  -0.02
  30   1    -0.50  -0.12   0.03    -0.02   0.04  -0.01     0.12   0.03  -0.02
  31   1     0.22  -0.13   0.08    -0.34   0.23  -0.13    -0.17   0.12  -0.07
  32   1    -0.05  -0.07   0.03    -0.09  -0.30   0.16    -0.02  -0.06   0.03
  33   1    -0.16   0.03  -0.02     0.27  -0.24   0.13     0.06  -0.06   0.03
  34   1    -0.18  -0.11   0.06     0.24   0.08  -0.04     0.07   0.02  -0.01
  35   1     0.05   0.05  -0.01     0.08   0.01  -0.00     0.04   0.05  -0.01
  36   1     0.03   0.01  -0.00    -0.00  -0.00   0.00     0.12  -0.06   0.02
                     64                     65                     66
                        a                      a                      a 
 Frequencies --  1256.2829              1277.9283              1296.5696
 Red. masses --     4.4877                 4.8375                 5.8795
 Frc consts  --     0.0000                 0.0000                 0.0000
 IR Inten    --     7.6230                 5.8368                12.1842
 Raman Activ --     0.0000                 0.0000                 0.0000
 Depolar     --     0.0000                 0.0000                 0.0000
 Atom AN      X      Y      Z        X      Y      Z        X      Y      Z
   1   7     0.00   0.10  -0.02    -0.02  -0.02  -0.01     0.08   0.01   0.10
   2   6     0.03   0.08  -0.01    -0.02  -0.04   0.06     0.10  -0.07  -0.18
   3   6     0.09  -0.19   0.08     0.04   0.03   0.03     0.16  -0.04  -0.12
   4   6    -0.29   0.13  -0.07    -0.17   0.12  -0.06     0.04   0.07   0.04
   5   6    -0.11  -0.01  -0.00     0.03   0.15  -0.04     0.05  -0.06   0.02
   6   6     0.12   0.01   0.01     0.17  -0.03   0.02    -0.03  -0.02  -0.00
   7   6     0.11   0.08  -0.01     0.20  -0.26   0.08    -0.23   0.01  -0.01
   8   6     0.06   0.06  -0.02    -0.13   0.18  -0.07     0.21   0.04  -0.01
   9   6     0.08   0.00   0.00     0.04  -0.12   0.05     0.22  -0.00   0.01
  10   6    -0.15   0.04  -0.03    -0.03  -0.01   0.00    -0.27   0.02  -0.02
  11   6    -0.00  -0.02   0.01     0.01  -0.01   0.01     0.00  -0.03   0.02
  12   6     0.02  -0.10   0.05     0.02   0.00  -0.00     0.04  -0.14   0.08
  13   9    -0.01   0.04  -0.02    -0.00   0.00  -0.00    -0.02   0.05  -0.02
  14   6     0.02  -0.03   0.01    -0.00   0.02  -0.01     0.06   0.03  -0.01
  15   6     0.05   0.04  -0.02     0.00   0.00  -0.00     0.08   0.09  -0.05
  16   6    -0.03   0.01  -0.01    -0.01  -0.01   0.00    -0.15  -0.02   0.01
  17   6     0.03  -0.14   0.04     0.01  -0.06   0.02    -0.11  -0.04   0.00
  18   6    -0.10  -0.04   0.01    -0.18   0.06  -0.02     0.03   0.08  -0.02
  19  17     0.00   0.00   0.00     0.00  -0.00  -0.00    -0.00  -0.00   0.00
  20   1     0.05  -0.00   0.02    -0.01  -0.00   0.00    -0.03   0.04  -0.02
  21   1    -0.07  -0.02  -0.02     0.01   0.01   0.01     0.00  -0.04  -0.01
  22   1    -0.00  -0.03   0.01     0.02   0.00   0.01    -0.13  -0.01  -0.04
  23   1     0.32  -0.09  -0.22    -0.05   0.03   0.07    -0.31   0.08   0.16
  24   1    -0.32   0.09   0.25     0.14  -0.04  -0.10    -0.22   0.05   0.09
  25   1    -0.03   0.09   0.16     0.26  -0.07  -0.15    -0.20   0.08   0.13
  26   1     0.29  -0.08  -0.25    -0.03   0.02   0.05    -0.32   0.08   0.21
  27   1    -0.07  -0.01   0.00    -0.37  -0.11   0.01     0.00  -0.02   0.01
  28   1     0.18  -0.10   0.03    -0.22   0.19  -0.06    -0.01  -0.01   0.01
  29   1    -0.23  -0.06   0.01     0.05   0.07  -0.02    -0.10  -0.04   0.01
  30   1    -0.11  -0.04   0.02    -0.21  -0.09   0.03    -0.15  -0.06   0.02
  31   1     0.08  -0.06   0.04    -0.04   0.02  -0.01    -0.01  -0.01   0.00
  32   1     0.01   0.03  -0.01    -0.00  -0.02   0.01     0.02  -0.02   0.01
  33   1     0.00   0.02  -0.01     0.02  -0.02   0.01     0.13  -0.05   0.03
  34   1     0.01   0.01  -0.01     0.06   0.02  -0.01     0.14   0.06  -0.03
  35   1     0.15   0.02   0.00     0.35   0.12  -0.02     0.13   0.06  -0.01
  36   1     0.05  -0.08   0.02     0.19  -0.16   0.05     0.17  -0.09   0.04
                     67                     68                     69
                        a                      a                      a 
 Frequencies --  1301.7275              1319.3148              1342.2453
 Red. masses --     7.8880                 4.3111                10.8597
[...]
   3   6     0.02  -0.00   0.00     0.01   0.23  -0.09     0.01  -0.13   0.07
   4   6    -0.11   0.05  -0.02     0.00   0.01  -0.00     0.00  -0.00   0.00
   5   6     0.15   0.01   0.00     0.00  -0.00   0.00    -0.00   0.00  -0.00
   6   6    -0.15   0.09  -0.03    -0.00   0.00  -0.00     0.00  -0.00   0.00
   7   6     0.00  -0.09   0.03    -0.00  -0.00   0.00     0.00   0.00  -0.00
   8   6     0.47   0.35  -0.12    -0.00  -0.00  -0.00     0.00   0.00  -0.00
   9   6    -0.47  -0.34   0.12     0.00   0.00   0.00    -0.00  -0.00   0.00
  10   6     0.01   0.09  -0.04     0.00  -0.00   0.00    -0.00   0.00  -0.00
  11   6     0.11  -0.08   0.04    -0.00  -0.00   0.00    -0.00  -0.00   0.00
  12   6    -0.10   0.01  -0.01    -0.00  -0.00  -0.00     0.00   0.00  -0.00
  13   9     0.00  -0.00   0.00    -0.00  -0.00  -0.00     0.00  -0.00  -0.00
  14   6     0.05  -0.05   0.03     0.00   0.00   0.00    -0.00  -0.00   0.00
  15   6    -0.15   0.08  -0.04    -0.00  -0.00   0.00    -0.00  -0.00   0.00
  16   6     0.14  -0.01   0.01     0.00  -0.00   0.00     0.00  -0.00   0.00
  17   6    -0.18   0.01  -0.01     0.00   0.00  -0.00    -0.00  -0.00   0.00
  18   6     0.19  -0.10   0.03    -0.00  -0.00  -0.00     0.00   0.00  -0.00
  19  17    -0.00  -0.00  -0.00    -0.00   0.00  -0.00    -0.00  -0.00  -0.00
  20   1     0.00  -0.00  -0.00    -0.01  -0.01  -0.00    -0.01  -0.02  -0.01
  21   1     0.00   0.00  -0.00     0.00  -0.00   0.00     0.00  -0.01   0.01
  22   1    -0.00   0.00  -0.00     0.00   0.00  -0.00    -0.00   0.00   0.00
  23   1    -0.00  -0.00   0.00    -0.08   0.21  -0.24    -0.12   0.31  -0.35
  24   1    -0.00   0.00   0.00     0.14   0.30   0.11     0.27   0.57   0.19
  25   1     0.00  -0.00  -0.00     0.15  -0.46   0.50    -0.10   0.31  -0.32
  26   1    -0.00   0.00  -0.00    -0.19  -0.38  -0.15     0.08   0.14   0.06
  27   1    -0.02  -0.02   0.00    -0.00   0.00  -0.00     0.00  -0.00   0.00
  28   1     0.01  -0.01   0.00    -0.00  -0.00   0.00    -0.00   0.00   0.00
  29   1    -0.13   0.02  -0.02     0.00  -0.00  -0.00    -0.00  -0.00  -0.00
  30   1     0.13  -0.03   0.01    -0.00   0.00   0.00    -0.00   0.00  -0.00
  31   1    -0.01   0.00   0.00     0.00   0.00  -0.00     0.00   0.00  -0.00
  32   1     0.02   0.00  -0.00    -0.00  -0.00   0.00    -0.00  -0.00   0.00
  33   1     0.02  -0.02   0.01     0.00   0.00   0.00     0.00   0.00   0.00
  34   1    -0.02  -0.02   0.01    -0.00   0.00   0.00    -0.00   0.00  -0.00
  35   1     0.02   0.03  -0.01     0.00  -0.00   0.00    -0.00   0.00  -0.00
  36   1    -0.03   0.03  -0.01     0.00   0.00  -0.00    -0.00  -0.00   0.00
                     88                     89                     90
                        a                      a                      a 
 Frequencies --  2976.1097              2985.0798              3103.1233
 Red. masses --     1.5243                 1.5383                 1.7757
 Frc consts  --     0.0000                 0.0000                 0.0000
 IR Inten    --    12.6694                48.5562                28.7378
 Raman Activ --     0.0000                 0.0000                 0.0000
 Depolar     --     0.0000                 0.0000                 0.0000
 Atom AN      X      Y      Z        X      Y      Z        X      Y      Z
   1   7    -0.00  -0.00  -0.00    -0.00   0.00   0.01     0.00   0.00   0.00
   2   6    -0.06   0.02  -0.11    -0.09  -0.02  -0.15     0.00  -0.00   0.00
   3   6     0.10   0.09   0.12    -0.07  -0.05  -0.10    -0.00  -0.00  -0.00
   4   6     0.01   0.00   0.00    -0.00  -0.00  -0.00    -0.01  -0.00   0.00
   5   6    -0.00   0.00  -0.00     0.00   0.00  -0.00     0.01  -0.02   0.01
   6   6     0.00   0.00  -0.00    -0.00  -0.00   0.00     0.01   0.01  -0.00
   7   6    -0.00  -0.00   0.00     0.00   0.00  -0.00    -0.01   0.00  -0.00
   8   6     0.00  -0.00   0.00    -0.00   0.00  -0.00     0.00  -0.01   0.00
   9   6    -0.00   0.00  -0.00    -0.00  -0.00  -0.00     0.00  -0.00   0.00
  10   6    -0.00   0.00  -0.00     0.00  -0.00   0.00    -0.00  -0.00   0.00
  11   6     0.00   0.00  -0.00     0.00   0.00  -0.00     0.00   0.00  -0.00
  12   6    -0.00   0.00  -0.00     0.00  -0.00   0.00    -0.00   0.00  -0.00
  13   9     0.00  -0.00  -0.00    -0.00   0.00   0.00     0.00  -0.00   0.00
  14   6    -0.00   0.00  -0.00    -0.00  -0.00  -0.00     0.00  -0.00   0.00
  15   6    -0.00  -0.00   0.00    -0.00  -0.00   0.00    -0.00  -0.00   0.00
  16   6     0.00  -0.00   0.00    -0.00  -0.00   0.00    -0.00   0.00  -0.00
  17   6     0.00  -0.00  -0.00    -0.00   0.00  -0.00    -0.08   0.18  -0.05
  18   6    -0.00  -0.00   0.00     0.00   0.00   0.00    -0.10  -0.13   0.03
  19  17     0.00   0.00   0.00    -0.00  -0.00  -0.00     0.00  -0.00   0.00
  20   1    -0.01  -0.01  -0.00    -0.01  -0.02  -0.01    -0.00  -0.00  -0.00
  21   1    -0.00   0.01  -0.01    -0.00   0.01  -0.01     0.00  -0.00   0.00
  22   1    -0.00   0.00   0.01     0.00  -0.00  -0.01     0.00  -0.00  -0.00
  23   1     0.11  -0.34   0.34     0.13  -0.41   0.40     0.00   0.00  -0.00
  24   1     0.11   0.26   0.07     0.21   0.47   0.13    -0.00  -0.00  -0.00
  25   1    -0.07   0.27  -0.25     0.06  -0.23   0.22    -0.00   0.00  -0.00
  26   1    -0.28  -0.61  -0.19     0.18   0.41   0.12     0.00   0.00   0.00
  27   1     0.00  -0.00   0.00    -0.00   0.00  -0.00    -0.04   0.08  -0.02
  28   1    -0.00   0.00   0.00     0.00   0.00  -0.00    -0.03  -0.04   0.01
  29   1    -0.00   0.00  -0.00     0.00  -0.00   0.00    -0.01   0.03  -0.01
  30   1     0.00  -0.00   0.00     0.00   0.00  -0.00    -0.00   0.01  -0.00
  31   1    -0.00  -0.00  -0.00    -0.00  -0.00   0.00    -0.00  -0.00   0.00
  32   1     0.00  -0.00   0.00     0.00  -0.00  -0.00    -0.00   0.00  -0.00
  33   1     0.00   0.00  -0.00     0.00   0.00  -0.00     0.00   0.00  -0.00
  34   1    -0.00   0.00   0.00    -0.00   0.00  -0.00     0.00  -0.00   0.00
  35   1    -0.00   0.00  -0.00     0.00  -0.00   0.00     0.28  -0.66   0.19
  36   1     0.00   0.00  -0.00    -0.00  -0.00   0.00     0.37   0.47  -0.11
                     91                     92                     93
                        a                      a                      a 
 Frequencies --  3104.8460              3109.7767              3116.3027
 Red. masses --     1.7920                 1.8027                 1.8739
 Frc consts  --     0.0000                 0.0000                 0.0000
 IR Inten    --    20.5033                67.4489               152.1113
 Raman Activ --     0.0000                 0.0000                 0.0000
 Depolar     --     0.0000                 0.0000                 0.0000
 Atom AN      X      Y      Z        X      Y      Z        X      Y      Z
   1   7    -0.00  -0.00   0.00    -0.00  -0.00   0.00     0.00  -0.00  -0.00
   2   6     0.00   0.00   0.00     0.00   0.00   0.00     0.00   0.00  -0.00
   3   6    -0.00  -0.00   0.00    -0.00   0.00  -0.00     0.00   0.00   0.00
   4   6     0.00   0.00  -0.00    -0.01   0.00  -0.00     0.01  -0.00   0.00
   5   6    -0.00   0.00  -0.00    -0.10   0.22  -0.06     0.01  -0.03   0.01
   6   6     0.00   0.00  -0.00    -0.04  -0.06   0.01     0.03   0.03  -0.01
   7   6     0.00  -0.00   0.00    -0.00  -0.00   0.00    -0.00  -0.00  -0.00
   8   6     0.00  -0.00   0.00    -0.00  -0.00   0.00     0.01  -0.02   0.01
   9   6     0.00  -0.00   0.00    -0.00   0.01  -0.00     0.00  -0.01   0.00
  10   6    -0.00   0.00  -0.00     0.00   0.00  -0.00    -0.00  -0.00   0.00
  11   6     0.00   0.00  -0.00    -0.00  -0.00   0.00     0.00   0.00  -0.00
  12   6     0.00   0.00  -0.00     0.00  -0.00   0.00    -0.00   0.00  -0.00
  13   9    -0.00  -0.00   0.00    -0.00   0.00  -0.00     0.00  -0.00   0.00
  14   6     0.03  -0.00   0.00     0.00   0.00   0.00    -0.00  -0.00   0.00
  15   6    -0.15  -0.18   0.09    -0.00  -0.00   0.00     0.00   0.00  -0.00
  16   6    -0.03   0.07  -0.04     0.00  -0.00   0.00    -0.00   0.01  -0.00
  17   6     0.00  -0.00   0.00    -0.02   0.05  -0.01    -0.07   0.15  -0.04
  18   6     0.00   0.00  -0.00     0.01   0.01  -0.00     0.13   0.17  -0.04
  19  17    -0.00  -0.00  -0.00    -0.00   0.00  -0.00    -0.00   0.00  -0.00
  20   1     0.00   0.00   0.00     0.00   0.00   0.00     0.00   0.00   0.00
  21   1    -0.00   0.00  -0.00    -0.00   0.00  -0.00    -0.00   0.00  -0.00
  22   1     0.00  -0.00  -0.00     0.00  -0.00  -0.00    -0.00   0.00   0.00
  23   1     0.00  -0.00   0.00    -0.00   0.00  -0.00    -0.00  -0.00   0.00
  24   1    -0.00  -0.00  -0.00    -0.00  -0.00  -0.00     0.00  -0.00  -0.00
  25   1    -0.00   0.00  -0.00     0.00  -0.00   0.00    -0.00   0.00  -0.00
  26   1     0.00   0.00   0.00    -0.00  -0.00  -0.00    -0.00  -0.01  -0.00
  27   1     0.00  -0.00   0.00     0.35  -0.80   0.22    -0.05   0.11  -0.03
  28   1    -0.00  -0.00   0.00     0.17   0.22  -0.05    -0.10  -0.13   0.03
  29   1    -0.00   0.01  -0.00    -0.00   0.00  -0.00    -0.02   0.06  -0.02
  30   1    -0.00   0.01  -0.00     0.01  -0.04   0.02    -0.01   0.02  -0.01
  31   1    -0.00  -0.00   0.00     0.00   0.00  -0.00    -0.00  -0.00   0.00
  32   1    -0.14   0.02  -0.01    -0.00   0.00  -0.00     0.00  -0.00   0.00
  33   1     0.55   0.62  -0.32     0.00   0.00  -0.00    -0.01  -0.01   0.00
  34   1     0.13  -0.28   0.15    -0.00   0.01  -0.00     0.01  -0.02   0.01
  35   1    -0.00   0.00  -0.00     0.07  -0.17   0.05     0.22  -0.51   0.15
  36   1    -0.00  -0.00   0.00    -0.04  -0.05   0.01    -0.45  -0.57   0.14
                     94                     95                     96
                        a                      a                      a 
 Frequencies --  3120.8033              3126.8906              3130.8086
 Red. masses --     1.8591                 1.8107                 1.8315
 Frc consts  --     0.0000                 0.0000                 0.0000
 IR Inten    --    44.9537                22.1651                 7.3471
 Raman Activ --     0.0000                 0.0000                 0.0000
 Depolar     --     0.0000                 0.0000                 0.0000
 Atom AN      X      Y      Z        X      Y      Z        X      Y      Z
   1   7     0.00   0.00   0.00     0.00   0.00   0.00    -0.00  -0.00  -0.00
   2   6     0.00   0.00  -0.00     0.00  -0.00   0.00    -0.00   0.00   0.00
   3   6    -0.00  -0.00   0.00    -0.00  -0.00   0.00     0.00   0.00  -0.00
   4   6     0.00  -0.00   0.00     0.00   0.00  -0.00    -0.00  -0.00  -0.00
   5   6     0.00  -0.01   0.00     0.02  -0.05   0.01    -0.03   0.07  -0.02
   6   6    -0.00  -0.01   0.00    -0.09  -0.11   0.02     0.12   0.16  -0.03
   7   6    -0.00  -0.00   0.00    -0.01  -0.01   0.00     0.01  -0.01   0.00
   8   6     0.00  -0.01   0.00     0.04  -0.15   0.06     0.04  -0.14   0.05
   9   6    -0.01   0.03  -0.01    -0.03   0.13  -0.05    -0.00   0.02  -0.01
  10   6     0.01  -0.00   0.00     0.00   0.00  -0.00     0.00   0.00  -0.00
  11   6    -0.00  -0.00   0.00     0.01   0.01  -0.01     0.01   0.01  -0.01
  12   6     0.00  -0.00   0.00    -0.00   0.00  -0.00    -0.00   0.00  -0.00
  13   9    -0.00  -0.00   0.00    -0.00   0.00  -0.00    -0.00   0.00  -0.00
  14   6     0.04  -0.00   0.00    -0.01   0.00  -0.00     0.00  -0.00   0.00
  15   6    -0.06  -0.07   0.03     0.01   0.01  -0.00     0.00   0.00  -0.00
  16   6     0.10  -0.21   0.11    -0.01   0.02  -0.01    -0.00  -0.00   0.00
  17   6    -0.00   0.01  -0.00    -0.00   0.00  -0.00     0.01  -0.03   0.01
  18   6     0.00   0.00  -0.00     0.00   0.01  -0.00    -0.01  -0.02   0.00
  19  17    -0.00  -0.00  -0.00    -0.00  -0.00  -0.00     0.00   0.00   0.00
  20   1    -0.00  -0.00  -0.00    -0.00  -0.00  -0.00     0.00   0.01   0.00
  21   1     0.00   0.00  -0.00     0.00  -0.00   0.00    -0.00  -0.00   0.00
  22   1    -0.00   0.00   0.00    -0.00   0.00   0.00     0.00  -0.00  -0.00
  23   1     0.00  -0.00   0.00    -0.00   0.00  -0.00    -0.00  -0.00   0.00
  24   1    -0.00  -0.00  -0.00    -0.00   0.00   0.00     0.00   0.00  -0.00
  25   1    -0.00   0.00  -0.00    -0.00   0.00  -0.00     0.00  -0.00   0.00
  26   1    -0.00   0.00  -0.00    -0.00   0.00  -0.00     0.00   0.00   0.00
  27   1    -0.01   0.03  -0.01    -0.07   0.16  -0.05     0.09  -0.21   0.06
  28   1     0.02   0.02  -0.00     0.30   0.40  -0.09    -0.42  -0.55   0.12
  29   1    -0.01   0.03  -0.01    -0.18   0.54  -0.21    -0.17   0.51  -0.20
  30   1     0.03  -0.10   0.04     0.15  -0.45   0.19     0.03  -0.10   0.04
  31   1     0.01   0.01  -0.00    -0.03  -0.04   0.02    -0.04  -0.05   0.03
  32   1    -0.16   0.02  -0.01     0.02  -0.00   0.00    -0.01   0.00  -0.00
  33   1     0.19   0.22  -0.11    -0.02  -0.02   0.01    -0.00  -0.00   0.00
  34   1    -0.33   0.73  -0.38     0.03  -0.07   0.04    -0.00   0.00  -0.00
  35   1     0.01  -0.02   0.01     0.00  -0.01   0.00    -0.04   0.10  -0.03
  36   1    -0.01  -0.02   0.00    -0.01  -0.02   0.00     0.05   0.07  -0.02
                     97                     98                     99
                        a                      a                      a 
 Frequencies --  3137.4240              3139.0120              3160.9794
 Red. masses --     1.8528                 1.8245                 1.8159
 Frc consts  --     0.0000                 0.0000                 0.0000
 IR Inten    --    68.0048               115.7427                30.9594
 Raman Activ --     0.0000                 0.0000                 0.0000
 Depolar     --     0.0000                 0.0000                 0.0000
 Atom AN      X      Y      Z        X      Y      Z        X      Y      Z
   1   7     0.00  -0.00  -0.00     0.00   0.00   0.00    -0.00  -0.00  -0.00
   2   6    -0.00  -0.00  -0.00     0.00   0.00  -0.00    -0.00   0.00  -0.00
   3   6     0.00   0.00   0.00    -0.00  -0.00   0.00    -0.00  -0.00  -0.00
   4   6     0.00   0.00  -0.00     0.00   0.00  -0.00    -0.00   0.00  -0.00
   5   6     0.00  -0.00   0.00     0.00  -0.01   0.00    -0.00   0.00  -0.00
   6   6    -0.01  -0.02   0.00    -0.04  -0.05   0.01     0.00   0.00  -0.00
   7   6    -0.00  -0.00   0.00    -0.00  -0.00   0.00     0.00  -0.00   0.00
   8   6     0.01  -0.03   0.01     0.04  -0.11   0.04     0.01  -0.03   0.01
   9   6     0.02  -0.05   0.02     0.06  -0.19   0.08     0.00  -0.01   0.00
  10   6    -0.00  -0.00   0.00     0.00  -0.01   0.00    -0.01  -0.00   0.00
  11   6     0.01   0.01  -0.01     0.01   0.01  -0.01    -0.16  -0.19   0.10
  12   6     0.00  -0.01   0.00    -0.00   0.00  -0.00     0.00  -0.01   0.01
  13   9    -0.00   0.00  -0.00     0.00  -0.00   0.00    -0.00   0.00  -0.00
  14   6     0.26  -0.03   0.02    -0.06   0.01  -0.01     0.01   0.00  -0.00
  15   6     0.04   0.04  -0.02    -0.01  -0.01   0.01     0.00   0.00  -0.00
  16   6    -0.01   0.02  -0.01     0.01  -0.02   0.01     0.00   0.00  -0.00
  17   6     0.00  -0.00   0.00     0.00  -0.00   0.00    -0.00  -0.00   0.00
  18   6     0.00  -0.00   0.00     0.00  -0.00   0.00    -0.00  -0.00   0.00
  19  17     0.00  -0.00   0.00    -0.00  -0.00   0.00    -0.00   0.00   0.00
  20   1     0.00   0.00   0.00    -0.00  -0.00  -0.00     0.00   0.00   0.00
  21   1    -0.00  -0.00  -0.00     0.00  -0.00   0.00     0.00  -0.00   0.00
  22   1    -0.00   0.00   0.00     0.00   0.00   0.00     0.00   0.00  -0.00
  23   1     0.00  -0.00   0.00     0.00  -0.00   0.00     0.00  -0.00   0.00
  24   1     0.00   0.00   0.00    -0.00  -0.00  -0.00    -0.00   0.00   0.00
  25   1    -0.00   0.00  -0.00    -0.00   0.00  -0.00     0.00   0.00  -0.00
  26   1    -0.00  -0.00  -0.00    -0.00  -0.00  -0.00     0.00   0.00   0.00
  27   1    -0.00   0.01  -0.00    -0.01   0.03  -0.01     0.00  -0.00   0.00
  28   1     0.04   0.06  -0.01     0.14   0.19  -0.04    -0.00  -0.00   0.00
  29   1    -0.03   0.10  -0.04    -0.13   0.40  -0.15    -0.03   0.10  -0.04
  30   1    -0.06   0.17  -0.07    -0.23   0.69  -0.28    -0.01   0.02  -0.01
  31   1    -0.03  -0.04   0.02    -0.03  -0.04   0.02     0.58   0.68  -0.35
  32   1    -0.90   0.11  -0.07     0.22  -0.03   0.02    -0.04   0.00  -0.00
  33   1    -0.11  -0.12   0.06     0.04   0.04  -0.02    -0.00  -0.01   0.00
  34   1     0.03  -0.07   0.03    -0.03   0.08  -0.04     0.00  -0.01   0.01
  35   1    -0.00   0.00  -0.00    -0.01   0.02  -0.00    -0.00   0.00  -0.00
  36   1     0.00   0.00  -0.00     0.00   0.00  -0.00     0.00   0.00  -0.00
                    100                    101                    102
                        a                      a                      a 
 Frequencies --  3169.0541              3205.4866              3249.2859
 Red. masses --     2.0105                 1.8186                 1.5962
 Frc consts  --     0.0000                 0.0000                 0.0000
 IR Inten    --   532.4280               156.1913                95.5184
 Raman Activ --     0.0000                 0.0000                 0.0000
 Depolar     --     0.0000                 0.0000                 0.0000
 Atom AN      X      Y      Z        X      Y      Z        X      Y      Z
   1   7    -0.06  -0.25  -0.11     0.10   0.03  -0.23    -0.09   0.13  -0.14
   2   6    -0.01  -0.01  -0.00     0.00   0.00  -0.00    -0.01   0.00  -0.01
   3   6    -0.00  -0.00  -0.00    -0.00   0.00  -0.00     0.00  -0.00  -0.00
   4   6    -0.00  -0.00  -0.00     0.00   0.00   0.00    -0.00  -0.00  -0.00
   5   6     0.00  -0.00   0.00    -0.00   0.00  -0.00     0.00   0.00  -0.00
   6   6    -0.00  -0.00   0.00     0.00   0.00  -0.00    -0.00  -0.00   0.00
   7   6     0.00  -0.00   0.00    -0.00   0.00  -0.00     0.00  -0.00   0.00
   8   6    -0.00   0.00  -0.00     0.00   0.00   0.00    -0.00   0.00  -0.00
   9   6     0.00  -0.00   0.00    -0.00   0.00  -0.00     0.00  -0.00   0.00
  10   6    -0.00   0.00   0.00     0.00  -0.00   0.00    -0.00  -0.00   0.00
  11   6     0.00   0.00  -0.00    -0.00  -0.00  -0.00     0.00   0.00  -0.00
  12   6     0.00   0.00  -0.00    -0.00   0.00   0.00    -0.00   0.00   0.00
  13   9     0.00  -0.00   0.00     0.00  -0.00   0.00     0.00  -0.00   0.00
  14   6    -0.00  -0.00  -0.00     0.00  -0.00  -0.00     0.00   0.00  -0.00
  15   6    -0.00  -0.00   0.00     0.00   0.00  -0.00    -0.00  -0.00   0.00
  16   6     0.00  -0.00   0.00    -0.00   0.00  -0.00     0.00  -0.00   0.00
  17   6    -0.00   0.00  -0.00     0.00  -0.00   0.00    -0.00   0.00  -0.00
  18   6    -0.00  -0.00   0.00    -0.00  -0.00   0.00     0.00   0.00  -0.00
  19  17     0.00   0.00   0.00    -0.00  -0.00  -0.00     0.00   0.00   0.00
  20   1     0.36   0.80   0.25    -0.09  -0.22  -0.09     0.07   0.18   0.04
  21   1    -0.03   0.06  -0.10     0.06  -0.15   0.13     0.23  -0.65   0.64
  22   1    -0.11   0.05   0.24    -0.35   0.25   0.80     0.06  -0.03  -0.17
  23   1    -0.00  -0.00   0.00     0.00  -0.00   0.00     0.01  -0.02   0.02
  24   1     0.02   0.03   0.01    -0.00  -0.01  -0.00     0.01   0.01   0.00
  25   1    -0.00  -0.00   0.00     0.00  -0.01   0.01    -0.00  -0.00   0.00
  26   1     0.00   0.01   0.00     0.00   0.00   0.00    -0.00   0.00  -0.00
  27   1    -0.00   0.01  -0.00     0.00  -0.00   0.00    -0.00  -0.00   0.00
  28   1     0.00   0.00  -0.00    -0.00  -0.00   0.00     0.00   0.00  -0.00
  29   1     0.00  -0.00   0.00     0.00  -0.00   0.00     0.00  -0.00   0.00
  30   1    -0.00   0.00  -0.00     0.00  -0.00   0.00    -0.00   0.00  -0.00
  31   1    -0.00  -0.00   0.00     0.00   0.00  -0.00    -0.00  -0.00   0.00
  32   1     0.00  -0.00   0.00    -0.00   0.00  -0.00    -0.00   0.00   0.00
  33   1     0.00   0.00  -0.00    -0.00  -0.00   0.00     0.00   0.00  -0.00
  34   1    -0.00   0.00  -0.00     0.00  -0.00   0.00    -0.00   0.00  -0.00
  35   1     0.00  -0.00   0.00    -0.00   0.00  -0.00     0.00  -0.00   0.00
  36   1     0.00   0.00  -0.00     0.00   0.00  -0.00    -0.00  -0.00   0.00
