18
 energy: -29.319966357149 gnorm: 0.000828110676 xtb: 6.5.1 (fef0646)
N            0.99585221663162        0.33491661639574       -0.18645279133633
C            2.46532173970233        0.21781762532270       -0.19180209886961
C            3.09428927572807        1.27837660447098       -1.09032039616466
C            4.61808587536212        1.17512118998760       -1.06561317316299
C            5.26353255266479        2.14322741883727       -2.02871029507390
O            6.59581119389492        2.13194691655322       -2.06180343811905
O            4.64737572079835        2.89670607964005       -2.74542243939550
Cl          -0.13944171133839       -2.02389645636490        1.36638705442260
H            0.57251738901109       -0.45229452004559        0.37083084463061
H            0.62187864110357        0.26942098362003       -1.13636900720501
H            0.69732134181245        1.21714272625508        0.23480128649356
H            2.72663642487651       -0.78168367686481       -0.53900867733558
H            2.82271349441025        0.32094490497720        0.83243728212883
H            2.80599019644097        2.27784612822491       -0.76403083549976
H            2.75572938546289        1.15699941696741       -2.11993939726397
H            4.92739212286883        0.16422637290761       -1.34031631852090
H            4.99374866396731        1.38383250785386       -0.06176682247692
H            7.00407547660264        1.49036916126165       -1.45258077725146
