 Entering Gaussian System
 *********************************************
 Gaussian 98:
 frequency output generated by the xtb code
 *********************************************
                         Standard orientation:
 --------------------------------------------------------------------
  Center     Atomic     Atomic              Coordinates (Angstroms)
  Number     Number      Type              X           Y           Z
 --------------------------------------------------------------------
    1          7             0       -2.338288   -0.944859   -0.808120
    2          6             0       -1.066764   -0.165336   -0.774706
    3          6             0       -0.671617    0.234395    0.641212
    4          6             0        0.627668    1.046238    0.697776
    5          6             0        1.822952    0.279351    0.209593
    6          6             0        2.432580   -0.664471    1.023583
    7          6             0        3.511405   -1.396518    0.568820
    8          6             0        3.992152   -1.196852   -0.709652
    9          6             0        3.391084   -0.265460   -1.532062
   10          6             0        2.312479    0.466036   -1.075579
   11         17             0       -4.796322    1.038506    0.725615
   12          1             0       -2.249601   -1.815369   -0.266899
   13          1             0       -2.616323   -1.194089   -1.767669
   14          1             0       -3.108084   -0.397414   -0.386108
   15          1             0       -1.165131    0.732034   -1.397077
   16          1             0       -0.261708   -0.750731   -1.233998
   17          1             0       -0.566079   -0.667645    1.254563
   18          1             0       -1.493002    0.799100    1.098724
   19          1             0        0.820733    1.387899    1.721585
   20          1             0        0.517081    1.959808    0.103125
   21          1             0        2.051913   -0.823017    2.018894
   22          1             0        3.977283   -2.125719    1.212240
   23          1             0        4.834117   -1.768677   -1.065764
   24          1             0        3.762511   -0.110184   -2.532363
   25          1             0        1.838700    1.188267   -1.719289
 --------------------------------------------------------------------
     1 basis functions        1 primitive gaussians
     1 alpha electrons        1 beta electrons

 Harmonic frequencies (cm**-1), IR intensities (km*mol⁻¹),
 Raman scattering activities (A**4/amu), Raman depolarization ratios,
 reduced masses (AMU), force constants (mDyne/A) and normal coordinates:
                      1                      2                      3
                        a                      a                      a 
 Frequencies --   -36.5336               -22.0207                41.9289
 Red. masses --    24.6378                10.5985                23.1010
 Frc consts  --     0.0000                 0.0000                 0.0000
 IR Inten    --    88.8894                 4.0346                28.3618
 Raman Activ --     0.0000                 0.0000                 0.0000
 Depolar     --     0.0000                 0.0000                 0.0000
 Atom AN      X      Y      Z        X      Y      Z        X      Y      Z
   1   7     0.23  -0.31  -0.21     0.00   0.12  -0.21     0.05   0.17   0.28
   2   6     0.15  -0.18  -0.13     0.00   0.11  -0.06     0.06   0.13   0.19
   3   6     0.03  -0.10  -0.12     0.01  -0.17   0.02     0.17   0.13   0.17
   4   6    -0.01  -0.04  -0.08     0.00  -0.17   0.19     0.22   0.06   0.07
   5   6     0.03  -0.00  -0.03     0.02  -0.09   0.11     0.15   0.00   0.00
   6   6    -0.01  -0.02  -0.02     0.32   0.14   0.15     0.12  -0.06  -0.05
   7   6     0.03  -0.00   0.02     0.34   0.22   0.07     0.05  -0.12  -0.12
   8   6     0.10   0.04   0.05     0.05   0.06  -0.06     0.01  -0.12  -0.13
   9   6     0.14   0.06   0.05    -0.25  -0.17  -0.11     0.04  -0.05  -0.08
  10   6     0.11   0.04   0.01    -0.26  -0.24  -0.02     0.11   0.01  -0.01
  11  17    -0.54   0.38   0.34    -0.15   0.11  -0.04    -0.64  -0.13  -0.26
  12   1     0.07  -0.08  -0.05    -0.00   0.01  -0.09     0.01   0.05   0.09
  13   1     0.08  -0.09  -0.06     0.01   0.07  -0.07     0.01   0.03   0.08
  14   1     0.05  -0.10  -0.07    -0.00   0.01  -0.04     0.01   0.05   0.06
  15   1     0.04  -0.06  -0.05    -0.00   0.06   0.03     0.02   0.04   0.06
  16   1     0.07  -0.04  -0.02    -0.00   0.05  -0.05     0.01   0.03   0.04
  17   1     0.01  -0.02  -0.02     0.00  -0.08  -0.05     0.05   0.04   0.05
  18   1    -0.01  -0.03  -0.06     0.00  -0.08   0.04     0.07   0.05   0.06
  19   1    -0.02  -0.01  -0.02    -0.01  -0.10   0.07     0.09   0.02   0.02
  20   1    -0.01  -0.02  -0.03     0.00  -0.02   0.10     0.06   0.02   0.02
  21   1    -0.02  -0.02  -0.01     0.16   0.07   0.07     0.04  -0.02  -0.01
  22   1    -0.00  -0.01   0.01     0.17   0.12   0.03     0.01  -0.05  -0.05
  23   1     0.03   0.02   0.02     0.02   0.04  -0.04    -0.01  -0.05  -0.05
  24   1     0.06   0.03   0.02    -0.14  -0.09  -0.06     0.00  -0.01  -0.03
  25   1     0.04   0.02   0.00    -0.14  -0.12  -0.01     0.04   0.02   0.01
                      4                      5                      6
                        a                      a                      a 
 Frequencies --    44.9455                61.1665               149.5979
 Red. masses --    17.4910                10.9062                 6.7626
 Frc consts  --     0.0000                 0.0000                 0.0000
 IR Inten    --    28.3328                15.5561                 9.0653
 Raman Activ --     0.0000                 0.0000                 0.0000
 Depolar     --     0.0000                 0.0000                 0.0000
 Atom AN      X      Y      Z        X      Y      Z        X      Y      Z
   1   7    -0.00   0.27  -0.23    -0.42   0.15   0.15    -0.12   0.31  -0.10
   2   6    -0.03   0.29  -0.22    -0.30  -0.00   0.00     0.29  -0.38   0.02
   3   6     0.02   0.20  -0.20    -0.04  -0.15  -0.03    -0.11   0.22  -0.03
   4   6     0.06   0.13  -0.17    -0.02  -0.17  -0.16     0.02   0.01   0.03
   5   6     0.04   0.03  -0.06     0.01  -0.15  -0.12    -0.05  -0.09   0.02
   6   6    -0.03   0.08   0.06     0.03  -0.10  -0.08     0.00  -0.08  -0.01
   7   6    -0.05  -0.01   0.17     0.20   0.06   0.05     0.07   0.02  -0.02
   8   6     0.01  -0.17   0.17     0.36   0.19   0.13     0.07   0.09  -0.01
   9   6     0.08  -0.23   0.05     0.31   0.10   0.06    -0.03   0.02  -0.01
  10   6     0.10  -0.13  -0.06     0.13  -0.08  -0.06    -0.08  -0.07   0.01
  11  17    -0.13  -0.36   0.36    -0.09   0.09   0.02    -0.04  -0.08   0.07
  12   1     0.02   0.05  -0.09    -0.12   0.04   0.04    -0.20   0.11   0.04
  13   1    -0.02   0.10  -0.06    -0.15   0.05   0.05    -0.00   0.05  -0.03
  14   1     0.00   0.05  -0.02    -0.09   0.06   0.06     0.01   0.21  -0.11
  15   1    -0.02   0.10  -0.04    -0.09   0.02   0.03     0.30  -0.19  -0.15
  16   1    -0.01   0.10  -0.08    -0.12  -0.02  -0.05     0.05  -0.31   0.20
  17   1    -0.01   0.05  -0.07     0.01  -0.06  -0.04    -0.15   0.14   0.13
  18   1     0.01   0.06  -0.05     0.01  -0.05   0.04    -0.04   0.17  -0.16
  19   1     0.01   0.05  -0.05     0.01  -0.03  -0.06     0.01  -0.01   0.01
  20   1     0.04   0.03  -0.07    -0.01  -0.06  -0.06     0.05   0.01   0.01
  21   1    -0.02   0.06   0.02    -0.02  -0.05  -0.04     0.01  -0.04  -0.00
  22   1    -0.03   0.01   0.08     0.06   0.03   0.03     0.04   0.01  -0.01
  23   1    -0.00  -0.07   0.08     0.15   0.10   0.07     0.04   0.06   0.00
  24   1     0.04  -0.10   0.01     0.12   0.05   0.03    -0.01   0.02  -0.00
  25   1     0.05  -0.05  -0.04     0.03  -0.04  -0.03    -0.04  -0.03   0.00
                      7                      8                      9
                        a                      a                      a 
 Frequencies --   158.8200               217.3316               287.5530
 Red. masses --     9.2633                 9.4702                 8.7934
 Frc consts  --     0.0000                 0.0000                 0.0000
 IR Inten    --     8.6088                 6.3439                11.3594
 Raman Activ --     0.0000                 0.0000                 0.0000
 Depolar     --     0.0000                 0.0000                 0.0000
 Atom AN      X      Y      Z        X      Y      Z        X      Y      Z
   1   7     0.23  -0.21   0.05    -0.18  -0.16   0.13     0.11   0.14   0.34
   2   6    -0.07   0.26   0.02    -0.21  -0.03  -0.27     0.16   0.02  -0.34
   3   6    -0.21   0.42   0.01    -0.15   0.22  -0.34     0.26  -0.15  -0.34
   4   6     0.04  -0.01   0.06     0.02  -0.04   0.03     0.07   0.04   0.07
   5   6    -0.14  -0.25  -0.02     0.15   0.01   0.23    -0.01   0.01   0.07
   6   6    -0.09  -0.26  -0.07     0.29   0.03   0.16    -0.17  -0.14   0.01
   7   6     0.09  -0.02  -0.04     0.15  -0.06  -0.06    -0.10  -0.03   0.02
   8   6     0.20   0.19   0.04    -0.08  -0.15  -0.16     0.01   0.20   0.10
   9   6    -0.01   0.02  -0.01    -0.01   0.07   0.03    -0.14   0.02   0.01
  10   6    -0.18  -0.22  -0.04     0.14   0.15   0.25    -0.20  -0.07  -0.00
  11  17     0.03   0.01  -0.02     0.00   0.00   0.00    -0.02  -0.00   0.00
  12   1     0.15  -0.04   0.02    -0.01   0.00   0.10     0.04   0.14   0.26
  13   1     0.08  -0.09   0.02    -0.09  -0.13   0.07    -0.03  -0.15   0.16
  14   1     0.01  -0.12   0.01    -0.04  -0.03   0.02     0.06   0.12   0.03
  15   1    -0.11   0.06  -0.01    -0.10  -0.05  -0.13     0.01   0.00  -0.10
  16   1     0.04   0.15   0.02    -0.06  -0.02  -0.07    -0.00  -0.02  -0.15
  17   1    -0.17   0.14   0.05    -0.14   0.08  -0.05     0.13  -0.08  -0.16
  18   1    -0.03   0.21  -0.06    -0.03   0.13  -0.15     0.04  -0.13  -0.05
  19   1     0.04  -0.04   0.02    -0.08  -0.06   0.04    -0.03  -0.05   0.05
  20   1     0.09   0.02   0.04     0.09   0.02   0.04     0.04   0.04   0.06
  21   1    -0.03  -0.11  -0.03     0.13   0.00   0.06    -0.07  -0.06  -0.01
  22   1     0.06   0.01  -0.01     0.06  -0.03  -0.04    -0.03  -0.02  -0.01
  23   1     0.12   0.13   0.03    -0.08  -0.09  -0.10     0.05   0.11   0.05
  24   1     0.00   0.03   0.00    -0.03   0.04   0.00    -0.05  -0.00  -0.00
  25   1    -0.08  -0.08  -0.01     0.04   0.07   0.11    -0.09  -0.04   0.00
                     10                     11                     12
                        a                      a                      a 
 Frequencies --   325.8615               354.3906               363.3761
 Red. masses --     2.1081                 7.1719                 8.8436
 Frc consts  --     0.0000                 0.0000                 0.0000
 IR Inten    --     0.9888                 1.6348                 0.0302
 Raman Activ --     0.0000                 0.0000                 0.0000
 Depolar     --     0.0000                 0.0000                 0.0000
 Atom AN      X      Y      Z        X      Y      Z        X      Y      Z
   1   7    -0.01  -0.01   0.12     0.01  -0.01   0.11     0.00   0.00   0.01
   2   6     0.07  -0.12  -0.06     0.02  -0.02  -0.08     0.00  -0.00  -0.00
   3   6     0.08   0.04  -0.10    -0.12   0.02  -0.06    -0.01  -0.00   0.00
   4   6     0.04   0.07  -0.04     0.02  -0.22   0.42    -0.01  -0.01   0.02
   5   6     0.02  -0.00   0.07    -0.04   0.10  -0.28    -0.00   0.01  -0.02
   6   6    -0.03  -0.06   0.03    -0.04   0.21  -0.17    -0.27  -0.28  -0.16
   7   6    -0.01  -0.02  -0.01    -0.08   0.06   0.07     0.26   0.30   0.15
   8   6     0.01   0.07   0.01    -0.01  -0.10   0.08    -0.00  -0.01   0.00
   9   6    -0.06   0.02   0.00     0.15  -0.06  -0.00    -0.25  -0.30  -0.14
  10   6    -0.06  -0.02   0.04     0.09   0.07  -0.25     0.28   0.31   0.13
  11  17    -0.02   0.02  -0.04    -0.00   0.00  -0.01    -0.00   0.00  -0.00
  12   1     0.14  -0.27  -0.42     0.04  -0.02  -0.01     0.00   0.00   0.00
  13   1    -0.32   0.47   0.00    -0.07   0.04   0.04    -0.00   0.00   0.00
  14   1     0.14  -0.16   0.49     0.03  -0.01   0.10     0.00   0.00   0.00
  15   1     0.03  -0.05  -0.03     0.01  -0.02  -0.05     0.00  -0.00  -0.00
  16   1    -0.00  -0.06  -0.02     0.01  -0.03   0.00     0.00   0.00   0.00
  17   1     0.01   0.03   0.00    -0.14  -0.00  -0.01    -0.01  -0.00  -0.00
  18   1     0.01   0.02  -0.06    -0.03   0.06  -0.07    -0.00   0.00  -0.00
  19   1    -0.01   0.03  -0.01     0.05  -0.36   0.21    -0.00  -0.02   0.01
  20   1     0.03   0.01  -0.03     0.01   0.11   0.38    -0.00   0.00   0.02
  21   1    -0.01  -0.03   0.01    -0.03   0.12  -0.05    -0.17  -0.18  -0.10
  22   1    -0.00  -0.01  -0.01    -0.06   0.03   0.06     0.16   0.19   0.10
  23   1     0.01   0.04   0.00    -0.01  -0.06   0.05    -0.00  -0.01   0.00
  24   1    -0.03   0.00  -0.00     0.09  -0.04   0.01    -0.16  -0.19  -0.09
  25   1    -0.04  -0.01   0.02     0.07   0.01  -0.11     0.17   0.19   0.09
                     13                     14                     15
                        a                      a                      a 
 Frequencies --   413.9607               487.0233               552.2518
 Red. masses --     9.7504                10.0848                 9.3459
 Frc consts  --     0.0000                 0.0000                 0.0000
 IR Inten    --    10.8128                 0.9494                 0.3660
 Raman Activ --     0.0000                 0.0000                 0.0000
 Depolar     --     0.0000                 0.0000                 0.0000
 Atom AN      X      Y      Z        X      Y      Z        X      Y      Z
   1   7    -0.28  -0.21  -0.23    -0.12  -0.09  -0.10    -0.10  -0.07  -0.05
   2   6    -0.21  -0.12   0.07    -0.07  -0.04   0.05    -0.02  -0.06  -0.02
   3   6     0.19   0.10  -0.02     0.27   0.09  -0.03     0.19   0.08  -0.05
   4   6     0.23   0.22   0.20     0.40  -0.12  -0.07    -0.02   0.41   0.17
   5   6     0.26   0.31   0.13     0.04  -0.34  -0.18    -0.36  -0.08  -0.00
   6   6    -0.04  -0.05  -0.05    -0.07  -0.07   0.18    -0.09  -0.06  -0.17
   7   6    -0.11  -0.13  -0.06    -0.01   0.08   0.23     0.16   0.18  -0.06
   8   6     0.19   0.18   0.10    -0.41   0.08   0.07     0.04  -0.32  -0.18
   9   6    -0.10  -0.15  -0.06    -0.04   0.24  -0.04     0.15   0.06   0.20
  10   6    -0.03  -0.04  -0.04    -0.09   0.11  -0.13    -0.09  -0.19   0.10
  11  17     0.01   0.00   0.00     0.00  -0.00   0.00     0.00   0.00  -0.00
  12   1    -0.13  -0.07  -0.07    -0.06  -0.04  -0.04    -0.05  -0.03  -0.03
  13   1     0.03  -0.04  -0.10     0.03  -0.01  -0.05    -0.00   0.00  -0.02
  14   1    -0.12  -0.06  -0.13    -0.06  -0.03  -0.06    -0.03  -0.02  -0.02
  15   1    -0.07  -0.04   0.01    -0.04  -0.02   0.01    -0.01  -0.03  -0.02
  16   1    -0.07  -0.04   0.01    -0.04  -0.02  -0.01    -0.03  -0.03  -0.02
  17   1     0.09   0.04   0.00     0.07   0.04   0.01     0.23   0.00  -0.07
  18   1     0.07   0.02   0.03     0.12   0.07   0.02    -0.01  -0.13   0.06
  19   1     0.02  -0.03   0.10     0.15  -0.09  -0.01     0.01   0.02   0.08
  20   1     0.08   0.12   0.14     0.17  -0.00   0.02     0.05   0.16   0.11
  21   1    -0.07  -0.07  -0.05    -0.03   0.09   0.06     0.09   0.02   0.00
  22   1    -0.09  -0.10  -0.04     0.10   0.07   0.05     0.10   0.17   0.07
  23   1     0.10   0.10   0.05    -0.12   0.02   0.01     0.02  -0.07  -0.05
  24   1    -0.09  -0.11  -0.05     0.09   0.09   0.03     0.09   0.17   0.10
  25   1    -0.05  -0.07  -0.04    -0.03   0.10   0.05     0.08   0.01   0.03
                     16                     17                     18
                        a                      a                      a 
 Frequencies --   591.4616               666.1594               746.6399
 Red. masses --    11.1218                 9.0351                 4.3350
 Frc consts  --     0.0000                 0.0000                 0.0000
 IR Inten    --     0.0086                 3.9329                22.3386
 Raman Activ --     0.0000                 0.0000                 0.0000
 Depolar     --     0.0000                 0.0000                 0.0000
 Atom AN      X      Y      Z        X      Y      Z        X      Y      Z
   1   7     0.00   0.00  -0.00     0.02   0.01   0.00     0.00   0.01  -0.00
   2   6     0.00   0.00  -0.00    -0.00   0.01   0.00     0.01  -0.01  -0.02
   3   6     0.00   0.01  -0.00    -0.05  -0.04   0.01    -0.06  -0.08   0.03
   4   6    -0.01   0.02  -0.06    -0.01  -0.06   0.00    -0.01  -0.02   0.05
   5   6    -0.01   0.07  -0.14     0.32   0.31   0.14     0.26   0.25   0.11
   6   6     0.25  -0.04  -0.36    -0.17  -0.21  -0.08    -0.10  -0.16  -0.06
   7   6     0.29  -0.35   0.18     0.23   0.24   0.15    -0.04  -0.10   0.01
   8   6     0.01  -0.08   0.16    -0.20  -0.17  -0.08    -0.16  -0.11  -0.04
   9   6    -0.26   0.03   0.41     0.24   0.26   0.09    -0.03  -0.06  -0.10
  10   6    -0.27   0.31  -0.14    -0.17  -0.19  -0.14    -0.10  -0.13  -0.13
  11  17    -0.00  -0.00   0.00    -0.00  -0.00   0.00    -0.00  -0.00   0.00
  12   1     0.00   0.00  -0.00     0.01   0.01   0.01     0.01   0.01   0.01
  13   1     0.00   0.00  -0.00    -0.00  -0.00   0.00    -0.02  -0.01   0.01
  14   1     0.00   0.00   0.00     0.00   0.00   0.00     0.01   0.01   0.01
  15   1    -0.00   0.00  -0.00    -0.00   0.01   0.01    -0.02   0.03   0.04
  16   1    -0.00  -0.00  -0.00     0.00   0.01  -0.00    -0.00   0.03  -0.05
  17   1     0.01   0.01   0.00    -0.09   0.00   0.03    -0.13   0.00   0.07
  18   1     0.00   0.00  -0.00     0.01   0.05  -0.03    -0.00   0.07  -0.08
  19   1    -0.00   0.05  -0.03    -0.04   0.03  -0.01    -0.06   0.09  -0.01
  20   1    -0.01  -0.02  -0.05    -0.04  -0.04  -0.03    -0.07  -0.06  -0.05
  21   1     0.02   0.03  -0.11    -0.19  -0.20  -0.10     0.17   0.20   0.10
  22   1     0.04  -0.09   0.09    -0.03  -0.04  -0.02     0.25   0.25   0.13
  23   1    -0.01   0.05  -0.10    -0.17  -0.18  -0.08     0.26   0.31   0.16
  24   1    -0.03  -0.04   0.12    -0.02  -0.04  -0.02     0.26   0.25   0.11
  25   1    -0.04   0.07  -0.08    -0.18  -0.20  -0.11     0.18   0.21   0.08
                     19                     20                     21
                        a                      a                      a 
 Frequencies --   776.7730               822.9928               859.0506
 Red. masses --     7.0079                 5.4147                 5.6566
 Frc consts  --     0.0000                 0.0000                 0.0000
 IR Inten    --    16.6569                23.1014                 5.6446
 Raman Activ --     0.0000                 0.0000                 0.0000
 Depolar     --     0.0000                 0.0000                 0.0000
 Atom AN      X      Y      Z        X      Y      Z        X      Y      Z
   1   7    -0.01  -0.00   0.00    -0.02  -0.04  -0.01     0.19   0.07   0.14
   2   6     0.05  -0.08   0.02     0.14  -0.17  -0.06    -0.04  -0.11   0.29
   3   6     0.24  -0.09  -0.03     0.00  -0.08   0.05    -0.02   0.06  -0.25
   4   6     0.20  -0.24  -0.06    -0.12   0.29   0.19    -0.19  -0.05  -0.35
   5   6    -0.08   0.04   0.02    -0.11  -0.11  -0.05     0.06   0.08   0.03
   6   6    -0.11   0.16  -0.11     0.09  -0.06   0.04     0.01  -0.03   0.04
   7   6    -0.15   0.23  -0.19     0.12  -0.15   0.14     0.02  -0.04   0.01
   8   6     0.20  -0.13  -0.08    -0.09   0.12   0.08    -0.04  -0.03  -0.03
   9   6    -0.11  -0.05   0.29     0.10   0.03  -0.22    -0.02  -0.00   0.01
  10   6    -0.09  -0.00   0.17     0.09   0.01  -0.10     0.00  -0.02   0.04
  11  17    -0.00  -0.00   0.00    -0.00  -0.00   0.00    -0.00  -0.00   0.00
  12   1    -0.10  -0.01  -0.00    -0.22  -0.01   0.03    -0.25  -0.08  -0.07
  13   1     0.02   0.03  -0.01    -0.08   0.04   0.01     0.25   0.22  -0.07
  14   1     0.01   0.05  -0.03     0.11   0.16  -0.02     0.04   0.10  -0.09
  15   1    -0.14   0.10   0.20    -0.24   0.12   0.26    -0.17   0.00   0.15
  16   1    -0.03   0.12  -0.24     0.03   0.21  -0.35     0.04   0.11  -0.01
  17   1    -0.22   0.09   0.21    -0.08   0.10   0.20     0.15   0.06  -0.04
  18   1     0.13   0.25  -0.24    -0.11   0.03  -0.23    -0.01  -0.04  -0.01
  19   1     0.05   0.00  -0.04    -0.02   0.14   0.03    -0.16  -0.39   0.05
  20   1     0.01  -0.11  -0.08    -0.06   0.04  -0.00     0.08   0.20   0.21
  21   1    -0.01   0.01  -0.03    -0.01  -0.03   0.00     0.01  -0.03   0.01
  22   1    -0.12   0.08   0.02     0.03  -0.10  -0.03     0.05   0.02   0.00
  23   1     0.04  -0.04  -0.02    -0.10  -0.05  -0.02     0.06   0.08   0.02
  24   1    -0.10   0.05   0.07     0.04  -0.08  -0.07     0.01   0.04   0.02
  25   1     0.01  -0.01   0.02     0.00  -0.00  -0.02    -0.03  -0.02   0.02
                     22                     23                     24
                        a                      a                      a 
 Frequencies --   873.9049               894.9769               918.5852
 Red. masses --     3.3089                 3.7127                 3.8433
 Frc consts  --     0.0000                 0.0000                 0.0000
 IR Inten    --     0.1256                 1.0743                21.5551
 Raman Activ --     0.0000                 0.0000                 0.0000
 Depolar     --     0.0000                 0.0000                 0.0000
 Atom AN      X      Y      Z        X      Y      Z        X      Y      Z
   1   7    -0.00   0.00  -0.01     0.02   0.03   0.03     0.02  -0.19  -0.08
   2   6     0.00  -0.00  -0.00    -0.03   0.00   0.05     0.11  -0.01  -0.11
   3   6    -0.00  -0.01   0.01    -0.00  -0.02  -0.05    -0.21   0.15   0.15
   4   6    -0.00   0.00   0.00    -0.02  -0.02  -0.04     0.14  -0.09  -0.02
   5   6     0.00   0.00  -0.00     0.05   0.06   0.03     0.11   0.01  -0.00
   6   6    -0.15  -0.17  -0.08    -0.15  -0.18  -0.08    -0.05  -0.00   0.03
   7   6    -0.13  -0.15  -0.07     0.03   0.02   0.02    -0.06   0.09  -0.06
   8   6    -0.00  -0.00  -0.00     0.19   0.22   0.11     0.06  -0.06  -0.03
   9   6     0.13   0.15   0.07     0.03   0.04   0.02    -0.02   0.02   0.12
  10   6     0.15   0.17   0.08    -0.16  -0.18  -0.09    -0.07   0.01  -0.04
  11  17    -0.00  -0.00   0.00     0.00   0.00   0.00    -0.00  -0.00   0.00
  12   1     0.01   0.00   0.00     0.01  -0.01  -0.02    -0.37  -0.02   0.08
  13   1    -0.01  -0.01   0.00     0.06   0.02  -0.01    -0.31   0.03   0.05
  14   1     0.00  -0.00   0.00    -0.03  -0.03  -0.01     0.30   0.33   0.04
  15   1    -0.00   0.00   0.01     0.01  -0.00   0.00    -0.19  -0.07  -0.09
  16   1    -0.00  -0.00  -0.01    -0.01  -0.01   0.02     0.23   0.20   0.07
  17   1    -0.00   0.01   0.01    -0.01   0.00  -0.00     0.11  -0.08  -0.16
  18   1     0.00   0.01  -0.01     0.01   0.01  -0.01    -0.04  -0.11   0.25
  19   1    -0.00   0.00   0.00    -0.04  -0.03   0.01     0.11   0.01  -0.03
  20   1     0.00   0.00   0.00    -0.01   0.01   0.02     0.08  -0.04  -0.04
  21   1     0.29   0.32   0.16     0.30   0.33   0.17     0.02   0.04   0.03
  22   1     0.27   0.30   0.15    -0.09  -0.10  -0.05    -0.05   0.01  -0.01
  23   1     0.00   0.00   0.00    -0.31  -0.34  -0.17     0.04   0.02   0.01
  24   1    -0.26  -0.30  -0.14    -0.10  -0.12  -0.06    -0.07  -0.05  -0.00
  25   1    -0.29  -0.33  -0.16     0.30   0.34   0.16     0.05   0.07   0.02
                     25                     26                     27
                        a                      a                      a 
 Frequencies --   923.6871               928.8292               942.5475
 Red. masses --     4.1726                 2.9847                 4.0144
 Frc consts  --     0.0000                 0.0000                 0.0000
 IR Inten    --     0.0825                 0.4435                38.5047
 Raman Activ --     0.0000                 0.0000                 0.0000
 Depolar     --     0.0000                 0.0000                 0.0000
 Atom AN      X      Y      Z        X      Y      Z        X      Y      Z
   1   7    -0.01   0.01   0.01    -0.02   0.02  -0.01     0.10  -0.00   0.23
   2   6    -0.00   0.00   0.01    -0.00  -0.00   0.00    -0.08   0.03   0.01
   3   6     0.02  -0.01  -0.01     0.02  -0.02   0.00     0.04   0.05  -0.19
   4   6    -0.01   0.01  -0.00    -0.02   0.02  -0.02     0.03  -0.10   0.34
   5   6    -0.01  -0.01  -0.00    -0.06  -0.05  -0.03    -0.06  -0.05   0.01
   6   6     0.17   0.18   0.09    -0.03  -0.04  -0.02     0.01   0.04  -0.08
   7   6    -0.16  -0.19  -0.09     0.15   0.15   0.09    -0.01   0.02   0.01
   8   6    -0.02  -0.01  -0.01    -0.18  -0.19  -0.09    -0.03  -0.01   0.02
   9   6     0.18   0.21   0.09     0.12   0.14   0.06     0.05   0.01  -0.05
  10   6    -0.15  -0.18  -0.08    -0.01  -0.02   0.00     0.02   0.03  -0.04
  11  17     0.00   0.00  -0.00     0.00   0.00  -0.00     0.00  -0.00   0.00
  12   1     0.02  -0.00  -0.01     0.07   0.01   0.00    -0.30  -0.15  -0.13
  13   1     0.02  -0.00  -0.00     0.00  -0.03   0.00     0.38   0.27  -0.11
  14   1    -0.02  -0.02  -0.00    -0.03  -0.04   0.01    -0.07   0.01  -0.14
  15   1     0.01   0.00   0.00     0.03   0.02   0.02    -0.13  -0.12  -0.17
  16   1    -0.01  -0.01  -0.00    -0.03  -0.02  -0.02    -0.01  -0.03   0.07
  17   1    -0.01   0.00   0.01     0.00   0.02   0.04    -0.10  -0.12  -0.22
  18   1     0.00   0.01  -0.01    -0.00   0.01  -0.03     0.02  -0.03   0.01
  19   1     0.00  -0.00   0.00     0.00  -0.02   0.00    -0.03   0.32  -0.02
  20   1    -0.01   0.00   0.00    -0.00   0.02   0.02    -0.05  -0.23  -0.21
  21   1    -0.25  -0.28  -0.14     0.13   0.15   0.07    -0.01   0.03  -0.02
  22   1     0.26   0.29   0.14    -0.30  -0.35  -0.17    -0.04  -0.02   0.01
  23   1     0.03   0.03   0.01     0.34   0.39   0.19     0.02   0.02   0.05
  24   1    -0.29  -0.33  -0.16    -0.27  -0.30  -0.15     0.00  -0.05  -0.03
  25   1     0.25   0.28   0.14     0.10   0.11   0.06     0.00  -0.01  -0.03
                     28                     29                     30
                        a                      a                      a 
 Frequencies --   985.9082              1018.3652              1050.9261
 Red. masses --    10.4228                10.5662                 7.0223
 Frc consts  --     0.0000                 0.0000                 0.0000
 IR Inten    --     4.0392                10.0102                17.3918
 Raman Activ --     0.0000                 0.0000                 0.0000
 Depolar     --     0.0000                 0.0000                 0.0000
 Atom AN      X      Y      Z        X      Y      Z        X      Y      Z
   1   7    -0.04  -0.08  -0.04    -0.40  -0.27   0.07    -0.21  -0.03   0.18
   2   6     0.05   0.08   0.00     0.51   0.38   0.06     0.32   0.07  -0.07
   3   6     0.12   0.05   0.02     0.23   0.09  -0.05    -0.40  -0.10   0.04
   4   6    -0.02  -0.14  -0.06    -0.25  -0.11  -0.04     0.26   0.10  -0.09
   5   6    -0.14   0.11   0.07    -0.03   0.02   0.01     0.13  -0.01  -0.03
   6   6     0.11   0.14  -0.50    -0.03  -0.05   0.13     0.02   0.03  -0.12
   7   6     0.05  -0.11   0.13     0.02  -0.02   0.00    -0.04   0.05  -0.03
   8   6    -0.28   0.19   0.12     0.06  -0.04  -0.03    -0.07   0.05   0.02
   9   6     0.03   0.05  -0.17     0.02  -0.01  -0.02    -0.06   0.00   0.09
  10   6     0.16  -0.33   0.38    -0.04   0.08  -0.10     0.05  -0.11   0.11
  11  17    -0.00  -0.00  -0.00     0.00  -0.00  -0.00     0.00   0.00   0.00
  12   1    -0.06  -0.00   0.02    -0.17  -0.10  -0.03    -0.02  -0.08  -0.08
  13   1    -0.10  -0.02   0.02    -0.03  -0.02  -0.02     0.21   0.05  -0.05
  14   1     0.05   0.05   0.02    -0.13  -0.07  -0.03    -0.21  -0.15  -0.06
  15   1     0.01  -0.01  -0.05     0.13   0.07  -0.03     0.07   0.09   0.09
  16   1     0.05   0.03   0.06     0.12   0.05   0.06    -0.00   0.01  -0.15
  17   1    -0.00  -0.01  -0.02    -0.02  -0.00  -0.04     0.01  -0.04  -0.03
  18   1     0.11   0.08   0.06     0.08   0.07  -0.04    -0.32  -0.25  -0.10
  19   1    -0.00  -0.06  -0.01    -0.13  -0.06   0.01     0.24  -0.02  -0.04
  20   1    -0.01  -0.03  -0.01    -0.14  -0.01   0.03     0.19   0.06   0.01
  21   1     0.00   0.08  -0.14     0.02  -0.02   0.05    -0.02   0.04  -0.04
  22   1    -0.04  -0.00   0.10     0.03  -0.02  -0.03    -0.03   0.03   0.01
  23   1    -0.08   0.05   0.03     0.02  -0.01  -0.01    -0.02   0.02  -0.01
  24   1    -0.05   0.08  -0.05     0.03  -0.02  -0.00    -0.05   0.04   0.02
  25   1     0.01  -0.08   0.14     0.01   0.02  -0.05     0.00  -0.02   0.05
                     31                     32                     33
                        a                      a                      a 
 Frequencies --  1074.3259              1090.8734              1121.0955
 Red. masses --     4.7556                 6.3579                 7.7017
 Frc consts  --     0.0000                 0.0000                 0.0000
 IR Inten    --     6.1064                 0.9704                 9.5807
 Raman Activ --     0.0000                 0.0000                 0.0000
 Depolar     --     0.0000                 0.0000                 0.0000
 Atom AN      X      Y      Z        X      Y      Z        X      Y      Z
   1   7     0.07  -0.05   0.09    -0.02   0.01  -0.01    -0.01   0.08   0.09
   2   6    -0.09   0.10  -0.20     0.03  -0.02   0.02     0.03  -0.16  -0.39
   3   6     0.03  -0.21   0.18    -0.03   0.03  -0.02     0.14   0.34   0.38
   4   6     0.06   0.23  -0.18     0.03  -0.04   0.01    -0.24  -0.24  -0.05
   5   6    -0.04   0.07  -0.12     0.01  -0.01   0.01     0.04   0.07   0.03
   6   6    -0.05  -0.04   0.16    -0.12   0.08   0.04     0.02  -0.03  -0.02
   7   6     0.07  -0.10   0.09     0.06  -0.19   0.28    -0.02   0.01  -0.01
   8   6     0.04   0.01  -0.09     0.34  -0.23  -0.14     0.01  -0.02   0.03
   9   6    -0.03   0.01   0.03     0.03   0.13  -0.33     0.02  -0.01  -0.04
  10   6     0.03  -0.06   0.10    -0.12   0.09   0.03    -0.05   0.03  -0.00
  11  17     0.00  -0.00   0.00    -0.00   0.00  -0.00     0.00   0.00   0.00
  12   1    -0.15  -0.06  -0.03     0.03   0.01   0.00     0.04  -0.03  -0.07
  13   1     0.10   0.10  -0.03    -0.00  -0.01   0.00     0.18   0.05  -0.04
  14   1     0.02   0.05  -0.05    -0.01  -0.02   0.00    -0.11  -0.07  -0.05
  15   1    -0.02  -0.09  -0.22    -0.00   0.02   0.04    -0.12  -0.06  -0.11
  16   1    -0.01  -0.04   0.06     0.00   0.01  -0.02    -0.10  -0.05  -0.28
  17   1    -0.32  -0.12   0.00     0.04   0.01  -0.01     0.25   0.12   0.11
  18   1     0.13   0.16   0.01    -0.04  -0.04  -0.00    -0.03  -0.04   0.14
  19   1     0.34  -0.12  -0.04    -0.02   0.02  -0.00     0.16  -0.07  -0.05
  20   1    -0.37   0.16   0.19     0.06  -0.02  -0.02    -0.14  -0.04   0.03
  21   1    -0.07   0.04   0.04    -0.25   0.24  -0.03     0.10  -0.08   0.02
  22   1     0.08  -0.05  -0.04    -0.19   0.02   0.31    -0.03   0.02   0.03
  23   1     0.01   0.06  -0.13     0.10  -0.08  -0.03     0.01  -0.04   0.08
  24   1    -0.10   0.09  -0.01    -0.20   0.25  -0.14     0.05  -0.03   0.00
  25   1    -0.00  -0.03   0.03    -0.23   0.10   0.22    -0.07   0.04   0.08
                     34                     35                     36
                        a                      a                      a 
 Frequencies --  1126.4528              1181.2231              1192.0010
 Red. masses --     4.0583                 1.3676                 3.9521
 Frc consts  --     0.0000                 0.0000                 0.0000
 IR Inten    --     0.9927                 0.0442                 5.8714
 Raman Activ --     0.0000                 0.0000                 0.0000
 Depolar     --     0.0000                 0.0000                 0.0000
 Atom AN      X      Y      Z        X      Y      Z        X      Y      Z
   1   7     0.01  -0.04   0.02     0.00  -0.00   0.00     0.07  -0.10   0.09
   2   6    -0.02   0.09   0.01    -0.00   0.01  -0.01    -0.08   0.16  -0.25
   3   6    -0.04  -0.17  -0.01    -0.00  -0.01   0.01    -0.02  -0.17   0.24
   4   6     0.08   0.15  -0.10     0.01  -0.00   0.00     0.05   0.04  -0.07
   5   6    -0.02  -0.06   0.09    -0.00  -0.03   0.06    -0.08  -0.00   0.10
   6   6     0.15  -0.05  -0.15    -0.08   0.05   0.04     0.01  -0.00   0.02
   7   6    -0.08   0.11  -0.07    -0.02   0.00   0.03    -0.00  -0.03   0.06
   8   6     0.01  -0.08   0.14    -0.00   0.04  -0.08     0.00  -0.01   0.01
   9   6     0.07   0.02  -0.15     0.02  -0.02   0.01    -0.03   0.07  -0.07
  10   6    -0.16   0.16  -0.03     0.08  -0.05  -0.03     0.02   0.03  -0.10
  11  17    -0.00  -0.00   0.00     0.00  -0.00   0.00     0.00  -0.00   0.00
  12   1    -0.06  -0.02   0.00    -0.00  -0.00  -0.00    -0.16  -0.07  -0.02
  13   1    -0.01   0.02  -0.00     0.00   0.00  -0.00     0.06   0.10  -0.02
  14   1     0.02   0.03  -0.01    -0.00   0.00  -0.00     0.04   0.06  -0.05
  15   1     0.03  -0.01  -0.05     0.00  -0.00  -0.01     0.14   0.03  -0.12
  16   1     0.02  -0.01   0.08    -0.00  -0.00   0.00    -0.09  -0.10  -0.01
  17   1    -0.14  -0.05   0.01     0.00   0.00   0.01     0.02   0.07   0.22
  18   1     0.04   0.06  -0.03     0.00   0.00   0.00     0.05   0.07   0.03
  19   1     0.03  -0.04  -0.00    -0.02   0.00   0.01    -0.32  -0.06   0.07
  20   1    -0.03   0.08   0.05     0.02  -0.00  -0.00     0.40   0.04  -0.04
  21   1     0.32  -0.29   0.01     0.09  -0.10   0.03     0.12  -0.13   0.03
  22   1    -0.19   0.09   0.17    -0.29   0.10   0.33    -0.14   0.04   0.17
  23   1     0.02  -0.19   0.35    -0.04   0.34  -0.64     0.00  -0.01   0.01
  24   1     0.19  -0.17  -0.01     0.31  -0.31   0.07    -0.15   0.16  -0.05
  25   1    -0.31   0.13   0.28    -0.07   0.02   0.10     0.26  -0.08  -0.31
                     37                     38                     39
                        a                      a                      a 
 Frequencies --  1196.7543              1222.5433              1239.0457
 Red. masses --     2.5701                 4.4697                 7.1119
 Frc consts  --     0.0000                 0.0000                 0.0000
 IR Inten    --     1.2679                10.9562                18.7228
 Raman Activ --     0.0000                 0.0000                 0.0000
 Depolar     --     0.0000                 0.0000                 0.0000
 Atom AN      X      Y      Z        X      Y      Z        X      Y      Z
   1   7     0.05  -0.07   0.05     0.18  -0.20  -0.03    -0.05   0.07   0.01
   2   6    -0.05   0.11  -0.16    -0.18   0.25   0.09     0.03  -0.03  -0.05
   3   6     0.01  -0.10   0.16     0.09   0.07  -0.09     0.06  -0.02   0.08
   4   6    -0.01   0.05  -0.03    -0.15  -0.06   0.08    -0.13   0.17   0.06
   5   6     0.04  -0.08   0.03     0.19  -0.07  -0.10     0.40  -0.34  -0.19
   6   6    -0.05   0.08  -0.06     0.04  -0.04  -0.02     0.14  -0.08  -0.08
   7   6     0.05   0.02  -0.11    -0.05   0.05  -0.02    -0.10   0.15  -0.11
   8   6     0.02  -0.02  -0.00    -0.02   0.02   0.00    -0.08   0.05   0.04
   9   6     0.04  -0.05   0.05    -0.03  -0.01   0.07    -0.10  -0.00   0.19
  10   6    -0.04   0.01   0.05     0.04  -0.05   0.01     0.15  -0.11  -0.06
  11  17     0.00  -0.00   0.00    -0.00  -0.00   0.00     0.00   0.00   0.00
  12   1    -0.11  -0.04  -0.01    -0.22  -0.03   0.07     0.06   0.01  -0.02
  13   1     0.03   0.06  -0.01    -0.13   0.09   0.01     0.04  -0.02  -0.00
  14   1     0.03   0.04  -0.03     0.15   0.12  -0.02    -0.04  -0.03   0.01
  15   1     0.09   0.01  -0.08     0.32   0.13   0.05    -0.15  -0.09  -0.11
  16   1    -0.07  -0.08  -0.01    -0.31  -0.25  -0.03     0.12   0.10   0.06
  17   1     0.01   0.05   0.15     0.16   0.13   0.11    -0.03   0.01   0.05
  18   1     0.03   0.04   0.01    -0.23  -0.16  -0.25     0.02   0.02   0.00
  19   1    -0.28  -0.01   0.05     0.20   0.04  -0.04    -0.35   0.04   0.08
  20   1     0.21   0.04  -0.00    -0.16  -0.03   0.01    -0.19   0.06   0.07
  21   1    -0.35   0.35  -0.09     0.01   0.00  -0.01    -0.07   0.09  -0.06
  22   1     0.22  -0.07  -0.27    -0.07   0.04   0.06    -0.20   0.10   0.15
  23   1     0.00  -0.01   0.00    -0.01   0.01  -0.01    -0.03   0.02   0.01
  24   1     0.26  -0.27   0.07    -0.09   0.08   0.01    -0.22   0.18   0.01
  25   1    -0.23   0.08   0.27    -0.04   0.01   0.08    -0.06  -0.00   0.10
                     40                     41                     42
                        a                      a                      a 
 Frequencies --  1271.7543              1288.1474              1309.5782
 Red. masses --     2.1690                 3.5324                 3.5329
 Frc consts  --     0.0000                 0.0000                 0.0000
 IR Inten    --     1.3543                 0.0463                18.2154
 Raman Activ --     0.0000                 0.0000                 0.0000
 Depolar     --     0.0000                 0.0000                 0.0000
 Atom AN      X      Y      Z        X      Y      Z        X      Y      Z
   1   7    -0.05   0.07  -0.01     0.01   0.01  -0.02     0.10   0.06  -0.12
   2   6    -0.08   0.14   0.01    -0.01  -0.00   0.04     0.15   0.11   0.27
   3   6     0.13  -0.18  -0.01     0.06   0.01   0.00     0.13   0.08   0.19
   4   6    -0.04  -0.07   0.02    -0.09   0.03  -0.05     0.03   0.00  -0.10
   5   6    -0.04   0.06   0.02     0.04  -0.10   0.18    -0.02   0.00   0.04
   6   6    -0.04   0.03   0.01     0.17  -0.16   0.01    -0.05   0.05  -0.01
   7   6     0.01  -0.02   0.02     0.04   0.02  -0.10     0.02  -0.02  -0.01
   8   6     0.01  -0.01   0.00    -0.01   0.10  -0.18     0.01  -0.03   0.04
   9   6     0.01  -0.00  -0.02    -0.05   0.07  -0.05    -0.02   0.02  -0.02
  10   6    -0.01   0.01   0.00    -0.15   0.06   0.14     0.02  -0.01  -0.03
  11  17    -0.00   0.00   0.00    -0.00   0.00   0.00    -0.00   0.00  -0.00
  12   1     0.06   0.02  -0.01     0.01   0.01   0.00    -0.04   0.03   0.01
  13   1     0.00  -0.01   0.00    -0.02  -0.01   0.01    -0.16  -0.09   0.05
  14   1    -0.04  -0.02   0.01     0.00  -0.01   0.01    -0.02  -0.07   0.01
  15   1    -0.27  -0.21  -0.31    -0.03  -0.03  -0.02    -0.35  -0.25  -0.27
  16   1     0.28   0.18   0.34    -0.00   0.01   0.00    -0.31  -0.21  -0.25
  17   1     0.20   0.20   0.33    -0.05  -0.03  -0.03    -0.25  -0.18  -0.19
  18   1    -0.24  -0.14  -0.37    -0.04  -0.03  -0.05    -0.21  -0.14  -0.18
  19   1     0.17  -0.02  -0.03     0.18  -0.04  -0.03    -0.15  -0.08   0.03
  20   1     0.10  -0.03  -0.03    -0.04   0.04   0.04     0.10   0.02  -0.01
  21   1     0.02  -0.02   0.01    -0.30   0.31  -0.07     0.03  -0.03   0.01
  22   1     0.05  -0.02  -0.04    -0.25   0.10   0.27     0.03  -0.01  -0.03
  23   1     0.00   0.01  -0.02     0.01  -0.12   0.23     0.00   0.01  -0.02
  24   1     0.01  -0.01  -0.00     0.25  -0.24   0.04    -0.01   0.01  -0.01
  25   1    -0.00   0.01   0.00     0.28  -0.09  -0.32     0.00   0.01  -0.00
                     43                     44                     45
                        a                      a                      a 
 Frequencies --  1336.0161              1345.2095              1367.0251
 Red. masses --     7.0644                 9.1850                 4.5058
 Frc consts  --     0.0000                 0.0000                 0.0000
 IR Inten    --     0.5862                 1.3981                 1.5579
 Raman Activ --     0.0000                 0.0000                 0.0000
 Depolar     --     0.0000                 0.0000                 0.0000
 Atom AN      X      Y      Z        X      Y      Z        X      Y      Z
   1   7     0.01  -0.00   0.00    -0.00  -0.01   0.02    -0.05  -0.03   0.07
   2   6     0.01   0.04  -0.00    -0.03  -0.00  -0.03    -0.22  -0.14  -0.16
   3   6    -0.11   0.04   0.02    -0.05   0.05  -0.00     0.32   0.21   0.23
   4   6     0.44  -0.06  -0.04     0.28  -0.03  -0.07     0.01  -0.03  -0.09
   5   6    -0.13   0.13  -0.19    -0.06  -0.14   0.32    -0.02   0.02  -0.01
   6   6     0.13  -0.13   0.04    -0.24   0.23  -0.03     0.01  -0.00  -0.01
   7   6    -0.12   0.02   0.19     0.25  -0.11  -0.23    -0.03   0.01   0.04
   8   6     0.01   0.10  -0.22     0.03  -0.14   0.24     0.01   0.00  -0.01
   9   6     0.16  -0.13  -0.01    -0.25   0.26  -0.07     0.04  -0.03  -0.01
  10   6    -0.18   0.06   0.22     0.19  -0.07  -0.18    -0.04   0.02   0.02
  11  17    -0.00   0.00   0.00    -0.00  -0.00   0.00    -0.00   0.00   0.00
  12   1    -0.02   0.00   0.01     0.00  -0.00   0.01     0.08  -0.04  -0.05
  13   1    -0.01   0.01   0.00     0.01   0.02  -0.01     0.04   0.01  -0.00
  14   1    -0.01  -0.01  -0.01     0.01   0.01  -0.01     0.03   0.11  -0.06
  15   1    -0.02  -0.02  -0.04     0.05   0.03   0.03     0.24   0.15   0.18
  16   1    -0.03  -0.02  -0.02     0.03   0.02   0.03     0.21   0.16   0.18
  17   1     0.17   0.10   0.09     0.09   0.05   0.04    -0.34  -0.20  -0.22
  18   1    -0.12  -0.09  -0.04    -0.09  -0.07  -0.04    -0.30  -0.25  -0.23
  19   1    -0.41  -0.03   0.08    -0.12  -0.06   0.03    -0.14  -0.05   0.02
  20   1    -0.43  -0.07   0.01    -0.42  -0.02   0.06     0.05   0.01   0.00
  21   1     0.01  -0.03   0.00    -0.02   0.01   0.00     0.03  -0.02   0.00
  22   1     0.01  -0.01  -0.00     0.00  -0.01   0.01     0.02  -0.01  -0.02
  23   1     0.00  -0.02   0.01     0.01  -0.04   0.06     0.00   0.01  -0.02
  24   1     0.06  -0.06   0.00     0.05  -0.05   0.01    -0.00   0.00  -0.01
  25   1     0.04  -0.02  -0.05     0.06  -0.03  -0.06    -0.00   0.00  -0.00
                     46                     47                     48
                        a                      a                      a 
 Frequencies --  1399.4810              1410.0549              1435.3297
 Red. masses --     2.6763                 1.7388                 1.6760
 Frc consts  --     0.0000                 0.0000                 0.0000
 IR Inten    --   208.0177               112.1332                72.8606
 Raman Activ --     0.0000                 0.0000                 0.0000
 Depolar     --     0.0000                 0.0000                 0.0000
 Atom AN      X      Y      Z        X      Y      Z        X      Y      Z
   1   7     0.23   0.25   0.09    -0.21   0.03   0.00    -0.01  -0.08   0.19
   2   6    -0.04  -0.02  -0.06    -0.00   0.08   0.07     0.04   0.02   0.07
   3   6    -0.00   0.00  -0.02    -0.01  -0.01  -0.02    -0.03  -0.02  -0.05
   4   6     0.00  -0.01   0.01     0.01  -0.00   0.00    -0.00   0.01   0.01
   5   6    -0.00   0.00  -0.00     0.00   0.00  -0.00     0.00  -0.00   0.00
   6   6    -0.00  -0.00   0.00    -0.00   0.00   0.00     0.00  -0.00  -0.00
   7   6     0.00  -0.00  -0.00     0.00  -0.00   0.00    -0.00   0.00  -0.00
   8   6    -0.00   0.00   0.00     0.00   0.00  -0.00    -0.00  -0.00   0.00
   9   6    -0.00   0.00   0.00    -0.00   0.00   0.00     0.00  -0.00  -0.00
  10   6     0.00  -0.00  -0.00     0.00  -0.00   0.00    -0.00   0.00  -0.00
  11  17     0.00   0.00   0.00    -0.00  -0.00  -0.00     0.00  -0.00   0.00
  12   1    -0.38  -0.27  -0.40     0.13  -0.20  -0.35     0.41  -0.15  -0.28
  13   1    -0.26  -0.49   0.23     0.39  -0.45  -0.01    -0.29   0.11   0.08
  14   1    -0.22  -0.22  -0.10     0.41   0.40   0.26    -0.07   0.39  -0.63
  15   1     0.05   0.07   0.08     0.00  -0.03  -0.06    -0.05  -0.04  -0.04
  16   1     0.05   0.01   0.08    -0.10  -0.05  -0.06    -0.05  -0.02  -0.05
  17   1     0.02   0.02   0.02     0.02   0.02   0.02     0.00   0.03   0.04
  18   1     0.01   0.01   0.01    -0.01  -0.01  -0.00     0.03  -0.00   0.05
  19   1     0.01   0.01  -0.00     0.00  -0.00   0.00     0.02   0.00  -0.00
  20   1    -0.02  -0.00   0.00    -0.01  -0.01  -0.00    -0.01  -0.01  -0.01
  21   1     0.00  -0.00   0.00     0.00  -0.00   0.00    -0.00   0.00  -0.00
  22   1    -0.00   0.00   0.00    -0.00  -0.00   0.00    -0.00   0.00   0.00
  23   1    -0.00   0.00   0.00     0.00  -0.00   0.00    -0.00   0.00  -0.00
  24   1    -0.00   0.00   0.00     0.00  -0.00   0.00    -0.00   0.00  -0.00
  25   1    -0.00   0.00   0.00     0.00  -0.00   0.00     0.00   0.00  -0.00
                     49                     50                     51
                        a                      a                      a 
 Frequencies --  1446.7692              1485.6422              1489.5644
 Red. masses --     8.8455                 9.0952                 1.9552
 Frc consts  --     0.0000                 0.0000                 0.0000
 IR Inten    --     1.9416                 1.5276                 4.2908
 Raman Activ --     0.0000                 0.0000                 0.0000
 Depolar     --     0.0000                 0.0000                 0.0000
 Atom AN      X      Y      Z        X      Y      Z        X      Y      Z
   1   7     0.00   0.00  -0.00     0.00   0.00   0.00     0.00   0.01   0.01
   2   6    -0.00   0.00   0.01    -0.01  -0.01   0.02    -0.14  -0.06   0.23
   3   6    -0.01  -0.00  -0.01     0.01  -0.00  -0.04    -0.01  -0.01  -0.02
   4   6     0.01   0.04  -0.06    -0.11   0.06   0.04     0.01  -0.02  -0.00
   5   6     0.02  -0.20   0.37     0.34  -0.23  -0.15    -0.03   0.03   0.00
   6   6     0.19  -0.07  -0.20    -0.14   0.21  -0.17     0.01  -0.02   0.02
   7   6    -0.26   0.21   0.03    -0.19   0.01   0.32     0.03  -0.01  -0.03
   8   6     0.02  -0.17   0.32     0.21  -0.14  -0.09    -0.02   0.02  -0.00
   9   6     0.25  -0.13  -0.18    -0.22   0.26  -0.14     0.01  -0.02   0.02
  10   6    -0.21   0.20  -0.03    -0.11  -0.04   0.28     0.02  -0.00  -0.03
  11  17     0.00   0.00  -0.00     0.00   0.00  -0.00     0.00   0.00  -0.00
  12   1    -0.01  -0.00   0.00    -0.01  -0.00   0.00    -0.04  -0.01  -0.00
  13   1     0.00  -0.01   0.00    -0.00  -0.00   0.00    -0.02  -0.01   0.01
  14   1     0.00  -0.00   0.01    -0.01  -0.01   0.00    -0.04  -0.04   0.00
  15   1     0.01  -0.01  -0.02     0.04  -0.02  -0.04     0.49  -0.22  -0.39
  16   1    -0.01   0.01  -0.02     0.01   0.05  -0.04     0.09   0.49  -0.46
  17   1     0.01   0.01   0.01    -0.06   0.03   0.05    -0.00   0.01   0.02
  18   1     0.01   0.00   0.01     0.02  -0.04   0.08     0.00  -0.01   0.01
  19   1     0.08  -0.05  -0.01    -0.01   0.03   0.00     0.00   0.03  -0.01
  20   1    -0.13   0.02   0.04    -0.01   0.03   0.02     0.02   0.01   0.02
  21   1    -0.08   0.12  -0.09     0.18  -0.16  -0.00    -0.01   0.01   0.00
  22   1     0.09   0.01  -0.18     0.17  -0.07  -0.16    -0.02   0.01   0.02
  23   1    -0.02   0.17  -0.31     0.06  -0.04  -0.03    -0.01  -0.00   0.01
  24   1    -0.10   0.14  -0.10     0.18  -0.16   0.01    -0.02   0.01   0.00
  25   1     0.07   0.01  -0.15     0.17  -0.08  -0.14    -0.03   0.01   0.02
                     52                     53                     54
                        a                      a                      a 
 Frequencies --  1502.8724              1508.4149              1605.0758
 Red. masses --     1.9612                 2.1495                11.5195
 Frc consts  --     0.0000                 0.0000                 0.0000
 IR Inten    --     2.3747                 0.8104                 0.0664
 Raman Activ --     0.0000                 0.0000                 0.0000
 Depolar     --     0.0000                 0.0000                 0.0000
 Atom AN      X      Y      Z        X      Y      Z        X      Y      Z
   1   7     0.00  -0.00  -0.00     0.00  -0.00   0.02     0.00  -0.00  -0.00
   2   6     0.01   0.00  -0.01    -0.04  -0.02  -0.00     0.00   0.00   0.00
   3   6     0.05   0.03  -0.10    -0.12  -0.06   0.23    -0.00  -0.00  -0.00
   4   6    -0.03   0.25   0.09    -0.03   0.13   0.06     0.00   0.02  -0.04
   5   6     0.02   0.01  -0.00     0.06  -0.03  -0.02     0.02  -0.23   0.43
   6   6     0.00  -0.01   0.01    -0.01   0.01  -0.02    -0.12   0.20  -0.19
   7   6     0.00   0.00  -0.01    -0.03   0.01   0.04    -0.09  -0.07   0.31
   8   6    -0.00   0.01  -0.01     0.03  -0.02  -0.02    -0.02   0.26  -0.49
   9   6    -0.00  -0.00   0.01    -0.04   0.04  -0.01     0.11  -0.20   0.22
  10   6     0.02  -0.00  -0.02    -0.00  -0.01   0.02     0.11   0.05  -0.29
  11  17     0.00   0.00  -0.00     0.00  -0.00   0.00    -0.00  -0.00  -0.00
  12   1    -0.02   0.00   0.01     0.02  -0.01  -0.02    -0.00  -0.00  -0.00
  13   1     0.00  -0.00  -0.00    -0.00   0.00   0.00    -0.00  -0.00   0.00
  14   1    -0.01  -0.02   0.02    -0.00   0.02  -0.03     0.00   0.00   0.00
  15   1     0.02   0.00  -0.01     0.04   0.00   0.00    -0.00   0.00   0.00
  16   1     0.00   0.01  -0.02     0.02   0.04  -0.00    -0.00  -0.00  -0.00
  17   1    -0.19   0.09   0.16     0.42  -0.21  -0.37     0.00   0.00  -0.00
  18   1    -0.01  -0.18   0.21     0.05   0.44  -0.44     0.00   0.00   0.00
  19   1     0.08  -0.58   0.18     0.02  -0.25   0.09     0.05  -0.02  -0.01
  20   1    -0.05  -0.34  -0.52    -0.02  -0.15  -0.23    -0.06   0.02   0.03
  21   1    -0.01   0.01   0.00     0.01  -0.01  -0.00     0.06  -0.04  -0.03
  22   1    -0.01   0.00   0.01     0.02  -0.01  -0.02     0.06  -0.05  -0.01
  23   1    -0.00  -0.00   0.00     0.01  -0.01  -0.00     0.01  -0.06   0.11
  24   1    -0.01   0.00   0.00     0.02  -0.02   0.00    -0.05   0.03   0.04
  25   1    -0.03   0.01   0.03     0.01  -0.01  -0.00    -0.06   0.04   0.02
                     55                     56                     57
                        a                      a                      a 
 Frequencies --  1616.4645              2926.1434              2931.3994
 Red. masses --    11.5389                 1.9315                 1.9296
 Frc consts  --     0.0000                 0.0000                 0.0000
 IR Inten    --    10.3342                35.3172                29.6721
 Raman Activ --     0.0000                 0.0000                 0.0000
 Depolar     --     0.0000                 0.0000                 0.0000
 Atom AN      X      Y      Z        X      Y      Z        X      Y      Z
   1   7     0.00   0.00   0.00    -0.00  -0.00  -0.00    -0.00   0.00  -0.00
   2   6     0.00  -0.00  -0.00    -0.01   0.01   0.01    -0.04   0.06  -0.01
   3   6    -0.01  -0.01   0.00     0.03  -0.07   0.01     0.14  -0.22   0.02
   4   6    -0.03   0.03   0.02    -0.05   0.07  -0.27     0.02   0.00   0.08
   5   6     0.23  -0.16  -0.09    -0.00   0.00  -0.01    -0.00   0.00   0.00
   6   6    -0.36   0.30   0.02    -0.00   0.00   0.00     0.00  -0.00  -0.00
   7   6     0.32  -0.17  -0.25     0.00   0.00  -0.00    -0.00   0.00   0.00
   8   6    -0.16   0.11   0.06     0.00  -0.00   0.00    -0.00   0.00  -0.00
   9   6     0.34  -0.29  -0.02    -0.00   0.00  -0.00     0.00  -0.00  -0.00
  10   6    -0.34   0.17   0.26     0.00  -0.00   0.00    -0.00   0.00  -0.00
  11  17     0.00  -0.00   0.00    -0.00   0.00  -0.00     0.00  -0.00  -0.00
  12   1    -0.00  -0.00  -0.00     0.00   0.00   0.00     0.00   0.00  -0.00
  13   1    -0.00   0.00   0.00    -0.00  -0.00  -0.00     0.00  -0.00   0.00
  14   1    -0.00  -0.00  -0.00    -0.00   0.00   0.00    -0.00   0.00   0.00
  15   1     0.00  -0.00  -0.00     0.00  -0.01   0.01     0.01  -0.15   0.11
  16   1     0.00   0.00  -0.00     0.03  -0.02  -0.02     0.14  -0.10  -0.08
  17   1     0.01  -0.00  -0.00    -0.02   0.20  -0.14    -0.05   0.49  -0.35
  18   1     0.01   0.01  -0.00    -0.09   0.06   0.05    -0.47   0.32   0.27
  19   1    -0.01  -0.01   0.01     0.12   0.23   0.68    -0.05  -0.08  -0.26
  20   1    -0.01  -0.00  -0.01     0.06  -0.48   0.29    -0.01   0.05  -0.02
  21   1     0.06  -0.08   0.04     0.00  -0.00  -0.00    -0.00   0.00   0.00
  22   1    -0.05   0.00   0.08     0.00  -0.00   0.00     0.00  -0.00  -0.00
  23   1    -0.04   0.03   0.02    -0.00   0.00   0.00     0.00   0.00  -0.00
  24   1    -0.06   0.07  -0.04    -0.00  -0.00   0.00    -0.00   0.00   0.00
  25   1     0.05  -0.00  -0.09    -0.00   0.00  -0.00     0.00  -0.00   0.00
                     58                     59                     60
                        a                      a                      a 
 Frequencies --  2952.8176              2958.3440              2961.9611
 Red. masses --     1.9634                 1.5620                 1.5018
 Frc consts  --     0.0000                 0.0000                 0.0000
 IR Inten    --    13.0133                97.7542                47.8025
 Raman Activ --     0.0000                 0.0000                 0.0000
 Depolar     --     0.0000                 0.0000                 0.0000
 Atom AN      X      Y      Z        X      Y      Z        X      Y      Z
   1   7    -0.00   0.00   0.00    -0.00   0.00  -0.00    -0.00  -0.00   0.00
   2   6     0.15  -0.24   0.02     0.04  -0.05  -0.00    -0.02  -0.03   0.04
   3   6     0.04  -0.07   0.01     0.01  -0.06   0.03     0.11   0.04  -0.16
   4   6     0.00   0.05   0.02    -0.00  -0.21  -0.02    -0.00  -0.02  -0.03
   5   6    -0.00   0.00   0.00     0.00  -0.01   0.00    -0.00   0.00  -0.00
   6   6     0.00  -0.00  -0.00    -0.00   0.00   0.00    -0.00  -0.00   0.00
   7   6    -0.00   0.00  -0.00     0.00  -0.00   0.00     0.00  -0.00   0.00
   8   6    -0.00  -0.00  -0.00     0.00  -0.00  -0.00     0.00  -0.00   0.00
   9   6     0.00  -0.00   0.00     0.00   0.00  -0.00    -0.00   0.00  -0.00
  10   6     0.00  -0.00   0.00    -0.00   0.00  -0.00    -0.00   0.00  -0.00
  11  17     0.00  -0.00  -0.00     0.00   0.00  -0.00     0.00  -0.00  -0.00
  12   1     0.00  -0.01   0.01     0.00  -0.00   0.00    -0.00  -0.00   0.00
  13   1    -0.00   0.00   0.00    -0.00   0.00  -0.00    -0.00  -0.00  -0.01
  14   1     0.02  -0.02  -0.01     0.00  -0.00  -0.00    -0.00   0.00  -0.00
  15   1    -0.05   0.49  -0.34    -0.01   0.07  -0.05    -0.03   0.19  -0.12
  16   1    -0.49   0.35   0.28    -0.13   0.09   0.07     0.09  -0.08  -0.05
  17   1    -0.02   0.15  -0.10    -0.03   0.17  -0.11     0.09  -0.53   0.33
  18   1    -0.10   0.07   0.06    -0.03   0.01   0.02    -0.50   0.39   0.26
  19   1    -0.03  -0.04  -0.16     0.09   0.13   0.51     0.02   0.04   0.12
  20   1     0.02  -0.14   0.10    -0.08   0.61  -0.44    -0.00   0.04  -0.03
  21   1    -0.00  -0.00   0.00     0.00   0.00  -0.00     0.00  -0.00  -0.00
  22   1    -0.00  -0.00   0.00    -0.00   0.00  -0.00    -0.00   0.00  -0.00
  23   1     0.00  -0.00   0.00    -0.00   0.00   0.00    -0.00   0.00   0.00
  24   1     0.00  -0.00  -0.00    -0.00  -0.00   0.00    -0.00  -0.00   0.00
  25   1    -0.00   0.00  -0.00     0.00  -0.01   0.00     0.00  -0.00   0.00
                     61                     62                     63
                        a                      a                      a 
 Frequencies --  2979.9158              3085.8305              3090.4642
 Red. masses --     1.5227                 1.7435                 1.7967
 Frc consts  --     0.0000                 0.0000                 0.0000
 IR Inten    --    40.1219                 1.7046                51.3908
 Raman Activ --     0.0000                 0.0000                 0.0000
 Depolar     --     0.0000                 0.0000                 0.0000
 Atom AN      X      Y      Z        X      Y      Z        X      Y      Z
   1   7     0.00  -0.00  -0.01     0.00  -0.00  -0.00    -0.00   0.00  -0.00
   2   6    -0.10  -0.06   0.17     0.00  -0.00  -0.00    -0.00  -0.00   0.00
   3   6    -0.03  -0.01   0.05     0.00  -0.00  -0.00    -0.00  -0.00   0.00
   4   6     0.00  -0.01   0.01    -0.00  -0.00   0.00     0.00  -0.00   0.00
   5   6     0.00  -0.00   0.00    -0.00   0.00   0.00     0.00  -0.00   0.00
   6   6     0.00  -0.00  -0.00    -0.01  -0.00   0.03    -0.02  -0.01   0.06
   7   6    -0.00   0.00  -0.00    -0.06   0.10  -0.09    -0.07   0.11  -0.10
   8   6    -0.00   0.00   0.00     0.14  -0.09  -0.06    -0.02   0.01   0.01
   9   6    -0.00  -0.00   0.00    -0.04  -0.02   0.10     0.07   0.03  -0.17
  10   6    -0.00   0.00  -0.00    -0.01   0.01  -0.01     0.03  -0.04   0.04
  11  17    -0.00   0.00   0.00    -0.00   0.00   0.00     0.00  -0.00   0.00
  12   1     0.00  -0.02   0.01     0.00  -0.00   0.00     0.00  -0.00   0.00
  13   1    -0.00  -0.00   0.00     0.00   0.00   0.00    -0.00   0.00   0.00
  14   1    -0.03   0.02   0.02    -0.00   0.00   0.00     0.00  -0.00  -0.00
  15   1    -0.09   0.58  -0.37     0.00  -0.00   0.00    -0.00   0.00  -0.00
  16   1     0.46  -0.37  -0.24    -0.00   0.00   0.00     0.00  -0.00  -0.00
  17   1    -0.03   0.15  -0.10     0.00   0.00  -0.00     0.00   0.00  -0.00
  18   1     0.13  -0.10  -0.07    -0.00   0.00   0.00     0.00  -0.00  -0.00
  19   1    -0.01  -0.01  -0.02     0.00  -0.00  -0.00     0.00  -0.00  -0.00
  20   1    -0.00   0.03  -0.02    -0.00   0.00  -0.00    -0.00   0.00  -0.00
  21   1    -0.00   0.00   0.00     0.04   0.02  -0.11     0.09   0.04  -0.23
  22   1     0.00  -0.00   0.00     0.23  -0.37   0.32     0.26  -0.41   0.36
  23   1     0.00  -0.00  -0.00    -0.52   0.35   0.22     0.07  -0.05  -0.03
  24   1     0.00   0.00  -0.00     0.14   0.06  -0.39    -0.23  -0.09   0.61
  25   1     0.00  -0.01   0.00     0.04  -0.05   0.05    -0.11   0.16  -0.14
                     64                     65                     66
                        a                      a                      a 
 Frequencies --  3100.1656              3107.5018              3114.6193
 Red. masses --     1.8445                 1.8625                 1.9002
 Frc consts  --     0.0000                 0.0000                 0.0000
 IR Inten    --   186.1548               208.7021                14.7641
 Raman Activ --     0.0000                 0.0000                 0.0000
 Depolar     --     0.0000                 0.0000                 0.0000
 Atom AN      X      Y      Z        X      Y      Z        X      Y      Z
   1   7    -0.00   0.00   0.00     0.00  -0.00  -0.00    -0.01   0.00   0.00
   2   6    -0.00   0.00   0.00    -0.00  -0.00   0.00    -0.00   0.00  -0.00
   3   6    -0.00   0.00   0.00     0.00  -0.00   0.00    -0.00  -0.00   0.00
   4   6    -0.00   0.00  -0.00     0.00  -0.00   0.00     0.00   0.00   0.00
   5   6     0.01  -0.00  -0.00    -0.00  -0.00   0.00    -0.01   0.01   0.00
   6   6     0.04   0.02  -0.11    -0.07  -0.03   0.17    -0.05  -0.02   0.13
   7   6     0.04  -0.06   0.05     0.04  -0.06   0.05     0.04  -0.07   0.06
   8   6     0.14  -0.09  -0.06     0.01  -0.00  -0.01     0.08  -0.05  -0.03
   9   6     0.04   0.02  -0.10    -0.02  -0.01   0.06     0.04   0.02  -0.10
  10   6     0.05  -0.07   0.07     0.08  -0.12   0.10    -0.07   0.11  -0.10
  11  17     0.00  -0.00  -0.00    -0.00   0.00   0.00     0.00  -0.00  -0.00
  12   1    -0.00   0.00  -0.00     0.00  -0.00   0.00    -0.00  -0.00   0.00
  13   1    -0.00  -0.00  -0.00     0.00   0.00   0.00    -0.00   0.00  -0.00
  14   1     0.00  -0.00  -0.00    -0.00   0.00   0.00     0.02  -0.02  -0.01
  15   1    -0.00   0.00  -0.00    -0.00   0.00  -0.00     0.00  -0.00   0.00
  16   1     0.00  -0.00  -0.00     0.00  -0.00  -0.00    -0.00   0.00  -0.00
  17   1    -0.00  -0.00   0.00     0.00   0.00  -0.00     0.00   0.00  -0.00
  18   1     0.00  -0.00  -0.00    -0.00   0.00   0.00     0.00  -0.00  -0.00
  19   1    -0.00   0.00   0.00     0.00  -0.00  -0.00    -0.00  -0.00  -0.01
  20   1    -0.00   0.00   0.00    -0.00   0.00  -0.00     0.00  -0.01   0.00
  21   1    -0.15  -0.06   0.39     0.23   0.10  -0.60     0.17   0.07  -0.46
  22   1    -0.13   0.20  -0.18    -0.12   0.18  -0.16    -0.14   0.22  -0.20
  23   1    -0.47   0.32   0.20    -0.03   0.02   0.01    -0.26   0.18   0.11
  24   1    -0.13  -0.05   0.34     0.08   0.03  -0.20    -0.12  -0.05   0.33
  25   1    -0.18   0.27  -0.25    -0.27   0.41  -0.37     0.25  -0.38   0.34
                     67                     68                     69
                        a                      a                      a 
 Frequencies --  3128.0581              3224.3965              3242.8627
 Red. masses --     1.9303                 2.0184                 1.4738
 Frc consts  --     0.0000                 0.0000                 0.0000
 IR Inten    --   530.2652               169.3733                75.3404
 Raman Activ --     0.0000                 0.0000                 0.0000
 Depolar     --     0.0000                 0.0000                 0.0000
 Atom AN      X      Y      Z        X      Y      Z        X      Y      Z
   1   7    -0.18   0.16   0.11    -0.08   0.06  -0.26     0.04   0.19  -0.01
   2   6    -0.01   0.00   0.01    -0.00   0.00  -0.00     0.00   0.01  -0.00
   3   6    -0.00   0.00   0.00     0.00   0.00  -0.00    -0.00  -0.00   0.00
   4   6     0.00  -0.00  -0.00     0.00  -0.00  -0.00    -0.00   0.00  -0.00
   5   6     0.00  -0.00  -0.00    -0.00  -0.00   0.00     0.00  -0.00   0.00
   6   6     0.00   0.00  -0.00     0.00   0.00  -0.00    -0.00  -0.00   0.00
   7   6    -0.00   0.00  -0.00    -0.00   0.00  -0.00     0.00  -0.00   0.00
   8   6    -0.00   0.00   0.00    -0.00   0.00  -0.00     0.00  -0.00  -0.00
   9   6    -0.00  -0.00   0.00    -0.00   0.00  -0.00     0.00   0.00  -0.00
  10   6     0.00  -0.00   0.00    -0.00   0.00  -0.00    -0.00   0.00  -0.00
  11  17     0.00  -0.00  -0.00     0.00  -0.00   0.00     0.00  -0.00  -0.00
  12   1    -0.00  -0.07   0.07     0.05  -0.41   0.24     0.09  -0.70   0.45
  13   1    -0.04  -0.01  -0.09     0.21   0.20   0.78    -0.12  -0.10  -0.46
  14   1     0.70  -0.52  -0.39     0.02  -0.02  -0.04    -0.11   0.10   0.06
  15   1    -0.00   0.00  -0.00     0.00  -0.01   0.01     0.00  -0.02   0.01
  16   1     0.04  -0.02  -0.02     0.00  -0.00   0.00    -0.01   0.00   0.00
  17   1    -0.00   0.00  -0.00     0.00  -0.01   0.00     0.00   0.00   0.00
  18   1     0.00  -0.00  -0.00    -0.00   0.00   0.00     0.00  -0.00  -0.00
  19   1     0.00   0.00   0.00     0.00   0.00   0.00    -0.00  -0.00  -0.00
  20   1    -0.00   0.00  -0.00    -0.00  -0.00   0.00     0.00  -0.00   0.00
  21   1    -0.00  -0.00   0.01    -0.00  -0.00   0.00     0.00   0.00  -0.00
  22   1     0.00  -0.01   0.01     0.00  -0.00   0.00    -0.00   0.00  -0.00
  23   1     0.01  -0.01  -0.00     0.00   0.00  -0.00    -0.00   0.00   0.00
  24   1     0.00   0.00  -0.01    -0.00   0.00   0.00    -0.00  -0.00   0.00
  25   1    -0.01   0.01  -0.01     0.00  -0.00   0.00     0.00  -0.00   0.00
