 Entering Gaussian System
 *********************************************
 Gaussian 98:
 frequency output generated by the xtb code
 *********************************************
                         Standard orientation:
 --------------------------------------------------------------------
  Center     Atomic     Atomic              Coordinates (Angstroms)
  Number     Number      Type              X           Y           Z
 --------------------------------------------------------------------
    1          7             0       -0.199267   -0.670181   -1.092368
    2          6             0        0.926228   -0.340525   -0.172663
    3          6             0        2.223427   -0.028033   -0.961638
    4          6             0        2.741216    1.334255   -0.460222
    5          6             0        1.531731    2.039942    0.176571
    6          6             0        0.603447    0.916678    0.675426
    7         17             0       -3.052734   -1.239153    0.813873
    8          1             0       -1.067157   -0.863975   -0.565085
    9          1             0        0.016796   -1.498223   -1.676528
   10          1             0       -0.388055    0.121829   -1.725189
   11          1             0        1.096866   -1.200265    0.495098
   12          1             0        1.991603    0.018276   -2.031357
   13          1             0        2.972903   -0.820767   -0.843639
   14          1             0        3.182106    1.927941   -1.271735
   15          1             0        3.533498    1.192102    0.285036
   16          1             0        1.017282    2.659274   -0.568428
   17          1             0        1.830738    2.715482    0.989029
   18          1             0       -0.453942    1.187063    0.572650
   19          1             0        0.771570    0.720369    1.741226
 --------------------------------------------------------------------
     1 basis functions        1 primitive gaussians
     1 alpha electrons        1 beta electrons

 Harmonic frequencies (cm**-1), IR intensities (km*mol⁻¹),
 Raman scattering activities (A**4/amu), Raman depolarization ratios,
 reduced masses (AMU), force constants (mDyne/A) and normal coordinates:
                      1                      2                      3
                        a                      a                      a 
 Frequencies --  -122.7101                72.7212               107.7672
 Red. masses --    24.5690                13.9773                12.2669
 Frc consts  --     0.0000                 0.0000                 0.0000
 IR Inten    --   124.9186                 5.0759                13.1079
 Raman Activ --     0.0000                 0.0000                 0.0000
 Depolar     --     0.0000                 0.0000                 0.0000
 Atom AN      X      Y      Z        X      Y      Z        X      Y      Z
   1   7     0.32   0.07  -0.32    -0.14   0.02   0.18    -0.07   0.30   0.23
   2   6     0.17   0.01  -0.11    -0.08   0.21   0.03     0.04   0.01   0.19
   3   6     0.23   0.05   0.02    -0.11   0.03  -0.09     0.04  -0.15   0.11
   4   6     0.10   0.10   0.03     0.26  -0.18   0.07    -0.04   0.07  -0.37
   5   6     0.02   0.02  -0.02     0.39   0.13  -0.02     0.05   0.03  -0.14
   6   6     0.07  -0.04  -0.08     0.01   0.37  -0.16     0.31   0.01   0.28
   7  17    -0.65  -0.15   0.35    -0.21  -0.39  -0.02    -0.22  -0.20  -0.22
   8   1     0.09   0.01  -0.13    -0.02  -0.04   0.07    -0.02   0.05   0.05
   9   1     0.11   0.03  -0.09    -0.02   0.01   0.05    -0.04   0.11   0.01
  10   1     0.11   0.03  -0.08    -0.10  -0.01   0.05    -0.01   0.12   0.11
  11   1     0.03  -0.01  -0.04    -0.01   0.09   0.05    -0.02  -0.02   0.03
  12   1     0.10  -0.00  -0.00    -0.07   0.08  -0.01     0.02  -0.16   0.03
  13   1     0.08   0.03   0.04    -0.08  -0.05  -0.10     0.03  -0.02   0.12
  14   1     0.02   0.04   0.01     0.15  -0.07   0.05    -0.11  -0.01  -0.18
  15   1     0.02   0.05   0.02     0.04  -0.14   0.04     0.06   0.11  -0.17
  16   1     0.01   0.00  -0.01     0.18   0.08  -0.02    -0.06  -0.04  -0.02
  17   1    -0.01   0.01   0.00     0.14   0.01   0.01     0.06   0.05  -0.09
  18   1     0.02  -0.03  -0.02     0.03   0.18  -0.13     0.07  -0.02   0.20
  19   1     0.02  -0.02  -0.02    -0.09   0.12  -0.03     0.22   0.01   0.06
                      4                      5                      6
                        a                      a                      a 
 Frequencies --   126.3949               197.5074               332.5538
 Red. masses --    12.5890                 5.9178                 1.8692
 Frc consts  --     0.0000                 0.0000                 0.0000
 IR Inten    --    18.2236                 1.3621                 0.4847
 Raman Activ --     0.0000                 0.0000                 0.0000
 Depolar     --     0.0000                 0.0000                 0.0000
 Atom AN      X      Y      Z        X      Y      Z        X      Y      Z
   1   7    -0.10   0.42  -0.35     0.06  -0.11  -0.10    -0.04   0.05  -0.11
   2   6    -0.23   0.05  -0.03    -0.08   0.02   0.03    -0.08   0.05  -0.02
   3   6     0.04  -0.25   0.30     0.01  -0.12   0.13    -0.05   0.00   0.02
   4   6     0.02  -0.16   0.12    -0.09   0.11  -0.34     0.01  -0.02   0.03
   5   6    -0.03  -0.01  -0.14     0.20   0.01   0.39     0.03   0.03  -0.01
   6   6    -0.13   0.11  -0.08    -0.18   0.08  -0.10     0.08   0.04   0.09
   7  17     0.29  -0.13   0.15     0.04   0.01   0.01     0.02  -0.09   0.01
   8   1    -0.02   0.04  -0.12    -0.01   0.00  -0.05    -0.15   0.52  -0.06
   9   1     0.00   0.17  -0.16     0.03  -0.06   0.02    -0.21  -0.31   0.36
  10   1    -0.01   0.17  -0.02     0.05  -0.06  -0.07     0.37  -0.20  -0.41
  11   1    -0.18  -0.00  -0.01    -0.05   0.02   0.04    -0.05   0.01  -0.01
  12   1     0.11  -0.15   0.06     0.05  -0.17   0.02    -0.01   0.01   0.00
  13   1    -0.02  -0.08   0.21     0.01  -0.01   0.16    -0.02  -0.01   0.00
  14   1     0.03  -0.09   0.02    -0.22   0.03  -0.20     0.02  -0.01   0.01
  15   1    -0.02  -0.01   0.07     0.13   0.12  -0.25    -0.01  -0.02   0.02
  16   1     0.02  -0.03  -0.08     0.08   0.20   0.26    -0.00  -0.02  -0.02
  17   1    -0.03   0.03  -0.06     0.17  -0.17   0.22     0.01   0.03  -0.02
  18   1    -0.03   0.05  -0.02    -0.02   0.08  -0.16     0.02   0.02   0.09
  19   1    -0.04   0.04  -0.02    -0.21   0.00  -0.01     0.09  -0.01   0.01
                      7                      8                      9
                        a                      a                      a 
 Frequencies --   372.0151               418.1725               597.5690
 Red. masses --     8.5291                 8.3006                 8.2405
 Frc consts  --     0.0000                 0.0000                 0.0000
 IR Inten    --    28.7296                13.0173                 4.7912
 Raman Activ --     0.0000                 0.0000                 0.0000
 Depolar     --     0.0000                 0.0000                 0.0000
 Atom AN      X      Y      Z        X      Y      Z        X      Y      Z
   1   7     0.40  -0.09  -0.25    -0.25  -0.41  -0.25     0.11   0.02   0.07
   2   6    -0.13   0.07   0.28    -0.25   0.13  -0.22     0.15   0.07  -0.15
   3   6    -0.39  -0.00  -0.07     0.03   0.06   0.15     0.06  -0.30  -0.22
   4   6    -0.11  -0.16  -0.08     0.08   0.12   0.07    -0.44  -0.21   0.07
   5   6     0.03   0.02  -0.01     0.10   0.15   0.04    -0.13   0.35   0.12
   6   6     0.02   0.14   0.28     0.26   0.06   0.16     0.15   0.14  -0.06
   7  17     0.05   0.03  -0.02    -0.01   0.03   0.01    -0.00  -0.00  -0.00
   8   1     0.04  -0.13  -0.24    -0.01  -0.24  -0.02     0.05   0.00   0.05
   9   1     0.30   0.04  -0.08     0.07  -0.09  -0.05     0.01   0.00   0.02
  10   1     0.14   0.00  -0.05    -0.24  -0.17  -0.08    -0.01  -0.00   0.02
  11   1    -0.04   0.03   0.09    -0.09   0.03  -0.06     0.03   0.05  -0.00
  12   1    -0.24   0.08   0.01     0.13  -0.05   0.02     0.11  -0.19  -0.09
  13   1    -0.12  -0.03  -0.16    -0.02   0.01   0.17     0.06  -0.03   0.08
  14   1    -0.01  -0.06  -0.03     0.02   0.01  -0.00     0.07  -0.06   0.12
  15   1    -0.03  -0.10  -0.03     0.03   0.05   0.01    -0.26  -0.16   0.14
  16   1    -0.01  -0.02  -0.01     0.00   0.00  -0.00    -0.02   0.24   0.15
  17   1     0.06   0.03  -0.05     0.02   0.07  -0.01     0.10  -0.04   0.10
  18   1     0.00   0.04   0.13     0.06   0.04   0.26     0.01  -0.05   0.08
  19   1     0.07   0.05   0.07     0.28  -0.08  -0.00     0.14   0.00  -0.04
                     10                     11                     12
                        a                      a                      a 
 Frequencies --   628.1692               817.0693               836.9958
 Red. masses --     9.2204                 6.6656                 4.5427
 Frc consts  --     0.0000                 0.0000                 0.0000
 IR Inten    --     2.0152                 2.9460                 2.5872
 Raman Activ --     0.0000                 0.0000                 0.0000
 Depolar     --     0.0000                 0.0000                 0.0000
 Atom AN      X      Y      Z        X      Y      Z        X      Y      Z
   1   7    -0.09  -0.05  -0.08     0.25   0.12   0.21     0.03   0.01   0.09
   2   6    -0.02  -0.49   0.16    -0.11   0.25  -0.12    -0.15  -0.02   0.09
   3   6    -0.21   0.05   0.24    -0.15   0.06   0.20    -0.20   0.29  -0.04
   4   6    -0.05   0.16   0.08     0.08  -0.07   0.02     0.04   0.16  -0.20
   5   6     0.10   0.33  -0.05    -0.10  -0.16  -0.10     0.11  -0.15  -0.14
   6   6     0.29  -0.09  -0.34    -0.08  -0.14  -0.36     0.01  -0.19  -0.00
   7  17     0.00  -0.00   0.00    -0.01  -0.00  -0.00     0.00  -0.00   0.01
   8   1    -0.07   0.04  -0.08     0.10   0.01   0.10    -0.06  -0.02  -0.09
   9   1    -0.11   0.03  -0.11     0.10   0.00   0.11     0.09   0.02   0.02
  10   1     0.11   0.09   0.07    -0.04  -0.03   0.00     0.11   0.02   0.02
  11   1    -0.06  -0.14   0.05    -0.04   0.09   0.00     0.04  -0.03  -0.03
  12   1    -0.17   0.12   0.10    -0.04   0.10   0.06     0.15  -0.30  -0.07
  13   1     0.01   0.06  -0.10    -0.12  -0.06   0.01    -0.02   0.17   0.38
  14   1     0.03  -0.06  -0.02    -0.05  -0.06  -0.06     0.36   0.07   0.16
  15   1    -0.03   0.05   0.04     0.07   0.06  -0.04    -0.25  -0.23   0.17
  16   1     0.05   0.20   0.06     0.09   0.16   0.07    -0.02   0.06   0.08
  17   1     0.01  -0.02   0.09    -0.05  -0.25   0.15     0.10  -0.14   0.02
  18   1     0.07  -0.06  -0.06    -0.07  -0.11   0.28     0.02   0.00  -0.06
  19   1     0.11   0.04  -0.09     0.36  -0.12  -0.17    -0.06  -0.02   0.01
                     13                     14                     15
                        a                      a                      a 
 Frequencies --   858.4750               906.7001               928.4596
 Red. masses --     6.6981                 4.4144                 5.3477
 Frc consts  --     0.0000                 0.0000                 0.0000
 IR Inten    --     4.2755                11.0672                11.6638
 Raman Activ --     0.0000                 0.0000                 0.0000
 Depolar     --     0.0000                 0.0000                 0.0000
 Atom AN      X      Y      Z        X      Y      Z        X      Y      Z
   1   7    -0.16  -0.12  -0.07    -0.01  -0.10   0.21     0.23  -0.15  -0.09
   2   6    -0.03  -0.10   0.18    -0.18  -0.10  -0.02     0.07  -0.18  -0.20
   3   6     0.36  -0.04  -0.11    -0.03  -0.07  -0.30    -0.20   0.17   0.10
   4   6     0.22   0.03  -0.13     0.08   0.06   0.18    -0.03  -0.09  -0.01
   5   6    -0.11   0.01  -0.15     0.01   0.02   0.16     0.14   0.05  -0.01
   6   6    -0.36   0.14   0.16    -0.03   0.10  -0.18    -0.26   0.14   0.14
   7  17     0.00  -0.00   0.00     0.00   0.00   0.01    -0.00  -0.01  -0.01
   8   1    -0.12   0.02  -0.12    -0.22   0.00  -0.28     0.21   0.19   0.29
   9   1    -0.09   0.02  -0.11     0.08   0.09  -0.08    -0.43  -0.03  -0.21
  10   1     0.11   0.07   0.07     0.36   0.15   0.16     0.04   0.13   0.20
  11   1     0.01  -0.00   0.07     0.07   0.07   0.09     0.13  -0.03  -0.05
  12   1    -0.02   0.08  -0.00     0.19  -0.14  -0.13     0.05  -0.07   0.00
  13   1     0.10  -0.03  -0.17    -0.03  -0.01   0.13    -0.03   0.09   0.16
  14   1     0.17   0.02   0.03    -0.18   0.15   0.03    -0.03  -0.05  -0.03
  15   1    -0.05   0.02   0.08     0.18  -0.01  -0.13     0.04  -0.07  -0.06
  16   1     0.04   0.28   0.14     0.10  -0.13  -0.14     0.08  -0.04  -0.08
  17   1     0.13  -0.23   0.10    -0.21   0.13   0.02     0.06   0.08  -0.07
  18   1    -0.14  -0.05   0.29    -0.02   0.05   0.14    -0.07   0.09   0.19
  19   1     0.19   0.08   0.01     0.16  -0.03  -0.08     0.08  -0.03   0.00
                     16                     17                     18
                        a                      a                      a 
 Frequencies --   958.3815              1003.4543              1026.1321
 Red. masses --     8.7340                 5.4797                 8.2659
 Frc consts  --     0.0000                 0.0000                 0.0000
 IR Inten    --     3.6853                15.1061                11.2364
 Raman Activ --     0.0000                 0.0000                 0.0000
 Depolar     --     0.0000                 0.0000                 0.0000
 Atom AN      X      Y      Z        X      Y      Z        X      Y      Z
   1   7    -0.08  -0.06  -0.04     0.14   0.04  -0.13     0.25   0.09   0.26
   2   6     0.02   0.02   0.05    -0.11  -0.09   0.18    -0.46  -0.29  -0.29
   3   6     0.16   0.23   0.08    -0.00  -0.24  -0.16     0.17  -0.09  -0.04
   4   6    -0.46  -0.10   0.14     0.09   0.31  -0.03    -0.09   0.13   0.01
   5   6     0.11  -0.48  -0.14    -0.06  -0.22   0.13     0.14   0.06  -0.08
   6   6     0.18   0.23  -0.10     0.09   0.17  -0.13    -0.09  -0.01   0.11
   7  17     0.00   0.00   0.00    -0.00  -0.00  -0.01    -0.00   0.00   0.00
   8   1    -0.06   0.01  -0.06     0.21   0.05   0.25     0.06  -0.01   0.05
   9   1    -0.03   0.01  -0.06    -0.15  -0.06   0.00     0.16   0.02   0.11
  10   1     0.05   0.03   0.03    -0.20  -0.04  -0.02     0.04  -0.01   0.02
  11   1     0.03   0.05   0.06    -0.26   0.02   0.16    -0.18  -0.12  -0.11
  12   1     0.04   0.12   0.02    -0.19  -0.19  -0.01     0.07   0.20  -0.01
  13   1     0.14   0.15  -0.02     0.06  -0.01  -0.08     0.06  -0.03  -0.13
  14   1    -0.23   0.09   0.06     0.08   0.30   0.18     0.03  -0.03  -0.01
  15   1    -0.08   0.05   0.01    -0.06  -0.09   0.05    -0.09   0.15   0.10
  16   1     0.07  -0.03   0.02    -0.01  -0.11  -0.01    -0.08  -0.00   0.05
  17   1     0.17  -0.20  -0.04    -0.19  -0.03   0.08     0.18   0.05  -0.10
  18   1     0.09   0.20   0.00     0.05   0.19   0.06     0.05   0.27   0.02
  19   1     0.08   0.10  -0.02     0.10   0.03  -0.05    -0.09  -0.13   0.01
                     19                     20                     21
                        a                      a                      a 
 Frequencies --  1033.5221              1071.5378              1112.0121
 Red. masses --     4.5116                 5.6361                 8.1609
 Frc consts  --     0.0000                 0.0000                 0.0000
 IR Inten    --    19.1857                 0.4046                 3.1186
 Raman Activ --     0.0000                 0.0000                 0.0000
 Depolar     --     0.0000                 0.0000                 0.0000
 Atom AN      X      Y      Z        X      Y      Z        X      Y      Z
   1   7    -0.02   0.22  -0.02     0.06   0.03  -0.02     0.05   0.03   0.03
   2   6     0.01  -0.26   0.14    -0.00  -0.16  -0.07    -0.17  -0.18  -0.00
   3   6     0.05   0.16  -0.12    -0.23  -0.09  -0.17     0.15   0.32   0.00
   4   6    -0.09  -0.10   0.10     0.16   0.09   0.25     0.15  -0.37  -0.21
   5   6     0.18   0.11  -0.04    -0.19  -0.10  -0.24    -0.37   0.01   0.20
   6   6    -0.23  -0.02   0.00     0.16   0.15   0.22     0.19   0.21  -0.03
   7  17    -0.00   0.00  -0.00    -0.00   0.00  -0.00    -0.00   0.00   0.00
   8   1     0.07  -0.11   0.05     0.07  -0.00   0.07     0.03  -0.01   0.04
   9   1     0.20  -0.04   0.21     0.00  -0.02   0.02     0.02  -0.01   0.03
  10   1    -0.25  -0.16  -0.21    -0.04  -0.03  -0.03    -0.02  -0.01  -0.01
  11   1    -0.10  -0.20  -0.10     0.08  -0.11  -0.13    -0.09  -0.06  -0.01
  12   1     0.01  -0.12  -0.04     0.20  -0.00  -0.10     0.10   0.05  -0.01
  13   1     0.18   0.22   0.06    -0.22  -0.15   0.14     0.11   0.15   0.04
  14   1    -0.16   0.08   0.03    -0.14   0.05  -0.02     0.09  -0.25  -0.14
  15   1     0.11  -0.13  -0.14     0.14   0.20  -0.01     0.05  -0.13  -0.07
  16   1     0.27   0.04  -0.16     0.06   0.24   0.08    -0.11  -0.01   0.05
  17   1     0.00   0.05  -0.01    -0.02  -0.27   0.13    -0.29  -0.03   0.15
  18   1    -0.12  -0.20   0.11     0.04  -0.03  -0.14     0.08   0.17  -0.05
  19   1     0.14   0.15   0.00    -0.07   0.33   0.13     0.00   0.10   0.01
                     22                     23                     24
                        a                      a                      a 
 Frequencies --  1136.6177              1186.9095              1195.9338
 Red. masses --     8.6441                 3.1701                 4.5905
 Frc consts  --     0.0000                 0.0000                 0.0000
 IR Inten    --    13.8303                 3.4232                 8.5515
 Raman Activ --     0.0000                 0.0000                 0.0000
 Depolar     --     0.0000                 0.0000                 0.0000
 Atom AN      X      Y      Z        X      Y      Z        X      Y      Z
   1   7     0.11  -0.08  -0.10    -0.05   0.03  -0.07     0.06  -0.11   0.11
   2   6    -0.35   0.21   0.35     0.08   0.07   0.12    -0.15   0.19  -0.27
   3   6     0.20   0.15  -0.25    -0.06  -0.10  -0.14     0.09  -0.08   0.18
   4   6    -0.05  -0.16   0.12    -0.10   0.12   0.14    -0.07   0.01  -0.05
   5   6     0.04   0.19  -0.13     0.17   0.01  -0.13    -0.00   0.07  -0.16
   6   6     0.10  -0.37  -0.02    -0.09  -0.14   0.08     0.10  -0.10   0.23
   7  17    -0.00  -0.00  -0.00     0.00   0.00  -0.00    -0.00  -0.00   0.00
   8   1     0.12   0.10   0.16     0.00  -0.00  -0.00    -0.05   0.05  -0.04
   9   1    -0.21  -0.04  -0.09     0.03  -0.01   0.02    -0.03   0.03  -0.07
  10   1    -0.03   0.06   0.10    -0.05  -0.02  -0.03     0.13   0.06   0.10
  11   1    -0.17   0.12   0.19     0.19   0.03   0.01    -0.09  -0.00  -0.12
  12   1     0.14   0.02  -0.08    -0.02  -0.11  -0.04    -0.25  -0.07   0.10
  13   1    -0.03  -0.02   0.04     0.18   0.16  -0.02     0.19   0.11  -0.14
  14   1    -0.15  -0.00  -0.02     0.08  -0.40  -0.23    -0.04   0.18   0.10
  15   1     0.07   0.07  -0.04    -0.04   0.20   0.08     0.04  -0.28  -0.13
  16   1     0.01   0.09   0.01     0.13   0.05  -0.06     0.31   0.15  -0.14
  17   1     0.07   0.00  -0.02    -0.37  -0.11   0.21    -0.28  -0.12   0.18
  18   1     0.03  -0.10  -0.10     0.08   0.39   0.09     0.03  -0.08  -0.13
  19   1    -0.10  -0.04   0.02    -0.05  -0.18  -0.00    -0.13   0.09   0.10
                     25                     26                     27
                        a                      a                      a 
 Frequencies --  1216.5285              1220.1262              1271.4132
 Red. masses --     3.5762                 2.8760                 3.5021
 Frc consts  --     0.0000                 0.0000                 0.0000
 IR Inten    --     2.9534                 1.1797                 1.0846
 Raman Activ --     0.0000                 0.0000                 0.0000
 Depolar     --     0.0000                 0.0000                 0.0000
 Atom AN      X      Y      Z        X      Y      Z        X      Y      Z
   1   7     0.03  -0.01  -0.01    -0.03   0.03  -0.06     0.08  -0.06  -0.01
   2   6    -0.10   0.01   0.01    -0.00  -0.02   0.23    -0.32   0.20   0.15
   3   6     0.07  -0.04   0.00     0.15   0.03   0.10     0.07  -0.07  -0.02
   4   6    -0.22   0.14  -0.21    -0.10  -0.08  -0.16     0.05  -0.03   0.06
   5   6     0.24  -0.11   0.19    -0.01   0.13  -0.04     0.03  -0.04   0.10
   6   6    -0.01   0.00   0.00    -0.03  -0.10  -0.05     0.04   0.04  -0.15
   7  17    -0.00  -0.00  -0.00     0.00   0.00  -0.00    -0.00  -0.00  -0.00
   8   1     0.04   0.01   0.05     0.01   0.01   0.02     0.01   0.07   0.02
   9   1    -0.04  -0.00  -0.02     0.03  -0.01   0.03    -0.05  -0.01  -0.03
  10   1     0.02   0.01   0.02    -0.06  -0.03  -0.04    -0.01   0.03   0.06
  11   1    -0.01   0.02   0.03     0.34  -0.18  -0.24     0.40  -0.27  -0.49
  12   1     0.25   0.29  -0.03     0.11   0.17   0.02    -0.22  -0.21   0.03
  13   1    -0.15  -0.17  -0.01    -0.31  -0.33   0.02     0.14   0.09  -0.08
  14   1     0.17  -0.17  -0.08    -0.06   0.29   0.17    -0.00  -0.05  -0.02
  15   1    -0.22   0.08   0.12    -0.04  -0.19  -0.06    -0.03   0.17   0.09
  16   1     0.21  -0.13  -0.14     0.10   0.06  -0.06    -0.17  -0.09   0.08
  17   1    -0.28   0.05   0.10    -0.14   0.01   0.07     0.06   0.06  -0.05
  18   1    -0.08  -0.31  -0.02     0.09   0.38   0.06    -0.03  -0.13  -0.03
  19   1     0.10   0.37   0.06     0.00  -0.13  -0.03     0.09   0.22  -0.01
                     28                     29                     30
                        a                      a                      a 
 Frequencies --  1290.7496              1307.4999              1327.5108
 Red. masses --     3.0793                 3.7043                 2.9786
 Frc consts  --     0.0000                 0.0000                 0.0000
 IR Inten    --     6.0338                 0.3228                 3.3171
 Raman Activ --     0.0000                 0.0000                 0.0000
 Depolar     --     0.0000                 0.0000                 0.0000
 Atom AN      X      Y      Z        X      Y      Z        X      Y      Z
   1   7     0.05  -0.11   0.11     0.00  -0.04  -0.00     0.01  -0.05   0.03
   2   6     0.22   0.10   0.08     0.00   0.05   0.14     0.08   0.10   0.04
   3   6     0.12   0.19  -0.11    -0.18  -0.14   0.02     0.01  -0.09   0.01
   4   6    -0.07   0.01   0.04     0.05  -0.14  -0.10    -0.09   0.20   0.17
   5   6     0.03  -0.04   0.00     0.17   0.02  -0.13     0.18   0.01  -0.14
   6   6    -0.01   0.14  -0.00     0.04   0.29   0.03    -0.10  -0.07  -0.05
   7  17     0.00  -0.00   0.00    -0.00   0.00  -0.00     0.00  -0.00  -0.00
   8   1    -0.10   0.02  -0.13     0.01   0.06   0.03    -0.03   0.05  -0.02
   9   1    -0.10   0.01  -0.08     0.00   0.02  -0.04    -0.01   0.03  -0.05
  10   1     0.02  -0.00   0.05    -0.02  -0.01   0.01    -0.01  -0.01   0.01
  11   1    -0.54  -0.35  -0.31    -0.05  -0.12  -0.12    -0.16  -0.10  -0.10
  12   1    -0.15  -0.18  -0.00     0.27   0.26  -0.04     0.15   0.15  -0.02
  13   1    -0.25  -0.20   0.07     0.20   0.20   0.01     0.02  -0.01  -0.01
  14   1     0.00  -0.13  -0.08    -0.07   0.21   0.11     0.03  -0.15  -0.07
  15   1    -0.05   0.11   0.06    -0.04   0.10   0.06     0.18  -0.48  -0.27
  16   1     0.08  -0.01  -0.05    -0.17  -0.03   0.09    -0.47  -0.08   0.25
  17   1    -0.05  -0.02   0.03    -0.24  -0.07   0.13    -0.08  -0.04   0.05
  18   1    -0.02  -0.02   0.00    -0.09  -0.30  -0.01    -0.01   0.08   0.03
  19   1    -0.02  -0.19  -0.04    -0.13  -0.43  -0.06     0.08   0.24   0.02
                     31                     32                     33
                        a                      a                      a 
 Frequencies --  1330.3369              1339.9985              1372.8505
 Red. masses --     4.3968                 4.6294                 2.6753
 Frc consts  --     0.0000                 0.0000                 0.0000
 IR Inten    --     0.1543                17.1451               156.4434
 Raman Activ --     0.0000                 0.0000                 0.0000
 Depolar     --     0.0000                 0.0000                 0.0000
 Atom AN      X      Y      Z        X      Y      Z        X      Y      Z
   1   7     0.02  -0.02  -0.02     0.03   0.11  -0.03    -0.32  -0.10  -0.11
   2   6    -0.08   0.09   0.18    -0.19  -0.18  -0.04     0.02   0.02   0.03
   3   6    -0.06  -0.16  -0.01     0.23   0.15  -0.00     0.04   0.04  -0.01
   4   6    -0.03   0.29   0.05    -0.12   0.14   0.12    -0.02   0.02   0.02
   5   6    -0.32  -0.12   0.10     0.11  -0.05  -0.12     0.00  -0.01  -0.00
   6   6     0.10   0.10  -0.03     0.09   0.28   0.06     0.00   0.03  -0.01
   7  17    -0.00  -0.00  -0.00    -0.00   0.00  -0.00    -0.01  -0.00  -0.01
   8   1     0.02   0.01   0.02     0.04  -0.13  -0.00     0.27   0.08   0.54
   9   1    -0.05  -0.01  -0.02    -0.06  -0.06   0.08     0.46   0.14  -0.05
  10   1    -0.01   0.00   0.01    -0.02  -0.00  -0.04     0.48   0.09  -0.03
  11   1     0.05  -0.12  -0.15     0.29   0.14   0.14    -0.06  -0.05  -0.05
  12   1     0.21   0.19  -0.04    -0.19  -0.20   0.04    -0.05  -0.06   0.00
  13   1     0.12   0.08  -0.03    -0.20  -0.22  -0.03    -0.04  -0.04  -0.02
  14   1     0.16  -0.22  -0.12     0.02  -0.16  -0.09    -0.00  -0.03  -0.02
  15   1     0.10  -0.26  -0.16     0.05  -0.21  -0.11     0.01  -0.01  -0.01
  16   1     0.35   0.06  -0.20    -0.11  -0.04   0.05    -0.00  -0.00   0.00
  17   1     0.31   0.00  -0.15    -0.10  -0.09   0.07     0.01  -0.00  -0.01
  18   1     0.01  -0.06  -0.04    -0.08  -0.33  -0.03    -0.01  -0.03   0.00
  19   1    -0.05  -0.25  -0.05    -0.12  -0.32  -0.03     0.00  -0.04  -0.01
                     34                     35                     36
                        a                      a                      a 
 Frequencies --  1405.6351              1456.1470              1487.7643
 Red. masses --     1.5385                 1.8939                 1.8749
 Frc consts  --     0.0000                 0.0000                 0.0000
 IR Inten    --    63.2580                74.7441                 5.1597
 Raman Activ --     0.0000                 0.0000                 0.0000
 Depolar     --     0.0000                 0.0000                 0.0000
 Atom AN      X      Y      Z        X      Y      Z        X      Y      Z
   1   7    -0.04   0.17   0.01    -0.04  -0.02  -0.25    -0.00  -0.01  -0.04
   2   6     0.01   0.08   0.02     0.05   0.02  -0.03    -0.01  -0.00   0.01
   3   6    -0.03  -0.03   0.01    -0.01  -0.02  -0.01     0.00   0.00  -0.00
   4   6     0.01  -0.02  -0.01    -0.00   0.00  -0.00    -0.00   0.00   0.00
   5   6     0.01   0.01  -0.00     0.00  -0.01  -0.00     0.02  -0.06  -0.00
   6   6    -0.03  -0.04   0.01     0.02   0.00  -0.03    -0.17   0.02   0.20
   7  17    -0.00   0.01  -0.00    -0.00  -0.00  -0.00    -0.00  -0.00   0.00
   8   1     0.18  -0.71   0.03     0.00  -0.01  -0.04    -0.02   0.06  -0.01
   9   1    -0.39  -0.16   0.11     0.13  -0.37   0.55     0.04  -0.04   0.07
  10   1     0.43   0.02  -0.12    -0.05   0.41   0.52    -0.04   0.06   0.09
  11   1    -0.06  -0.05  -0.08    -0.06  -0.03  -0.03     0.01   0.02   0.02
  12   1     0.04   0.03  -0.01    -0.02   0.05   0.01    -0.01   0.01   0.00
  13   1     0.05   0.04  -0.03     0.00   0.01   0.05    -0.00  -0.00   0.01
  14   1    -0.01   0.04   0.02    -0.00   0.00   0.00    -0.00  -0.01  -0.00
  15   1     0.00   0.02   0.00     0.00  -0.01  -0.01    -0.00  -0.01   0.00
  16   1    -0.03   0.01   0.02    -0.01   0.01   0.01     0.01   0.12   0.10
  17   1    -0.02   0.01   0.00    -0.01   0.01  -0.01    -0.08   0.12  -0.07
  18   1     0.02   0.05  -0.04    -0.01  -0.00   0.11     0.06   0.03  -0.66
  19   1     0.07   0.01  -0.01    -0.10   0.02   0.02     0.60  -0.17  -0.12
                     37                     38                     39
                        a                      a                      a 
 Frequencies --  1496.1370              1509.0202              1520.8337
 Red. masses --     1.8795                 1.9427                 1.9936
 Frc consts  --     0.0000                 0.0000                 0.0000
 IR Inten    --     0.7396                 2.9580                 1.5334
 Raman Activ --     0.0000                 0.0000                 0.0000
 Depolar     --     0.0000                 0.0000                 0.0000
 Atom AN      X      Y      Z        X      Y      Z        X      Y      Z
   1   7     0.00  -0.01  -0.01     0.00   0.01   0.01    -0.00  -0.00  -0.01
   2   6     0.01   0.01   0.01    -0.01  -0.00  -0.00    -0.00   0.00  -0.00
   3   6    -0.10   0.13   0.18     0.06  -0.07  -0.09     0.03  -0.04  -0.05
   4   6     0.12   0.04  -0.01     0.18   0.07   0.00     0.16   0.06  -0.01
   5   6     0.00  -0.02   0.00     0.02  -0.17  -0.00    -0.04   0.22   0.01
   6   6     0.00  -0.01  -0.01     0.03  -0.00  -0.03    -0.04  -0.00   0.04
   7  17    -0.00  -0.00  -0.00     0.00   0.00  -0.00    -0.00   0.00   0.00
   8   1    -0.01   0.01  -0.01     0.01  -0.02   0.01     0.00   0.00   0.00
   9   1     0.01  -0.02   0.03    -0.02   0.02  -0.03     0.01  -0.01   0.01
  10   1    -0.03   0.02   0.03     0.02  -0.03  -0.04     0.01   0.02   0.02
  11   1    -0.03  -0.01   0.00     0.02   0.00  -0.00     0.01   0.00   0.00
  12   1     0.42  -0.39  -0.10    -0.18   0.20   0.05    -0.09   0.11   0.03
  13   1     0.01  -0.09  -0.60     0.01   0.05   0.28     0.01   0.03   0.15
  14   1    -0.28  -0.00  -0.15    -0.39  -0.03  -0.24    -0.34  -0.01  -0.20
  15   1    -0.20  -0.16   0.18    -0.27  -0.26   0.24    -0.24  -0.20   0.22
  16   1     0.02   0.05   0.03     0.08   0.32   0.22    -0.07  -0.41  -0.29
  17   1    -0.02   0.05  -0.04    -0.15   0.32  -0.21     0.22  -0.40   0.26
  18   1    -0.00   0.00   0.02    -0.01  -0.02   0.10     0.01   0.02  -0.12
  19   1    -0.01   0.00   0.00    -0.09   0.01   0.02     0.12  -0.01  -0.02
                     40                     41                     42
                        a                      a                      a 
 Frequencies --  2894.0890              2896.4494              2913.3230
 Red. masses --     2.0027                 1.7862                 1.9469
 Frc consts  --     0.0000                 0.0000                 0.0000
 IR Inten    --  1812.8511                 4.0624                 2.9998
 Raman Activ --     0.0000                 0.0000                 0.0000
 Depolar     --     0.0000                 0.0000                 0.0000
 Atom AN      X      Y      Z        X      Y      Z        X      Y      Z
   1   7    -0.22  -0.05   0.16    -0.01  -0.00   0.00    -0.00  -0.00   0.00
   2   6    -0.01  -0.01  -0.00    -0.04   0.20  -0.16    -0.00   0.01  -0.01
   3   6     0.00  -0.00  -0.01     0.03  -0.03   0.03    -0.04   0.03  -0.05
   4   6     0.01   0.00  -0.00    -0.00   0.00  -0.01     0.03  -0.09   0.18
   5   6     0.00   0.01   0.01    -0.00  -0.00  -0.00    -0.09   0.00  -0.18
   6   6     0.00  -0.00   0.01     0.01  -0.00   0.03     0.02  -0.01   0.03
   7  17     0.01   0.00  -0.01     0.00  -0.00  -0.00     0.00   0.00  -0.00
   8   1     0.79   0.18  -0.50     0.02   0.00  -0.02     0.02   0.00  -0.01
   9   1    -0.00  -0.03  -0.01    -0.00  -0.00   0.00     0.00  -0.00  -0.00
  10   1    -0.02   0.02  -0.01    -0.01   0.02  -0.01     0.00   0.00  -0.00
  11   1    -0.00   0.02  -0.02     0.15  -0.73   0.58     0.01  -0.02   0.02
  12   1     0.01  -0.00   0.03    -0.02   0.00  -0.11     0.04  -0.01   0.17
  13   1    -0.01   0.01  -0.00    -0.10   0.10  -0.01     0.10  -0.11   0.01
  14   1    -0.01  -0.02   0.02    -0.01  -0.01   0.01     0.20   0.26  -0.35
  15   1    -0.01   0.00  -0.01     0.02  -0.00   0.02    -0.32   0.05  -0.29
  16   1     0.00  -0.00   0.00     0.00  -0.00   0.00     0.24  -0.29   0.33
  17   1    -0.01  -0.02  -0.03     0.01   0.01   0.01     0.11   0.26   0.30
  18   1    -0.01   0.00  -0.00    -0.03   0.01  -0.00    -0.07   0.02  -0.00
  19   1    -0.00   0.00  -0.02    -0.02   0.02  -0.09    -0.02   0.02  -0.11
                     43                     44                     45
                        a                      a                      a 
 Frequencies --  2923.0492              2933.3955              2942.8311
 Red. masses --     1.9799                 1.9228                 1.7035
 Frc consts  --     0.0000                 0.0000                 0.0000
 IR Inten    --     7.5718                22.4396                14.5891
 Raman Activ --     0.0000                 0.0000                 0.0000
 Depolar     --     0.0000                 0.0000                 0.0000
 Atom AN      X      Y      Z        X      Y      Z        X      Y      Z
   1   7     0.00  -0.00   0.00     0.00   0.00  -0.00    -0.01  -0.00   0.01
   2   6    -0.01   0.03  -0.02    -0.01   0.03  -0.02    -0.00   0.01  -0.01
   3   6    -0.08   0.06  -0.10    -0.14   0.13  -0.13     0.01  -0.01   0.03
   4   6     0.00  -0.07   0.14     0.04   0.08  -0.11     0.06  -0.00   0.03
   5   6     0.09   0.02   0.18    -0.01  -0.04  -0.04     0.01  -0.15  -0.03
   6   6    -0.03   0.01  -0.04     0.03  -0.01   0.05    -0.13   0.05  -0.12
   7  17    -0.00  -0.00  -0.00     0.00  -0.00   0.00     0.00   0.00  -0.00
   8   1    -0.00   0.00   0.00    -0.01  -0.00   0.00     0.03   0.01  -0.02
   9   1     0.00  -0.00  -0.00     0.00  -0.00  -0.00    -0.00  -0.00   0.00
  10   1    -0.00   0.00  -0.00     0.00   0.00  -0.00    -0.00   0.00  -0.00
  11   1     0.02  -0.10   0.08     0.02  -0.09   0.07     0.01  -0.03   0.02
  12   1     0.07  -0.01   0.33     0.07  -0.01   0.39    -0.02   0.01  -0.09
  13   1     0.21  -0.22   0.03     0.44  -0.46   0.07    -0.03   0.03  -0.00
  14   1     0.18   0.24  -0.33    -0.19  -0.27   0.37    -0.02  -0.05   0.07
  15   1    -0.19   0.02  -0.17     0.05   0.00   0.02    -0.19   0.04  -0.19
  16   1    -0.19   0.24  -0.28    -0.02   0.02  -0.04    -0.21   0.22  -0.32
  17   1    -0.13  -0.30  -0.35     0.06   0.13   0.16     0.17   0.32   0.43
  18   1     0.09  -0.02   0.00    -0.08   0.02  -0.00     0.40  -0.10   0.03
  19   1     0.02  -0.03   0.14    -0.03   0.03  -0.17     0.05  -0.07   0.38
                     46                     47                     48
                        a                      a                      a 
 Frequencies --  2947.9949              2950.4716              2954.5686
 Red. masses --     1.6430                 1.7869                 1.5171
 Frc consts  --     0.0000                 0.0000                 0.0000
 IR Inten    --    25.1085                47.2929                17.1069
 Raman Activ --     0.0000                 0.0000                 0.0000
 Depolar     --     0.0000                 0.0000                 0.0000
 Atom AN      X      Y      Z        X      Y      Z        X      Y      Z
   1   7    -0.00   0.00   0.00    -0.01  -0.00   0.01    -0.01  -0.00   0.01
   2   6     0.01  -0.01   0.01    -0.01   0.02  -0.02    -0.00   0.00   0.00
   3   6     0.01  -0.02  -0.03    -0.04   0.03  -0.06    -0.07   0.10   0.17
   4   6    -0.11  -0.04   0.00    -0.16  -0.01  -0.07    -0.04  -0.02   0.02
   5   6     0.03  -0.13   0.01    -0.05   0.03  -0.07     0.00  -0.01   0.01
   6   6     0.09  -0.04   0.12    -0.10   0.04  -0.12     0.03  -0.01  -0.01
   7  17     0.00  -0.00  -0.00     0.00   0.00  -0.00     0.00   0.00  -0.00
   8   1     0.01   0.00  -0.01     0.02   0.01  -0.02     0.03   0.01  -0.02
   9   1     0.00  -0.00  -0.00     0.00  -0.00  -0.00    -0.00  -0.01  -0.00
  10   1     0.00  -0.00   0.00     0.00   0.01  -0.00    -0.00   0.00  -0.00
  11   1    -0.01   0.05  -0.04     0.01  -0.06   0.05    -0.00   0.00   0.00
  12   1     0.03  -0.01   0.12     0.04  -0.01   0.21    -0.17   0.06  -0.71
  13   1    -0.08   0.08  -0.02     0.09  -0.09   0.01     0.40  -0.42   0.11
  14   1     0.13   0.20  -0.29     0.08   0.14  -0.21     0.07   0.11  -0.15
  15   1     0.26  -0.06   0.27     0.47  -0.10   0.47     0.07  -0.02   0.07
  16   1    -0.23   0.25  -0.34     0.13  -0.15   0.19    -0.02   0.03  -0.03
  17   1     0.11   0.21   0.30     0.02   0.05   0.06     0.01   0.01   0.02
  18   1    -0.26   0.07  -0.02     0.31  -0.08   0.02    -0.12   0.03  -0.02
  19   1    -0.06   0.07  -0.40     0.06  -0.07   0.39     0.01  -0.01   0.04
                     49                     50                     51
                        a                      a                      a 
 Frequencies --  2964.0082              3156.7871              3213.5594
 Red. masses --     1.5320                 1.7888                 1.7319
 Frc consts  --     0.0000                 0.0000                 0.0000
 IR Inten    --    10.4627                31.4214                26.1419
 Raman Activ --     0.0000                 0.0000                 0.0000
 Depolar     --     0.0000                 0.0000                 0.0000
 Atom AN      X      Y      Z        X      Y      Z        X      Y      Z
   1   7     0.00  -0.00  -0.00     0.05  -0.21  -0.12    -0.05   0.18  -0.15
   2   6    -0.00  -0.01   0.01    -0.00  -0.00  -0.00    -0.01   0.01  -0.01
   3   6    -0.01   0.01   0.02    -0.00   0.00   0.00     0.00   0.00   0.00
   4   6    -0.01  -0.00   0.01    -0.00  -0.00  -0.00    -0.00  -0.00   0.00
   5   6    -0.00   0.02   0.01     0.00  -0.00  -0.00    -0.00  -0.00  -0.00
   6   6    -0.16   0.02   0.14     0.00   0.00  -0.00    -0.00   0.00  -0.00
   7  17    -0.00  -0.00  -0.00    -0.00   0.00   0.00    -0.00  -0.00   0.00
   8   1    -0.00   0.00   0.00     0.04  -0.01  -0.03     0.03   0.02  -0.03
   9   1    -0.00   0.01   0.00    -0.21   0.78   0.53    -0.01   0.06   0.01
  10   1     0.00  -0.00   0.00    -0.00   0.02  -0.04     0.17  -0.76   0.58
  11   1    -0.01   0.03  -0.02    -0.00   0.00   0.00     0.00  -0.02   0.01
  12   1    -0.02   0.01  -0.10    -0.00  -0.00   0.00    -0.00  -0.00  -0.00
  13   1     0.04  -0.05   0.01     0.00  -0.00   0.00     0.00  -0.00  -0.00
  14   1     0.01   0.02  -0.03     0.00   0.00  -0.00     0.00   0.00  -0.00
  15   1     0.01  -0.00   0.01     0.00  -0.00   0.00     0.00   0.00   0.00
  16   1     0.02  -0.02   0.03    -0.00   0.00  -0.00     0.00   0.00   0.00
  17   1    -0.03  -0.05  -0.07     0.00   0.00   0.00     0.00   0.00   0.00
  18   1     0.71  -0.19   0.10    -0.01   0.00  -0.00     0.00  -0.00  -0.00
  19   1    -0.13   0.12  -0.59     0.00  -0.00   0.00     0.00  -0.00   0.00
