24
 energy: -25.767131116021 gnorm: 0.000208871620 xtb: 6.5.1 (fef0646)
N            2.21865690044026       -1.54536650952485        0.10182982774161
C            2.60265703833569       -0.11631280891294        0.01008047688736
C            3.12245552862228        0.24724276947800       -1.38239909210015
C            4.44209583432003       -0.46145904006065       -1.70334747277382
C            4.95740153957411       -0.04292202495541       -3.07939040801217
C            5.14978857917031        1.46875682642822       -3.14778617460520
C            3.83665381733485        2.17974333378645       -2.83422343455015
C            3.32132327430734        1.76428576175843       -1.45901104006658
H            1.82514730131241       -1.75342747515074        1.02632950453100
H            3.04026610047245       -2.14174829720271       -0.04702948444832
H            1.51929864035893       -1.76935947231040       -0.61560217190272
H            3.37452377486912        0.09394807443898        0.75048081648992
H            1.73131809109357        0.49805343634410        0.23655297445305
H            2.38044829795811       -0.03180950058727       -2.13712119240754
H            4.32035661046795       -1.54522152200191       -1.70828313762890
H            5.19114697915232       -0.19794751750919       -0.95410156946921
H            4.24389358858293       -0.34644236917407       -3.84921189583910
H            5.90380731667496       -0.54503746085779       -3.28993985911879
H            5.50265159216627        1.75673705000185       -4.14021608817645
H            5.91118718231604        1.77478413678780       -2.42632527203606
H            3.09794433642519        1.92644700865325       -3.59828552642751
H            3.98317300771560        3.26115084468756       -2.86392254418465
H            2.37937808975252        2.27714653774181       -1.25776894342754
H            4.04292657857674        2.07774821814145       -0.70211829292805
