 Entering Gaussian System
 *********************************************
 Gaussian 98:
 frequency output generated by the xtb code
 *********************************************
                         Standard orientation:
 --------------------------------------------------------------------
  Center     Atomic     Atomic              Coordinates (Angstroms)
  Number     Number      Type              X           Y           Z
 --------------------------------------------------------------------
    1          8             0        0.721680    1.371318    0.890775
    2          6             0        1.584926    1.262691   -0.222868
    3          6             0        1.321416    0.031001   -1.084605
    4          6             0        1.554562   -1.272729   -0.332853
    5          7             0        0.678516   -1.406242    0.862630
    6         17             0       -2.431891    0.013692   -0.158052
    7          1             0       -0.206902    1.217432    0.607829
    8          1             0        2.610437    1.243997    0.165379
    9          1             0        1.498969    2.185531   -0.811529
   10          1             0        1.946204    0.063306   -1.985777
   11          1             0        0.287055    0.061396   -1.442951
   12          1             0        2.604543   -1.340584   -0.024277
   13          1             0        1.389435   -2.126999   -1.001271
   14          1             0        0.918262   -0.683032    1.558648
   15          1             0        0.756702   -2.328432    1.312472
   16          1             0       -0.307864   -1.249787    0.600453
 --------------------------------------------------------------------
     1 basis functions        1 primitive gaussians
     1 alpha electrons        1 beta electrons

 Harmonic frequencies (cm**-1), IR intensities (km*mol⁻¹),
 Raman scattering activities (A**4/amu), Raman depolarization ratios,
 reduced masses (AMU), force constants (mDyne/A) and normal coordinates:
                      1                      2                      3
                        a                      a                      a 
 Frequencies --   -25.1371                40.8959                86.7430
 Red. masses --    21.3341                21.7420                14.6712
 Frc consts  --     0.0000                 0.0000                 0.0000
 IR Inten    --    88.4450                16.4504                15.3271
 Raman Activ --     0.0000                 0.0000                 0.0000
 Depolar     --     0.0000                 0.0000                 0.0000
 Atom AN      X      Y      Z        X      Y      Z        X      Y      Z
   1   8    -0.00  -0.15   0.04     0.56   0.16   0.13    -0.29   0.02  -0.29
   2   6    -0.07  -0.03  -0.02     0.35   0.03   0.01     0.18  -0.01   0.08
   3   6     0.02  -0.08   0.02     0.06   0.09   0.02     0.50  -0.00  -0.03
   4   6     0.31  -0.03   0.01    -0.10   0.04  -0.02     0.20  -0.02   0.04
   5   7     0.52  -0.14   0.14    -0.11   0.14  -0.01    -0.16  -0.01  -0.23
   6  17    -0.57   0.30  -0.14    -0.52  -0.34  -0.10    -0.29   0.02   0.32
   7   1    -0.01  -0.04   0.02     0.13   0.10   0.05    -0.04  -0.01  -0.16
   8   1    -0.01   0.03  -0.03     0.11  -0.04  -0.03     0.01  -0.01   0.14
   9   1    -0.06  -0.01  -0.01     0.12   0.02   0.01     0.13  -0.00   0.01
  10   1    -0.02   0.00  -0.02    -0.00  -0.00  -0.01     0.24  -0.00   0.06
  11   1    -0.01  -0.07   0.04     0.01   0.08   0.03     0.18   0.00  -0.12
  12   1     0.10   0.04  -0.03    -0.03  -0.03  -0.01     0.03  -0.02   0.10
  13   1     0.10  -0.02   0.02    -0.06   0.02  -0.01     0.11  -0.00  -0.01
  14   1     0.11  -0.00   0.01    -0.01   0.04  -0.01    -0.09  -0.02  -0.03
  15   1     0.22  -0.02   0.06    -0.04   0.04   0.01    -0.09  -0.01  -0.07
  16   1     0.12  -0.11   0.07    -0.03   0.04  -0.00    -0.02   0.02  -0.12
                      4                      5                      6
                        a                      a                      a 
 Frequencies --   152.7364               178.7106               263.7852
 Red. masses --     8.9887                10.2180                 3.3359
 Frc consts  --     0.0000                 0.0000                 0.0000
 IR Inten    --    20.4846                58.7545                 2.7993
 Raman Activ --     0.0000                 0.0000                 0.0000
 Depolar     --     0.0000                 0.0000                 0.0000
 Atom AN      X      Y      Z        X      Y      Z        X      Y      Z
   1   8     0.29  -0.37   0.16     0.10   0.51  -0.06    -0.02   0.19  -0.01
   2   6    -0.21   0.14  -0.25    -0.03   0.13  -0.10     0.10  -0.12   0.08
   3   6     0.07  -0.05  -0.06    -0.11  -0.03   0.16    -0.20  -0.04   0.06
   4   6     0.20   0.14   0.23     0.14  -0.02   0.11     0.13   0.01   0.01
   5   7    -0.29   0.04  -0.13    -0.08  -0.54  -0.09    -0.08  -0.09  -0.18
   6  17    -0.01   0.05   0.03    -0.01   0.02   0.00     0.05   0.02   0.03
   7   1     0.04  -0.07   0.11     0.02   0.07   0.02    -0.00   0.06  -0.03
   8   1    -0.01   0.20  -0.20     0.00   0.07  -0.05     0.01  -0.13   0.06
   9   1    -0.28   0.02  -0.07    -0.02  -0.00  -0.09     0.14  -0.02   0.03
  10   1     0.05  -0.03   0.00    -0.08  -0.01   0.01    -0.15   0.01  -0.05
  11   1     0.03  -0.09  -0.05    -0.05  -0.04   0.10    -0.10  -0.02   0.12
  12   1     0.03   0.16   0.20     0.03   0.07   0.09     0.02   0.11   0.07
  13   1     0.22  -0.00   0.08     0.15   0.01  -0.01     0.16  -0.03   0.01
  14   1    -0.19   0.05  -0.03     0.02  -0.33   0.14    -0.36   0.30  -0.25
  15   1    -0.07   0.03  -0.00    -0.12  -0.24  -0.20     0.31   0.14   0.23
  16   1    -0.06  -0.04  -0.14     0.00  -0.01  -0.04    -0.05  -0.45  -0.16
                      7                      8                      9
                        a                      a                      a 
 Frequencies --   337.3706               347.2824               516.7192
 Red. masses --     6.0028                10.3740                 7.0635
 Frc consts  --     0.0000                 0.0000                 0.0000
 IR Inten    --     3.7450                15.5351                12.0589
 Raman Activ --     0.0000                 0.0000                 0.0000
 Depolar     --     0.0000                 0.0000                 0.0000
 Atom AN      X      Y      Z        X      Y      Z        X      Y      Z
   1   8    -0.05  -0.20  -0.11     0.00  -0.34  -0.31     0.05   0.21   0.21
   2   6     0.16  -0.25   0.08     0.25   0.18  -0.09    -0.17  -0.30   0.02
   3   6    -0.31  -0.01  -0.06    -0.03   0.28  -0.05     0.02  -0.03  -0.46
   4   6     0.24   0.23   0.11    -0.23   0.30   0.14    -0.09   0.23   0.03
   5   7    -0.01   0.22  -0.08    -0.05  -0.31   0.28     0.01  -0.08   0.13
   6  17    -0.02  -0.01   0.00     0.02   0.00   0.00     0.01  -0.00  -0.00
   7   1    -0.00  -0.01  -0.07     0.03  -0.14  -0.15    -0.02   0.11   0.12
   8   1     0.02  -0.25   0.08     0.05  -0.00   0.01    -0.05  -0.25   0.02
   9   1     0.21  -0.01   0.09     0.11   0.10   0.04     0.10  -0.03   0.07
  10   1    -0.24   0.01  -0.12    -0.01  -0.03  -0.02     0.27   0.00   0.06
  11   1    -0.15  -0.02   0.16    -0.01   0.15  -0.01     0.11  -0.02  -0.41
  12   1     0.06   0.24   0.10    -0.06   0.11   0.03    -0.03   0.22   0.05
  13   1     0.23  -0.01   0.09    -0.04   0.10   0.02     0.11  -0.02   0.08
  14   1     0.10  -0.11   0.12    -0.09  -0.09   0.11    -0.02  -0.07   0.09
  15   1    -0.22  -0.03  -0.16     0.17  -0.10   0.00     0.11  -0.06  -0.05
  16   1     0.04   0.28  -0.05    -0.05  -0.23   0.13    -0.02  -0.08   0.09
                     10                     11                     12
                        a                      a                      a 
 Frequencies --   676.9295               845.4483               862.5010
 Red. masses --     2.0506                 3.6176                 8.3266
 Frc consts  --     0.0000                 0.0000                 0.0000
 IR Inten    --   215.8433                57.4703                 5.1784
 Raman Activ --     0.0000                 0.0000                 0.0000
 Depolar     --     0.0000                 0.0000                 0.0000
 Atom AN      X      Y      Z        X      Y      Z        X      Y      Z
   1   8    -0.01   0.23   0.03    -0.04  -0.01   0.02    -0.12   0.06   0.21
   2   6     0.05  -0.09   0.02     0.14   0.22   0.07     0.06   0.24  -0.06
   3   6    -0.01  -0.02  -0.01    -0.10   0.02  -0.07     0.16   0.06  -0.52
   4   6    -0.01   0.02  -0.02    -0.12  -0.29  -0.16     0.23  -0.19  -0.04
   5   7    -0.03   0.08  -0.03    -0.05  -0.13   0.02    -0.16  -0.09   0.27
   6  17    -0.02   0.01  -0.01     0.00  -0.00  -0.00    -0.00   0.00  -0.00
   7   1     0.11  -0.94   0.14     0.01  -0.01  -0.06    -0.03  -0.04   0.08
   8   1     0.03   0.00  -0.02     0.04   0.10   0.02    -0.01  -0.05   0.06
   9   1    -0.01  -0.04  -0.01    -0.00   0.06   0.03     0.10   0.17   0.15
  10   1     0.00   0.01   0.00     0.05  -0.02   0.03    -0.24   0.04  -0.34
  11   1     0.00   0.02  -0.01     0.01   0.12  -0.11    -0.07  -0.07   0.16
  12   1    -0.01   0.03   0.01    -0.07   0.33   0.19     0.05  -0.18  -0.01
  13   1     0.02  -0.01   0.01     0.43  -0.21   0.01    -0.06  -0.08   0.05
  14   1     0.02  -0.01   0.01     0.33   0.10  -0.25    -0.10  -0.00   0.07
  15   1     0.02   0.02  -0.02    -0.09   0.08   0.25    -0.13  -0.01   0.12
  16   1    -0.02  -0.02   0.01    -0.04   0.14   0.23    -0.01  -0.01  -0.04
                     13                     14                     15
                        a                      a                      a 
 Frequencies --   881.6242               956.3288               963.3827
 Red. masses --     4.5796                 4.0635                 8.2201
 Frc consts  --     0.0000                 0.0000                 0.0000
 IR Inten    --     9.4094                28.8940                17.7800
 Raman Activ --     0.0000                 0.0000                 0.0000
 Depolar     --     0.0000                 0.0000                 0.0000
 Atom AN      X      Y      Z        X      Y      Z        X      Y      Z
   1   8     0.13  -0.06  -0.11    -0.14   0.03   0.13    -0.13  -0.02   0.21
   2   6    -0.16   0.24  -0.09     0.31   0.03   0.10     0.12   0.37  -0.15
   3   6    -0.28   0.14   0.12    -0.17  -0.10  -0.13    -0.04  -0.27  -0.03
   4   6     0.14  -0.14   0.10    -0.10  -0.05   0.02    -0.22  -0.05   0.28
   5   7     0.09  -0.11   0.04     0.21   0.00   0.05     0.17   0.13  -0.35
   6  17    -0.00   0.00   0.00    -0.00  -0.00   0.01     0.00   0.00  -0.00
   7   1     0.03  -0.10   0.02     0.02   0.02  -0.14    -0.03  -0.02   0.04
   8   1    -0.05  -0.32   0.00     0.11   0.28  -0.06    -0.00  -0.12   0.05
   9   1     0.26   0.19   0.13    -0.20  -0.07  -0.05     0.20   0.20   0.12
  10   1     0.21   0.04   0.23     0.06  -0.18   0.03     0.00  -0.33  -0.01
  11   1     0.04  -0.07  -0.29     0.00   0.23  -0.14    -0.00  -0.12  -0.03
  12   1     0.07  -0.11  -0.12     0.06   0.20  -0.23    -0.06  -0.04   0.10
  13   1    -0.08   0.03  -0.03    -0.06  -0.15   0.19    -0.05  -0.03   0.09
  14   1    -0.07   0.08  -0.07    -0.28  -0.01   0.13     0.08  -0.05  -0.01
  15   1    -0.28   0.04   0.20    -0.20  -0.03  -0.02     0.23  -0.03  -0.25
  16   1     0.11   0.08  -0.26     0.16  -0.00  -0.40    -0.01  -0.04   0.06
                     16                     17                     18
                        a                      a                      a 
 Frequencies --  1025.5623              1072.2248              1101.9070
 Red. masses --     6.8713                 7.2683                 6.5666
 Frc consts  --     0.0000                 0.0000                 0.0000
 IR Inten    --    41.4714               125.5048                 1.4576
 Raman Activ --     0.0000                 0.0000                 0.0000
 Depolar     --     0.0000                 0.0000                 0.0000
 Atom AN      X      Y      Z        X      Y      Z        X      Y      Z
   1   8    -0.22   0.04   0.24    -0.20   0.01   0.22     0.02  -0.06   0.02
   2   6     0.18  -0.21  -0.30     0.31   0.06  -0.11    -0.06   0.16  -0.15
   3   6     0.10   0.02   0.02    -0.23  -0.12   0.11     0.11  -0.28   0.23
   4   6    -0.05   0.32   0.14     0.30   0.06  -0.26     0.05   0.16  -0.45
   5   7     0.06  -0.26  -0.06    -0.24   0.07   0.15    -0.12   0.05   0.22
   6  17    -0.00  -0.00  -0.00     0.00   0.00   0.00     0.00  -0.00  -0.00
   7   1    -0.06   0.01   0.09     0.05   0.01  -0.27    -0.08   0.00   0.27
   8   1     0.05  -0.02  -0.09     0.18  -0.05  -0.31    -0.14  -0.02   0.29
   9   1    -0.02  -0.05  -0.04    -0.08   0.04   0.05     0.21   0.01  -0.10
  10   1    -0.03  -0.25  -0.04     0.13   0.04   0.16     0.01  -0.33   0.04
  11   1     0.01   0.04   0.06     0.01  -0.25  -0.19     0.03   0.05   0.07
  12   1    -0.01  -0.06  -0.01     0.06  -0.10  -0.04     0.05   0.25  -0.19
  13   1    -0.07   0.28  -0.20    -0.01   0.08  -0.13     0.09   0.01  -0.09
  14   1     0.17   0.13  -0.27    -0.01  -0.04   0.08    -0.12  -0.01   0.11
  15   1    -0.23   0.07   0.30     0.12  -0.01  -0.06    -0.05  -0.01   0.00
  16   1     0.06   0.15  -0.05    -0.11  -0.04   0.19    -0.01  -0.02  -0.03
                     19                     20                     21
                        a                      a                      a 
 Frequencies --  1125.8271              1197.2484              1238.2193
 Red. masses --     8.4449                 5.0505                 3.0130
 Frc consts  --     0.0000                 0.0000                 0.0000
 IR Inten    --    24.3564                30.6137                16.2907
 Raman Activ --     0.0000                 0.0000                 0.0000
 Depolar     --     0.0000                 0.0000                 0.0000
 Atom AN      X      Y      Z        X      Y      Z        X      Y      Z
   1   8     0.20   0.03  -0.20     0.01   0.04   0.03     0.04   0.06  -0.06
   2   6    -0.11   0.16   0.52    -0.12   0.04   0.02    -0.21  -0.12   0.07
   3   6    -0.08  -0.32  -0.21     0.29  -0.11   0.12     0.04   0.20   0.03
   4   6     0.06   0.28   0.01    -0.36   0.07  -0.20     0.13  -0.17  -0.04
   5   7    -0.05  -0.11  -0.03     0.22   0.00   0.10    -0.04   0.10   0.04
   6  17    -0.00   0.00   0.00    -0.00   0.00   0.00     0.00  -0.00   0.00
   7   1     0.10  -0.04  -0.19     0.09  -0.03  -0.25     0.04   0.01  -0.12
   8   1    -0.01   0.17   0.10     0.08  -0.23  -0.29     0.05  -0.16  -0.25
   9   1    -0.11   0.04   0.11    -0.03   0.11   0.17    -0.16   0.14   0.29
  10   1    -0.02  -0.26  -0.06    -0.08   0.13  -0.07    -0.01  -0.59  -0.03
  11   1    -0.03  -0.25  -0.06     0.01  -0.33   0.17     0.01   0.41   0.04
  12   1     0.03  -0.07  -0.08    -0.15   0.16   0.16     0.01  -0.08   0.06
  13   1    -0.11   0.16  -0.08     0.16   0.01  -0.10     0.11   0.05  -0.15
  14   1     0.09   0.04  -0.11    -0.17   0.04   0.06    -0.02  -0.04   0.08
  15   1    -0.05   0.04   0.14    -0.18  -0.03   0.01     0.05  -0.00  -0.06
  16   1    -0.02   0.05   0.05     0.10  -0.01  -0.18    -0.02  -0.04   0.02
                     22                     23                     24
                        a                      a                      a 
 Frequencies --  1252.6584              1320.3925              1329.8756
 Red. masses --     2.6811                 3.0856                 3.5329
 Frc consts  --     0.0000                 0.0000                 0.0000
 IR Inten    --    11.5717                 3.4189                59.7663
 Raman Activ --     0.0000                 0.0000                 0.0000
 Depolar     --     0.0000                 0.0000                 0.0000
 Atom AN      X      Y      Z        X      Y      Z        X      Y      Z
   1   8     0.01  -0.02  -0.01     0.01  -0.04   0.17     0.06  -0.00   0.24
   2   6     0.11  -0.00   0.03    -0.14   0.11   0.08    -0.18   0.06  -0.09
   3   6    -0.21   0.02  -0.12     0.01   0.20   0.01     0.05  -0.11  -0.07
   4   6    -0.04  -0.08  -0.06     0.06   0.14  -0.18    -0.02  -0.16   0.22
   5   7     0.17   0.11   0.13     0.07  -0.05  -0.09    -0.06   0.05   0.04
   6  17     0.00   0.00   0.00    -0.00  -0.00   0.00    -0.00  -0.00   0.00
   7   1    -0.03   0.01   0.11     0.10  -0.04  -0.27     0.20  -0.06  -0.53
   8   1    -0.05   0.18   0.22    -0.02  -0.14  -0.05    -0.12  -0.03   0.15
   9   1     0.02  -0.09  -0.13     0.20  -0.27  -0.48     0.17  -0.10  -0.23
  10   1     0.02  -0.04   0.02    -0.02  -0.26  -0.02    -0.05   0.13  -0.06
  11   1    -0.02  -0.03  -0.13    -0.00  -0.02  -0.00     0.01   0.22   0.01
  12   1    -0.18  -0.29   0.50    -0.08  -0.20   0.24     0.09   0.15  -0.23
  13   1     0.22   0.24  -0.41    -0.08  -0.22   0.30     0.10   0.24  -0.32
  14   1    -0.16   0.02   0.10    -0.06  -0.05   0.05     0.05   0.02  -0.01
  15   1    -0.08  -0.05  -0.10    -0.08   0.05   0.13     0.06  -0.02  -0.07
  16   1     0.07  -0.06  -0.12    -0.01   0.00   0.09    -0.01  -0.01  -0.03
                     25                     26                     27
                        a                      a                      a 
 Frequencies --  1346.1040              1363.2838              1374.3617
 Red. masses --     3.6146                 4.7441                 1.9575
 Frc consts  --     0.0000                 0.0000                 0.0000
 IR Inten    --    26.7825                 2.1515               174.5019
 Raman Activ --     0.0000                 0.0000                 0.0000
 Depolar     --     0.0000                 0.0000                 0.0000
 Atom AN      X      Y      Z        X      Y      Z        X      Y      Z
   1   8    -0.09  -0.06  -0.11     0.01   0.01   0.02     0.02   0.02   0.01
   2   6     0.02   0.21   0.33     0.05  -0.14  -0.03    -0.03  -0.01   0.00
   3   6     0.05  -0.00  -0.09     0.02   0.50   0.01    -0.00   0.04   0.01
   4   6    -0.03  -0.10   0.12    -0.07  -0.22   0.08     0.05   0.05  -0.03
   5   7    -0.07   0.04   0.08    -0.04   0.05   0.01     0.01  -0.07   0.24
   6  17     0.00  -0.00  -0.00     0.00   0.00   0.00    -0.00  -0.00   0.00
   7   1    -0.15   0.04   0.35     0.02   0.00  -0.03     0.02  -0.03  -0.05
   8   1     0.21  -0.22  -0.45    -0.05   0.13   0.16    -0.01  -0.01   0.02
   9   1     0.12  -0.22  -0.37    -0.02  -0.06  -0.05     0.00  -0.01  -0.01
  10   1    -0.03  -0.03  -0.06    -0.02  -0.33  -0.03    -0.00  -0.06   0.00
  11   1     0.01  -0.01  -0.01    -0.01  -0.62  -0.04     0.00   0.01  -0.00
  12   1     0.05   0.08  -0.15     0.07   0.20  -0.23     0.01  -0.07  -0.00
  13   1     0.08   0.12  -0.18     0.06   0.01  -0.08    -0.02  -0.09   0.13
  14   1     0.09   0.02  -0.03     0.01  -0.01   0.02    -0.01   0.48  -0.46
  15   1     0.08  -0.03  -0.08     0.04  -0.01  -0.05    -0.13  -0.31  -0.57
  16   1     0.02  -0.02  -0.13    -0.01  -0.02  -0.02     0.00   0.01   0.04
                     28                     29                     30
                        a                      a                      a 
 Frequencies --  1406.1154              1433.0046              1481.1955
 Red. masses --     2.3446                 1.7113                 1.8579
 Frc consts  --     0.0000                 0.0000                 0.0000
 IR Inten    --   168.9358               131.4559                 9.9658
 Raman Activ --     0.0000                 0.0000                 0.0000
 Depolar     --     0.0000                 0.0000                 0.0000
 Atom AN      X      Y      Z        X      Y      Z        X      Y      Z
   1   8     0.01   0.01   0.02    -0.00  -0.00   0.02     0.00   0.00   0.00
   2   6    -0.01  -0.02  -0.03    -0.01  -0.02  -0.03     0.03   0.03  -0.02
   3   6     0.00   0.02   0.04    -0.01  -0.01   0.01    -0.03   0.00  -0.11
   4   6    -0.03   0.07  -0.09    -0.00   0.07  -0.04    -0.17   0.17   0.06
   5   7    -0.21  -0.11   0.17    -0.09   0.17   0.09    -0.01   0.01  -0.00
   6  17    -0.00  -0.00   0.00     0.00   0.00   0.00    -0.00  -0.00  -0.00
   7   1     0.03  -0.01  -0.07     0.02   0.03  -0.05     0.00  -0.00  -0.00
   8   1    -0.03   0.02   0.05    -0.01   0.03   0.02    -0.02  -0.09   0.06
   9   1    -0.01   0.01   0.03     0.02   0.02   0.03    -0.10  -0.02  -0.02
  10   1    -0.04  -0.02  -0.02     0.03  -0.00   0.02     0.24  -0.00   0.16
  11   1     0.01  -0.02  -0.04    -0.01  -0.01   0.03    -0.10  -0.02   0.29
  12   1    -0.05  -0.10   0.11    -0.02  -0.05   0.04     0.07  -0.47  -0.37
  13   1     0.03  -0.08   0.08    -0.02  -0.05   0.08     0.58  -0.15   0.05
  14   1     0.22  -0.02  -0.06     0.59  -0.14  -0.04    -0.03  -0.01   0.03
  15   1     0.56   0.02   0.00    -0.22  -0.01  -0.02     0.00   0.01   0.02
  16   1     0.19   0.39  -0.54    -0.01  -0.62  -0.34    -0.01   0.01   0.03
                     31                     32                     33
                        a                      a                      a 
 Frequencies --  1486.1054              1500.9958              2883.6926
 Red. masses --     1.9495                 1.8659                 1.8683
 Frc consts  --     0.0000                 0.0000                 0.0000
 IR Inten    --     6.6474                 1.3173                98.8489
 Raman Activ --     0.0000                 0.0000                 0.0000
 Depolar     --     0.0000                 0.0000                 0.0000
 Atom AN      X      Y      Z        X      Y      Z        X      Y      Z
   1   8     0.01   0.00  -0.02    -0.02  -0.01   0.03     0.01   0.00  -0.02
   2   6     0.06   0.04  -0.01    -0.18  -0.18   0.02    -0.12   0.20  -0.15
   3   6     0.06  -0.02   0.25     0.01  -0.01   0.06    -0.00   0.01   0.00
   4   6    -0.06   0.09   0.04    -0.04   0.06   0.00     0.01   0.00   0.01
   5   7     0.01   0.02  -0.02     0.01  -0.00  -0.01    -0.00  -0.00  -0.00
   6  17     0.00   0.00  -0.00     0.00  -0.00  -0.00     0.00  -0.00   0.00
   7   1    -0.01   0.01   0.02    -0.01   0.00   0.00     0.00  -0.00   0.00
   8   1    -0.03  -0.15   0.09     0.12   0.56  -0.30     0.32   0.02   0.11
   9   1    -0.19  -0.03  -0.00     0.62   0.14   0.11     0.08  -0.75   0.48
  10   1    -0.48   0.04  -0.32    -0.10   0.00  -0.06     0.02   0.00  -0.02
  11   1     0.21   0.02  -0.57     0.04   0.01  -0.12    -0.03  -0.00  -0.01
  12   1     0.03  -0.21  -0.16     0.02  -0.14  -0.09    -0.01  -0.00  -0.00
  13   1     0.24  -0.07   0.04     0.16  -0.05   0.03    -0.00  -0.01  -0.01
  14   1     0.00  -0.02   0.02    -0.04   0.00   0.01    -0.00  -0.00   0.00
  15   1    -0.05   0.01   0.02    -0.01   0.00   0.01    -0.00   0.00   0.00
  16   1    -0.02  -0.06   0.04    -0.01   0.01   0.03     0.00  -0.00   0.00
                     34                     35                     36
                        a                      a                      a 
 Frequencies --  2935.0590              2943.2455              2944.5888
 Red. masses --     1.6214                 1.8591                 1.9114
 Frc consts  --     0.0000                 0.0000                 0.0000
 IR Inten    --    35.3338                33.6732                28.7731
 Raman Activ --     0.0000                 0.0000                 0.0000
 Depolar     --     0.0000                 0.0000                 0.0000
 Atom AN      X      Y      Z        X      Y      Z        X      Y      Z
   1   8    -0.01  -0.00   0.01     0.00   0.00   0.01     0.00   0.00   0.00
   2   6    -0.18  -0.06  -0.04    -0.09  -0.04  -0.02    -0.04  -0.01  -0.01
   3   6     0.12   0.00  -0.07    -0.17  -0.00   0.12    -0.09  -0.01   0.09
   4   6    -0.01  -0.00  -0.01     0.11   0.06   0.09    -0.16  -0.13  -0.14
   5   7    -0.00   0.00   0.00     0.00  -0.00  -0.00     0.00   0.00   0.00
   6  17    -0.00  -0.00   0.00    -0.00  -0.00  -0.00    -0.00   0.00   0.00
   7   1    -0.02   0.00  -0.01    -0.02  -0.00  -0.01    -0.01  -0.00  -0.00
   8   1     0.74  -0.04   0.30     0.36  -0.02   0.14     0.17  -0.01   0.07
   9   1    -0.06   0.25  -0.18    -0.03   0.14  -0.10    -0.01   0.05  -0.04
  10   1    -0.23  -0.01   0.33     0.37   0.02  -0.53     0.27   0.01  -0.38
  11   1    -0.21   0.01  -0.09     0.26  -0.01   0.11     0.03  -0.00   0.03
  12   1     0.06  -0.00   0.02    -0.37   0.03  -0.11     0.46  -0.04   0.13
  13   1    -0.00   0.00   0.00    -0.04  -0.25  -0.19     0.10   0.51   0.40
  14   1    -0.00  -0.00  -0.00     0.00   0.01   0.01    -0.00  -0.01  -0.02
  15   1     0.00  -0.00   0.00     0.00  -0.00   0.00     0.00  -0.00   0.00
  16   1    -0.00   0.00   0.00     0.00   0.00  -0.00    -0.02   0.00  -0.01
                     37                     38                     39
                        a                      a                      a 
 Frequencies --  2972.1660              2979.2638              3164.3332
 Red. masses --     1.5087                 1.6273                 2.0472
 Frc consts  --     0.0000                 0.0000                 0.0000
 IR Inten    --    19.7818                43.6596               313.9820
 Raman Activ --     0.0000                 0.0000                 0.0000
 Depolar     --     0.0000                 0.0000                 0.0000
 Atom AN      X      Y      Z        X      Y      Z        X      Y      Z
   1   8     0.00   0.00   0.00    -0.00  -0.00  -0.00    -0.00  -0.00  -0.00
   2   6     0.00  -0.00   0.00     0.02  -0.00   0.01     0.00   0.00  -0.00
   3   6     0.02   0.00   0.06     0.17  -0.01   0.14     0.00   0.00  -0.00
   4   6    -0.14   0.14   0.05     0.07  -0.02   0.01     0.01   0.00   0.00
   5   7     0.00  -0.00   0.00    -0.00   0.00  -0.00     0.23   0.06   0.15
   6  17    -0.00   0.00  -0.00     0.00  -0.00  -0.00    -0.00   0.00  -0.00
   7   1    -0.00  -0.00  -0.00     0.00   0.00   0.00     0.01   0.00   0.00
   8   1    -0.01   0.00  -0.01    -0.08   0.00  -0.03    -0.00   0.00  -0.00
   9   1    -0.00   0.01  -0.00     0.00   0.01  -0.01    -0.00  -0.00   0.00
  10   1     0.12   0.01  -0.15     0.21   0.01  -0.24    -0.00  -0.00   0.00
  11   1    -0.19   0.01  -0.06    -0.83   0.03  -0.26    -0.01   0.00  -0.00
  12   1     0.65  -0.01   0.21    -0.26   0.01  -0.08    -0.03   0.00  -0.01
  13   1    -0.13  -0.48  -0.39     0.02   0.05   0.05    -0.00  -0.01  -0.01
  14   1     0.01   0.02   0.02    -0.00  -0.00  -0.00    -0.12  -0.38  -0.36
  15   1    -0.00  -0.00   0.00     0.00  -0.01   0.00     0.02   0.04  -0.00
  16   1    -0.03   0.00  -0.01     0.01  -0.00   0.01    -0.76   0.12  -0.21
                     40                     41                     42
                        a                      a                      a 
 Frequencies --  3196.4633              3236.2364              3266.3014
 Red. masses --     1.7589                 1.6072                 1.8804
 Frc consts  --     0.0000                 0.0000                 0.0000
 IR Inten    --   248.2187                91.2227               183.9541
 Raman Activ --     0.0000                 0.0000                 0.0000
 Depolar     --     0.0000                 0.0000                 0.0000
 Atom AN      X      Y      Z        X      Y      Z        X      Y      Z
   1   8    -0.00   0.00  -0.00     0.00   0.00   0.00    -0.23  -0.04  -0.07
   2   6    -0.00   0.00   0.00    -0.00  -0.00   0.00    -0.01  -0.00   0.00
   3   6     0.00  -0.00  -0.00     0.00   0.00   0.00    -0.00  -0.00   0.00
   4   6     0.01  -0.01  -0.01    -0.00  -0.00   0.00    -0.00   0.00  -0.00
   5   7     0.08  -0.21  -0.07    -0.01  -0.18   0.12    -0.00   0.00  -0.00
   6  17    -0.00   0.00  -0.00    -0.00  -0.00  -0.00     0.00   0.00   0.00
   7   1     0.01   0.00   0.00    -0.00  -0.00   0.00     0.92   0.14   0.28
   8   1     0.00   0.00   0.00     0.00  -0.00   0.00     0.02  -0.00   0.01
   9   1     0.00   0.00  -0.00    -0.00   0.00  -0.00    -0.00   0.01  -0.01
  10   1    -0.00  -0.00   0.01     0.00   0.00  -0.01     0.00  -0.00  -0.01
  11   1    -0.00   0.00  -0.00    -0.00   0.00  -0.00     0.00   0.00   0.00
  12   1    -0.02   0.00  -0.01     0.01   0.00   0.00     0.00  -0.00   0.00
  13   1     0.00   0.02   0.02    -0.00  -0.00  -0.01     0.00  -0.00  -0.00
  14   1     0.21   0.54   0.53    -0.05  -0.15  -0.11    -0.01   0.00  -0.00
  15   1    -0.02   0.20  -0.10    -0.08   0.85  -0.40    -0.00  -0.00   0.00
  16   1    -0.50   0.06  -0.15     0.16  -0.04   0.05     0.02  -0.00   0.01
