 Entering Gaussian System
 *********************************************
 Gaussian 98:
 frequency output generated by the xtb code
 *********************************************
                         Standard orientation:
 --------------------------------------------------------------------
  Center     Atomic     Atomic              Coordinates (Angstroms)
  Number     Number      Type              X           Y           Z
 --------------------------------------------------------------------
    1          7             0       -2.493147    0.838453   -0.215843
    2          6             0       -1.985721   -0.439549    0.367408
    3          6             0       -0.623485   -0.858327   -0.181406
    4          6             0        0.516381    0.077768    0.225298
    5          6             0        1.885757   -0.383660   -0.282196
    6          6             0        3.016914    0.552394    0.121999
    7          1             0       -1.875702    1.623290    0.015624
    8          1             0       -3.428034    1.064248    0.139580
    9          1             0       -2.549931    0.772431   -1.237033
   10          1             0       -2.724056   -1.228006    0.176392
   11          1             0       -1.930877   -0.342997    1.457537
   12          1             0       -0.674509   -0.917399   -1.273566
   13          1             0       -0.385149   -1.875258    0.152115
   14          1             0        0.543466    0.169349    1.316698
   15          1             0        0.317025    1.088528   -0.144643
   16          1             0        1.852673   -0.480732   -1.374136
   17          1             0        2.087363   -1.395631    0.089465
   18          1             0        2.856107    1.557215   -0.270423
   19          1             0        3.983741    0.206099   -0.247194
   20          1             0        3.090448    0.635976    1.206948
 --------------------------------------------------------------------
     1 basis functions        1 primitive gaussians
     1 alpha electrons        1 beta electrons

 Harmonic frequencies (cm**-1), IR intensities (km*mol⁻¹),
 Raman scattering activities (A**4/amu), Raman depolarization ratios,
 reduced masses (AMU), force constants (mDyne/A) and normal coordinates:
                      1                      2                      3
                        a                      a                      a 
 Frequencies --    98.4272               104.0097               136.9252
 Red. masses --     5.8963                 8.0470                 6.2061
 Frc consts  --     0.0000                 0.0000                 0.0000
 IR Inten    --     8.4231                 7.2638                 6.2880
 Raman Activ --     0.0000                 0.0000                 0.0000
 Depolar     --     0.0000                 0.0000                 0.0000
 Atom AN      X      Y      Z        X      Y      Z        X      Y      Z
   1   7     0.19   0.16   0.26     0.25   0.13  -0.16     0.31   0.06  -0.01
   2   6    -0.04  -0.12  -0.16    -0.08   0.02  -0.11    -0.03  -0.04   0.07
   3   6    -0.01  -0.07  -0.12    -0.02  -0.12   0.13    -0.02  -0.23   0.25
   4   6    -0.07   0.01  -0.15     0.01  -0.31   0.48    -0.10   0.08  -0.24
   5   6     0.03  -0.19   0.30    -0.06   0.03  -0.03    -0.10   0.16  -0.27
   6   6    -0.11   0.18  -0.15    -0.12   0.20  -0.26    -0.10  -0.04   0.18
   7   1    -0.01   0.02   0.29     0.07   0.01   0.04    -0.02   0.03   0.24
   8   1    -0.01  -0.04  -0.04     0.04   0.05  -0.12    -0.02  -0.06  -0.23
   9   1     0.21   0.20   0.05     0.16   0.07  -0.05     0.36   0.10  -0.02
  10   1    -0.03   0.00  -0.16    -0.04   0.04  -0.09    -0.03   0.02  -0.02
  11   1    -0.05  -0.15  -0.03    -0.09  -0.02  -0.03    -0.06  -0.02   0.02
  12   1     0.00  -0.04  -0.03     0.06   0.02   0.03    -0.01  -0.22   0.08
  13   1     0.01  -0.01  -0.02    -0.06  -0.06   0.01     0.02  -0.01   0.21
  14   1    -0.09   0.10  -0.05     0.05  -0.25   0.15     0.01   0.13  -0.08
  15   1     0.01  -0.03  -0.15    -0.02  -0.03   0.30    -0.09  -0.02  -0.16
  16   1     0.05  -0.25   0.10    -0.12   0.06  -0.01     0.00   0.14  -0.09
  17   1     0.02   0.02   0.27     0.07   0.00  -0.08    -0.05   0.01  -0.16
  18   1    -0.04  -0.03  -0.25    -0.12   0.06  -0.03    -0.02   0.04   0.18
  19   1    -0.01   0.00   0.07    -0.05   0.12  -0.17    -0.03   0.04   0.01
  20   1    -0.08   0.27  -0.06     0.05   0.03  -0.08    -0.04  -0.16   0.06
                      4                      5                      6
                        a                      a                      a 
 Frequencies --   154.9921               232.0409               249.8371
 Red. masses --     5.6256                 6.3706                 2.0295
 Frc consts  --     0.0000                 0.0000                 0.0000
 IR Inten    --     8.4027                 4.2498                 0.5093
 Raman Activ --     0.0000                 0.0000                 0.0000
 Depolar     --     0.0000                 0.0000                 0.0000
 Atom AN      X      Y      Z        X      Y      Z        X      Y      Z
   1   7     0.29   0.12   0.05    -0.18   0.02  -0.05     0.06  -0.03  -0.01
   2   6     0.07   0.05   0.08     0.13   0.26   0.24    -0.00  -0.03   0.03
   3   6    -0.08  -0.22  -0.08    -0.09   0.00  -0.16     0.00  -0.01   0.04
   4   6    -0.07  -0.20  -0.20     0.14  -0.32  -0.11    -0.01  -0.01   0.10
   5   6     0.03  -0.04  -0.05     0.20  -0.17  -0.09    -0.07   0.15  -0.20
   6   6    -0.26   0.22   0.16    -0.15   0.16   0.13     0.01  -0.05   0.04
   7   1     0.31  -0.06  -0.29    -0.25   0.12   0.14     0.03  -0.02  -0.01
   8   1     0.23   0.27   0.28    -0.17  -0.17  -0.22     0.02   0.01  -0.01
   9   1    -0.26  -0.09   0.04     0.19   0.01  -0.03     0.02  -0.02  -0.00
  10   1    -0.04   0.06   0.09     0.02   0.05   0.23    -0.00  -0.01   0.00
  11   1     0.09   0.04   0.02     0.16   0.18   0.05    -0.01  -0.01   0.01
  12   1    -0.06  -0.09  -0.02    -0.10   0.07  -0.05     0.00   0.02   0.01
  13   1    -0.04  -0.06  -0.00    -0.07  -0.04  -0.12     0.01  -0.01  -0.00
  14   1    -0.03  -0.03  -0.06     0.04  -0.15  -0.03     0.04  -0.09   0.03
  15   1    -0.03  -0.07  -0.08     0.06  -0.06   0.03    -0.04   0.02   0.12
  16   1     0.06  -0.01  -0.02     0.09  -0.04  -0.03    -0.04   0.14  -0.06
  17   1     0.04   0.00  -0.01     0.11  -0.04  -0.03    -0.03   0.01  -0.15
  18   1    -0.12   0.05   0.04    -0.10   0.02   0.00     0.32  -0.12  -0.39
  19   1    -0.03   0.13   0.10     0.02   0.12   0.12     0.07  -0.31   0.47
  20   1    -0.14   0.06   0.05    -0.14   0.08   0.04    -0.36   0.34   0.01
                      7                      8                      9
                        a                      a                      a 
 Frequencies --   313.1319               398.8420               457.9381
 Red. masses --     8.2961                 8.7515                 7.9681
 Frc consts  --     0.0000                 0.0000                 0.0000
 IR Inten    --    16.0487                 0.1099                 9.0083
 Raman Activ --     0.0000                 0.0000                 0.0000
 Depolar     --     0.0000                 0.0000                 0.0000
 Atom AN      X      Y      Z        X      Y      Z        X      Y      Z
   1   7    -0.38   0.21   0.08     0.02   0.03  -0.01     0.13  -0.15  -0.05
   2   6    -0.21   0.06  -0.25    -0.15   0.01   0.12    -0.43  -0.18   0.19
   3   6     0.02  -0.17   0.27    -0.29  -0.25  -0.16    -0.26   0.33   0.11
   4   6     0.20  -0.19  -0.07    -0.24  -0.18  -0.08     0.19   0.03  -0.09
   5   6     0.29  -0.03  -0.13     0.12   0.31   0.18     0.23  -0.12  -0.11
   6   6     0.15   0.11   0.04     0.49   0.09  -0.02     0.07   0.07   0.03
   7   1    -0.09   0.05   0.01     0.02  -0.01   0.01     0.17  -0.14  -0.02
   8   1    -0.07   0.02   0.14    -0.01   0.04  -0.05     0.04   0.17  -0.12
   9   1    -0.22   0.13   0.02     0.05  -0.01  -0.00     0.12  -0.11  -0.01
  10   1    -0.03   0.02  -0.19    -0.10   0.04   0.12    -0.08  -0.06  -0.09
  11   1    -0.17  -0.06  -0.06     0.04   0.05   0.03    -0.26  -0.12   0.07
  12   1     0.08  -0.22   0.08    -0.14  -0.04  -0.04    -0.16   0.22   0.03
  13   1    -0.07  -0.01   0.26    -0.10  -0.08  -0.07    -0.03   0.06  -0.12
  14   1     0.10   0.00  -0.02    -0.13  -0.07  -0.02     0.10   0.02  -0.03
  15   1     0.03  -0.07  -0.06    -0.12  -0.06  -0.01     0.13   0.02  -0.02
  16   1     0.10   0.03  -0.04     0.06   0.08   0.05     0.09  -0.04  -0.03
  17   1     0.12  -0.01  -0.07     0.05   0.09   0.05     0.08  -0.02  -0.02
  18   1     0.04   0.02  -0.01     0.24   0.04  -0.02    -0.03   0.02   0.02
  19   1     0.07   0.05   0.07     0.07  -0.11  -0.08     0.06   0.09   0.04
  20   1    -0.02   0.05   0.01     0.25   0.04  -0.02    -0.02   0.01   0.01
                     10                     11                     12
                        a                      a                      a 
 Frequencies --   765.2251               803.2442               828.6178
 Red. masses --     1.9547                 2.5560                 2.8855
 Frc consts  --     0.0000                 0.0000                 0.0000
 IR Inten    --    22.0223                30.2616                28.2744
 Raman Activ --     0.0000                 0.0000                 0.0000
 Depolar     --     0.0000                 0.0000                 0.0000
 Atom AN      X      Y      Z        X      Y      Z        X      Y      Z
   1   7     0.00   0.06  -0.04    -0.07  -0.10  -0.01    -0.10   0.05  -0.13
   2   6     0.05   0.01   0.03    -0.14  -0.08  -0.12    -0.11  -0.14  -0.05
   3   6     0.05  -0.09   0.10    -0.05   0.09  -0.14     0.08  -0.17   0.10
   4   6     0.02  -0.12   0.15     0.04   0.10   0.06     0.06   0.04   0.14
   5   6     0.00  -0.05   0.12     0.06  -0.13   0.12    -0.00   0.07  -0.15
   6   6    -0.01  -0.01   0.00     0.02  -0.02   0.04    -0.01   0.02  -0.06
   7   1    -0.06   0.08  -0.05     0.19  -0.25   0.21     0.12  -0.17   0.21
   8   1    -0.01  -0.05   0.01     0.03   0.15   0.01     0.03   0.09   0.07
   9   1    -0.04  -0.02  -0.01     0.04   0.22  -0.02    -0.06   0.35  -0.05
  10   1     0.01   0.03  -0.08    -0.06  -0.08   0.33    -0.06  -0.08   0.28
  11   1    -0.07  -0.04   0.02     0.23   0.22  -0.06     0.11   0.25  -0.04
  12   1     0.01   0.31   0.01     0.09  -0.22  -0.03     0.06   0.24   0.01
  13   1    -0.05  -0.14  -0.29     0.00   0.11   0.20     0.02  -0.13  -0.23
  14   1    -0.09   0.43   0.00    -0.09   0.03   0.02     0.13   0.17   0.02
  15   1    -0.00  -0.20  -0.42     0.17   0.04  -0.02    -0.10  -0.06  -0.10
  16   1    -0.12   0.33   0.00    -0.03   0.29   0.00    -0.04  -0.26  -0.01
  17   1     0.06  -0.12  -0.31    -0.01  -0.15  -0.27     0.05   0.12   0.21
  18   1    -0.07  -0.05  -0.09    -0.16  -0.08  -0.12     0.13   0.08   0.13
  19   1    -0.01   0.01  -0.04     0.01   0.08  -0.05     0.03  -0.02   0.09
  20   1     0.07   0.11  -0.01     0.10   0.16  -0.01    -0.15  -0.18   0.01
                     13                     14                     15
                        a                      a                      a 
 Frequencies --   890.9113               914.3136               929.7923
 Red. masses --     6.7465                 4.1216                 5.8120
 Frc consts  --     0.0000                 0.0000                 0.0000
 IR Inten    --    36.2057                 2.8796                19.4092
 Raman Activ --     0.0000                 0.0000                 0.0000
 Depolar     --     0.0000                 0.0000                 0.0000
 Atom AN      X      Y      Z        X      Y      Z        X      Y      Z
   1   7    -0.29   0.33   0.06    -0.04   0.16  -0.20    -0.12  -0.08   0.01
   2   6    -0.11  -0.19   0.19     0.02  -0.15   0.16     0.06   0.09   0.01
   3   6     0.29  -0.23  -0.18     0.13  -0.14   0.15     0.11   0.17   0.04
   4   6     0.09   0.10   0.04     0.01   0.08  -0.24     0.20  -0.32  -0.18
   5   6     0.01   0.02   0.02    -0.02   0.03   0.07    -0.13   0.21   0.15
   6   6    -0.04  -0.05  -0.02    -0.04  -0.08   0.12    -0.31   0.03   0.04
   7   1     0.06   0.02  -0.14    -0.02   0.02   0.07     0.14  -0.18   0.09
   8   1    -0.12   0.42  -0.31     0.03  -0.05   0.10    -0.01   0.19  -0.06
   9   1     0.18  -0.27   0.02    -0.12   0.27  -0.06     0.07   0.04  -0.01
  10   1    -0.09   0.01   0.04     0.04  -0.06  -0.01     0.15  -0.09  -0.06
  11   1     0.05  -0.15   0.05    -0.17   0.07   0.04    -0.07   0.02   0.01
  12   1     0.12  -0.06  -0.05    -0.18   0.13   0.04     0.00  -0.01   0.01
  13   1     0.16  -0.05  -0.05     0.20  -0.07  -0.18    -0.05   0.04   0.05
  14   1    -0.00   0.01   0.01     0.14  -0.23  -0.04     0.05  -0.04  -0.05
  15   1    -0.01   0.02   0.02    -0.10   0.09   0.20     0.11  -0.09  -0.10
  16   1    -0.02   0.01   0.01     0.24   0.10   0.00     0.04   0.06   0.04
  17   1    -0.03  -0.00   0.00    -0.23  -0.05  -0.02     0.13   0.09   0.04
  18   1    -0.04  -0.02  -0.01    -0.19  -0.12  -0.17     0.24   0.05  -0.01
  19   1     0.00   0.02   0.00    -0.07   0.00  -0.13    -0.29  -0.38  -0.17
  20   1    -0.03  -0.00  -0.00     0.21   0.22  -0.01     0.17  -0.03  -0.01
                     16                     17                     18
                        a                      a                      a 
 Frequencies --   990.5328               995.3558              1056.9038
 Red. masses --     4.4498                 5.3560                 8.6297
 Frc consts  --     0.0000                 0.0000                 0.0000
 IR Inten    --     6.3394                13.9299                15.1414
 Raman Activ --     0.0000                 0.0000                 0.0000
 Depolar     --     0.0000                 0.0000                 0.0000
 Atom AN      X      Y      Z        X      Y      Z        X      Y      Z
   1   7    -0.09   0.18  -0.21    -0.20  -0.14   0.06     0.02  -0.27   0.08
   2   6     0.19  -0.19   0.26     0.24   0.24  -0.05    -0.21   0.45   0.04
   3   6     0.05   0.10  -0.04     0.09   0.09   0.11     0.16  -0.29  -0.15
   4   6    -0.14  -0.07  -0.01    -0.29  -0.12  -0.04     0.20   0.14  -0.01
   5   6    -0.00  -0.10   0.07    -0.06  -0.07  -0.09     0.12   0.20   0.17
   6   6     0.09   0.07  -0.12     0.23  -0.00   0.03    -0.10  -0.19  -0.15
   7   1     0.01  -0.02   0.05     0.21  -0.26   0.11     0.06  -0.13   0.09
   8   1     0.01   0.03   0.05    -0.02   0.30  -0.11     0.03  -0.03   0.05
   9   1    -0.08   0.23  -0.06     0.13   0.00   0.00     0.01   0.02   0.01
  10   1     0.17  -0.12  -0.10     0.28  -0.10  -0.15    -0.01   0.10  -0.11
  11   1    -0.19  -0.02   0.08    -0.09  -0.01  -0.00    -0.29   0.11   0.02
  12   1    -0.25  -0.14   0.01     0.04   0.10   0.02    -0.14  -0.06  -0.04
  13   1     0.22   0.10   0.07    -0.14  -0.03  -0.02     0.08  -0.08  -0.10
  14   1    -0.35  -0.08   0.01    -0.03  -0.03  -0.01    -0.12  -0.05   0.01
  15   1     0.18   0.02  -0.02    -0.26  -0.07  -0.01     0.05   0.05   0.04
  16   1    -0.26   0.03   0.02     0.04  -0.06  -0.02    -0.10   0.08   0.05
  17   1     0.20  -0.03  -0.09    -0.18  -0.03   0.02     0.01   0.04   0.00
  18   1     0.11   0.09   0.12    -0.14  -0.04  -0.02    -0.12  -0.04   0.01
  19   1     0.09   0.05   0.12     0.16   0.22   0.06     0.05   0.07   0.06
  20   1    -0.17  -0.15  -0.00    -0.02   0.08   0.01    -0.19  -0.10  -0.02
                     19                     20                     21
                        a                      a                      a 
 Frequencies --  1094.8544              1112.2346              1135.2834
 Red. masses --     8.5540                 7.4368                 8.1375
 Frc consts  --     0.0000                 0.0000                 0.0000
 IR Inten    --     3.9158                 1.0463                11.3744
 Raman Activ --     0.0000                 0.0000                 0.0000
 Depolar     --     0.0000                 0.0000                 0.0000
 Atom AN      X      Y      Z        X      Y      Z        X      Y      Z
   1   7    -0.05   0.11  -0.08     0.05  -0.03   0.06     0.11   0.06  -0.01
   2   6     0.25  -0.21   0.02    -0.17   0.07  -0.04    -0.26  -0.11   0.05
   3   6    -0.29   0.07   0.01     0.25   0.14   0.10     0.25   0.30   0.01
   4   6     0.05   0.03   0.09    -0.49  -0.04   0.01     0.08  -0.41  -0.20
   5   6     0.36   0.36   0.10     0.40  -0.05  -0.07    -0.19   0.27   0.15
   6   6    -0.20  -0.35  -0.15    -0.18  -0.10  -0.05     0.14  -0.14  -0.08
   7   1     0.01   0.01  -0.01    -0.02   0.03  -0.01    -0.07   0.10  -0.03
   8   1    -0.00   0.05  -0.02     0.00  -0.03   0.00     0.01  -0.11   0.03
   9   1    -0.00   0.05  -0.02    -0.00  -0.05   0.02    -0.06  -0.02   0.01
  10   1     0.11  -0.08  -0.03    -0.06   0.01   0.07    -0.08  -0.04   0.13
  11   1     0.11  -0.11   0.01    -0.02   0.10  -0.02     0.02   0.06   0.00
  12   1    -0.07  -0.05   0.01     0.19   0.11   0.02     0.22   0.02   0.00
  13   1    -0.26  -0.00   0.07     0.26   0.07  -0.01     0.05   0.09   0.08
  14   1     0.00   0.08   0.02    -0.23  -0.05   0.01    -0.02  -0.07  -0.06
  15   1    -0.13  -0.03  -0.01    -0.17  -0.01   0.03    -0.08  -0.14  -0.09
  16   1     0.16   0.07   0.03     0.26   0.03  -0.03    -0.11   0.02   0.05
  17   1     0.07   0.11   0.07     0.30   0.02  -0.04    -0.16   0.06   0.07
  18   1    -0.23  -0.12  -0.05     0.02  -0.02  -0.02    -0.19  -0.06   0.01
  19   1     0.01   0.05   0.01    -0.09  -0.11  -0.05     0.15   0.19   0.08
  20   1    -0.18  -0.07  -0.03     0.00  -0.05  -0.02    -0.16  -0.00  -0.01
                     22                     23                     24
                        a                      a                      a 
 Frequencies --  1163.1555              1214.8362              1245.7342
 Red. masses --     7.0436                 4.6378                 2.9055
 Frc consts  --     0.0000                 0.0000                 0.0000
 IR Inten    --     7.3849                 6.2968                14.3079
 Raman Activ --     0.0000                 0.0000                 0.0000
 Depolar     --     0.0000                 0.0000                 0.0000
 Atom AN      X      Y      Z        X      Y      Z        X      Y      Z
   1   7    -0.03   0.04   0.18    -0.01  -0.03  -0.13     0.12   0.12   0.16
   2   6     0.10  -0.07  -0.40    -0.02   0.02   0.19    -0.09  -0.14  -0.08
   3   6    -0.11  -0.05   0.40     0.04  -0.01  -0.02     0.07   0.01  -0.13
   4   6     0.01   0.03  -0.28    -0.04   0.11  -0.18     0.10   0.08   0.07
   5   6    -0.01  -0.00   0.25     0.05  -0.20   0.31     0.08  -0.10   0.01
   6   6     0.01   0.00  -0.14    -0.04   0.15  -0.24    -0.05   0.10  -0.04
   7   1     0.01   0.03  -0.09    -0.00  -0.04   0.07    -0.06   0.14  -0.10
   8   1    -0.05   0.08  -0.11     0.03  -0.01   0.06    -0.03  -0.04  -0.06
   9   1     0.09  -0.18   0.05    -0.04   0.10  -0.04    -0.01  -0.14   0.05
  10   1    -0.00  -0.04   0.11    -0.05   0.07  -0.05     0.31  -0.38   0.13
  11   1     0.19   0.13  -0.13     0.06  -0.19   0.06    -0.34   0.44  -0.04
  12   1    -0.22   0.19   0.09     0.33   0.07  -0.02    -0.07  -0.09  -0.03
  13   1     0.12  -0.06  -0.15    -0.27  -0.06   0.02    -0.26  -0.05   0.03
  14   1    -0.02  -0.18  -0.05     0.18  -0.09  -0.04    -0.07   0.02   0.02
  15   1     0.14   0.10   0.11    -0.19   0.05   0.11    -0.22  -0.03   0.01
  16   1    -0.11   0.14   0.05     0.12   0.23   0.05     0.06   0.04  -0.00
  17   1     0.05  -0.04  -0.09    -0.13  -0.16  -0.16    -0.19  -0.08  -0.03
  18   1     0.03   0.04   0.07     0.19   0.14   0.14     0.10   0.06   0.03
  19   1     0.05   0.03   0.07     0.02  -0.07   0.10    -0.04  -0.07   0.01
  20   1    -0.14  -0.11  -0.01    -0.16  -0.22  -0.02    -0.01  -0.06  -0.00
                     25                     26                     27
                        a                      a                      a 
 Frequencies --  1273.3854              1285.5950              1288.9201
 Red. masses --     2.7249                 1.7238                 3.1103
 Frc consts  --     0.0000                 0.0000                 0.0000
 IR Inten    --     0.6239                 0.6733                 5.9795
 Raman Activ --     0.0000                 0.0000                 0.0000
 Depolar     --     0.0000                 0.0000                 0.0000
 Atom AN      X      Y      Z        X      Y      Z        X      Y      Z
   1   7    -0.02  -0.02   0.03     0.03  -0.02  -0.00    -0.02  -0.08  -0.02
   2   6     0.03   0.05  -0.07    -0.04   0.01  -0.01     0.00  -0.04  -0.07
   3   6    -0.10   0.07  -0.13     0.02   0.07  -0.08     0.18   0.16   0.09
   4   6    -0.04  -0.17   0.21     0.01   0.07  -0.11     0.22  -0.03   0.04
   5   6    -0.05  -0.02   0.11     0.06  -0.09   0.11     0.20  -0.05  -0.07
   6   6     0.00   0.05  -0.16     0.00  -0.04   0.10    -0.06   0.11   0.02
   7   1     0.02  -0.02  -0.01    -0.03   0.02   0.02    -0.02  -0.01   0.01
   8   1    -0.01   0.02  -0.01     0.01   0.04  -0.00     0.01   0.07  -0.01
   9   1     0.02  -0.02   0.01    -0.02  -0.01   0.00    -0.00   0.06  -0.01
  10   1    -0.02   0.04  -0.04     0.03  -0.03  -0.00    -0.26   0.22   0.02
  11   1     0.01   0.03  -0.02     0.03  -0.01  -0.01     0.18  -0.14  -0.01
  12   1    -0.30  -0.16  -0.01    -0.15  -0.08  -0.01    -0.37  -0.05   0.04
  13   1     0.49   0.16   0.03     0.07   0.05   0.03    -0.08   0.01   0.01
  14   1     0.38   0.19   0.02     0.41   0.02  -0.04    -0.40  -0.04   0.03
  15   1    -0.12  -0.12  -0.10    -0.53  -0.05   0.08    -0.37  -0.10  -0.02
  16   1     0.36   0.12   0.01    -0.50  -0.02   0.04    -0.12  -0.04  -0.01
  17   1    -0.21  -0.06  -0.02     0.41   0.02  -0.08    -0.36  -0.09   0.01
  18   1     0.06   0.07   0.08    -0.05  -0.05  -0.04     0.07   0.03  -0.01
  19   1     0.04   0.00   0.07    -0.02  -0.01  -0.02    -0.08  -0.10  -0.04
  20   1    -0.10  -0.10  -0.02     0.06   0.06   0.02     0.03  -0.04   0.01
                     28                     29                     30
                        a                      a                      a 
 Frequencies --  1330.5274              1356.5507              1367.4152
 Red. masses --     3.5731                 4.2914                 2.9607
 Frc consts  --     0.0000                 0.0000                 0.0000
 IR Inten    --    35.8191                 6.9853               275.2449
 Raman Activ --     0.0000                 0.0000                 0.0000
 Depolar     --     0.0000                 0.0000                 0.0000
 Atom AN      X      Y      Z        X      Y      Z        X      Y      Z
   1   7     0.03   0.19  -0.13    -0.03  -0.05   0.05    -0.20   0.26  -0.09
   2   6    -0.29   0.23   0.02     0.17  -0.03   0.02     0.12  -0.10  -0.01
   3   6    -0.09  -0.09   0.05    -0.36  -0.05  -0.01     0.07   0.06  -0.02
   4   6     0.07  -0.00   0.01     0.02  -0.07  -0.06    -0.06  -0.01  -0.01
   5   6     0.10   0.01  -0.03     0.32   0.07  -0.00     0.05   0.01   0.01
   6   6    -0.02   0.04   0.02    -0.04   0.08   0.05    -0.01   0.00   0.00
   7   1     0.09  -0.08   0.15    -0.01   0.02  -0.07     0.32  -0.28   0.07
   8   1     0.02  -0.21   0.14    -0.00   0.06  -0.02     0.00  -0.41   0.34
   9   1     0.00  -0.20  -0.01     0.05   0.07   0.00     0.35  -0.35  -0.00
  10   1     0.41  -0.38   0.01    -0.02   0.06  -0.05    -0.19   0.16   0.03
  11   1     0.36  -0.32   0.01    -0.19   0.15   0.01    -0.18   0.12  -0.00
  12   1     0.02   0.01   0.01     0.42   0.08  -0.03    -0.04  -0.03  -0.00
  13   1     0.19   0.01  -0.05     0.34   0.09   0.00    -0.09  -0.01   0.00
  14   1    -0.10  -0.00   0.01     0.00   0.02  -0.02     0.07  -0.00  -0.01
  15   1    -0.04  -0.01  -0.00    -0.01  -0.00   0.02    -0.01  -0.00  -0.01
  16   1    -0.09  -0.03  -0.00    -0.37  -0.08   0.02    -0.06  -0.01   0.01
  17   1    -0.16  -0.03   0.01    -0.36  -0.07   0.00    -0.02  -0.01  -0.01
  18   1     0.01   0.00  -0.02    -0.02  -0.02  -0.06    -0.00  -0.00  -0.01
  19   1    -0.04  -0.04  -0.02    -0.09  -0.11  -0.06    -0.01  -0.01  -0.00
  20   1     0.01  -0.02   0.00    -0.01  -0.06   0.01     0.00  -0.01   0.00
                     31                     32                     33
                        a                      a                      a 
 Frequencies --  1382.0403              1392.8564              1402.9326
 Red. masses --     4.9474                 1.8504                 1.6737
 Frc consts  --     0.0000                 0.0000                 0.0000
 IR Inten    --     8.9815               112.3027               104.4142
 Raman Activ --     0.0000                 0.0000                 0.0000
 Depolar     --     0.0000                 0.0000                 0.0000
 Atom AN      X      Y      Z        X      Y      Z        X      Y      Z
   1   7     0.05   0.01   0.04     0.10   0.14   0.08     0.09   0.03  -0.17
   2   6    -0.08   0.01   0.01     0.09  -0.00   0.01     0.09  -0.04  -0.04
   3   6     0.28   0.02  -0.03    -0.09  -0.00   0.00    -0.01   0.01  -0.00
   4   6    -0.40  -0.08   0.02     0.11   0.03  -0.01    -0.04  -0.00   0.01
   5   6     0.30   0.09   0.01    -0.06  -0.03   0.00     0.03   0.02  -0.00
   6   6    -0.04   0.03   0.03     0.01  -0.01  -0.01     0.00   0.01   0.00
   7   1     0.06  -0.02  -0.04     0.32  -0.26   0.10    -0.27   0.02   0.65
   8   1    -0.08  -0.08  -0.19    -0.26  -0.31  -0.51     0.11   0.30   0.07
   9   1    -0.17   0.06   0.01    -0.52  -0.06   0.05    -0.29  -0.47   0.03
  10   1    -0.00  -0.01  -0.01    -0.07   0.09  -0.01    -0.07   0.07   0.01
  11   1     0.08  -0.04   0.00    -0.05  -0.00   0.01    -0.09   0.07  -0.01
  12   1    -0.24  -0.03   0.01     0.07   0.03  -0.00    -0.01   0.01   0.00
  13   1    -0.22  -0.05   0.03     0.06   0.03   0.02    -0.01   0.01   0.02
  14   1     0.36   0.06  -0.02    -0.09  -0.04   0.00     0.04  -0.03   0.00
  15   1     0.37   0.06  -0.02    -0.13  -0.02  -0.01     0.07  -0.00  -0.04
  16   1    -0.26  -0.07   0.02     0.05   0.02  -0.00    -0.02  -0.01   0.00
  17   1    -0.27  -0.05  -0.01     0.06   0.01   0.00    -0.04  -0.00   0.01
  18   1    -0.01  -0.02  -0.05     0.00   0.00   0.01    -0.01  -0.01  -0.01
  19   1    -0.04  -0.05  -0.03     0.01   0.01   0.01    -0.01  -0.01  -0.01
  20   1    -0.01  -0.05   0.01     0.00   0.01  -0.00    -0.01  -0.01   0.00
                     34                     35                     36
                        a                      a                      a 
 Frequencies --  1432.3779              1477.8248              1496.3742
 Red. masses --     3.2429                 1.8584                 1.9032
 Frc consts  --     0.0000                 0.0000                 0.0000
 IR Inten    --     0.1456                11.9687                 2.3784
 Raman Activ --     0.0000                 0.0000                 0.0000
 Depolar     --     0.0000                 0.0000                 0.0000
 Atom AN      X      Y      Z        X      Y      Z        X      Y      Z
   1   7    -0.00   0.00   0.00    -0.01  -0.01   0.01    -0.01   0.01  -0.00
   2   6    -0.00   0.00  -0.00    -0.14  -0.14   0.19    -0.02  -0.02   0.00
   3   6     0.02  -0.00  -0.00     0.00   0.01   0.01     0.03  -0.23  -0.16
   4   6     0.01   0.02   0.01     0.01   0.02   0.00     0.03   0.01   0.01
   5   6    -0.10  -0.02   0.00    -0.01  -0.01  -0.01    -0.01   0.03   0.02
   6   6     0.34   0.25   0.10     0.00   0.00   0.00     0.01  -0.01  -0.01
   7   1     0.01  -0.00  -0.01     0.02  -0.03   0.03     0.01  -0.00  -0.01
   8   1    -0.00  -0.01  -0.00    -0.00  -0.02   0.01     0.01  -0.01   0.03
   9   1     0.00   0.01  -0.00    -0.00  -0.04   0.01     0.04  -0.01  -0.00
  10   1     0.00  -0.00   0.01     0.06   0.10  -0.67     0.01  -0.01  -0.05
  11   1     0.00  -0.01   0.00     0.43   0.51  -0.06     0.04   0.04  -0.01
  12   1    -0.02  -0.01   0.00     0.03  -0.05   0.00    -0.16   0.65  -0.04
  13   1    -0.02  -0.01  -0.00    -0.01  -0.02  -0.05     0.01   0.20   0.63
  14   1    -0.00   0.01   0.00    -0.02  -0.02   0.00    -0.01  -0.04   0.00
  15   1    -0.00   0.01   0.01    -0.00  -0.00  -0.02    -0.02  -0.02  -0.03
  16   1     0.10  -0.03  -0.00     0.01   0.01  -0.00     0.02  -0.08   0.01
  17   1     0.09  -0.00  -0.04     0.01   0.01   0.01     0.00  -0.03  -0.08
  18   1    -0.45  -0.14  -0.19    -0.00  -0.00  -0.00    -0.02   0.02   0.06
  19   1    -0.21  -0.40  -0.22    -0.00  -0.00   0.00    -0.01  -0.03  -0.01
  20   1    -0.41  -0.29   0.06     0.00  -0.00   0.00    -0.02   0.06  -0.00
                     37                     38                     39
                        a                      a                      a 
 Frequencies --  1508.3475              1510.1167              1511.9897
 Red. masses --     1.7239                 1.5984                 1.6452
 Frc consts  --     0.0000                 0.0000                 0.0000
 IR Inten    --     0.3743                 1.3324                 1.0625
 Raman Activ --     0.0000                 0.0000                 0.0000
 Depolar     --     0.0000                 0.0000                 0.0000
 Atom AN      X      Y      Z        X      Y      Z        X      Y      Z
   1   7     0.00   0.01  -0.01     0.00   0.00  -0.00    -0.01  -0.01   0.01
   2   6    -0.01  -0.01   0.00    -0.00  -0.00   0.00     0.01   0.00  -0.00
   3   6     0.02  -0.03  -0.03     0.01  -0.01  -0.00    -0.02  -0.01   0.00
   4   6     0.03  -0.15  -0.10     0.01  -0.10  -0.06    -0.01   0.16   0.10
   5   6    -0.05  -0.03   0.00    -0.02   0.02  -0.04    -0.01  -0.03  -0.03
   6   6    -0.07   0.05   0.13    -0.04   0.12  -0.15    -0.08   0.12   0.03
   7   1     0.00  -0.01   0.03     0.00  -0.01   0.02     0.00   0.01  -0.03
   8   1     0.00  -0.00   0.00    -0.00  -0.00  -0.00     0.00  -0.00   0.00
   9   1    -0.01  -0.02   0.00    -0.01  -0.01   0.00     0.02   0.02  -0.00
  10   1    -0.00   0.00  -0.01    -0.00   0.00  -0.00     0.00  -0.01   0.01
  11   1     0.01   0.01  -0.00     0.00   0.01  -0.00    -0.00  -0.02   0.00
  12   1    -0.03   0.07  -0.01    -0.01   0.01  -0.00     0.01   0.04  -0.00
  13   1    -0.01   0.02   0.07    -0.01   0.00   0.01     0.02   0.02   0.04
  14   1    -0.07   0.40  -0.03    -0.07   0.27  -0.02     0.08  -0.46   0.03
  15   1    -0.01   0.13   0.38     0.01   0.09   0.25     0.01  -0.16  -0.43
  16   1     0.02   0.10  -0.00    -0.00  -0.01  -0.01    -0.03   0.17  -0.01
  17   1     0.02   0.04   0.08     0.02   0.02   0.01     0.01   0.07   0.17
  18   1     0.26  -0.14  -0.47    -0.38  -0.02   0.08    -0.01  -0.14  -0.36
  19   1     0.06   0.32  -0.12     0.10  -0.31   0.56     0.10   0.08   0.22
  20   1     0.00  -0.38   0.03     0.45  -0.14  -0.03     0.25  -0.42   0.01
                     40                     41                     42
                        a                      a                      a 
 Frequencies --  1519.9980              2910.6045              2928.7031
 Red. masses --     1.9896                 1.9162                 1.9521
 Frc consts  --     0.0000                 0.0000                 0.0000
 IR Inten    --     0.2377                46.7508                64.8703
 Raman Activ --     0.0000                 0.0000                 0.0000
 Depolar     --     0.0000                 0.0000                 0.0000
 Atom AN      X      Y      Z        X      Y      Z        X      Y      Z
   1   7     0.00   0.00  -0.00     0.00   0.00   0.00     0.00  -0.00   0.00
   2   6    -0.00   0.00  -0.00    -0.00  -0.00  -0.00    -0.00   0.00   0.00
   3   6     0.01  -0.02  -0.02    -0.00   0.01  -0.01    -0.02   0.06  -0.08
   4   6    -0.02  -0.04  -0.02     0.01  -0.04   0.06     0.03  -0.13   0.22
   5   6     0.06  -0.23  -0.15    -0.04   0.14  -0.23     0.01  -0.05   0.07
   6   6     0.06  -0.03  -0.02     0.00  -0.01   0.01    -0.00   0.00  -0.01
   7   1    -0.00   0.00   0.00    -0.00   0.00   0.00    -0.00   0.00   0.00
   8   1     0.00  -0.00   0.00     0.00  -0.00   0.00     0.00   0.00  -0.00
   9   1     0.00  -0.00  -0.00     0.00   0.00  -0.00    -0.00  -0.00  -0.00
  10   1     0.00  -0.00   0.01     0.00   0.00   0.00     0.01   0.01   0.00
  11   1    -0.00  -0.00   0.00     0.00  -0.00   0.00     0.00  -0.00  -0.02
  12   1    -0.02   0.06  -0.00     0.00   0.00   0.03     0.01   0.02   0.23
  13   1    -0.00   0.02   0.06     0.01  -0.04   0.01     0.05  -0.24   0.07
  14   1     0.01   0.06  -0.01    -0.00  -0.02  -0.19    -0.02  -0.06  -0.62
  15   1     0.02   0.02   0.05    -0.03   0.17  -0.06    -0.11   0.55  -0.19
  16   1    -0.14   0.62  -0.05     0.01   0.07   0.65    -0.01  -0.02  -0.18
  17   1    -0.04   0.21   0.60     0.12  -0.60   0.21    -0.03   0.17  -0.06
  18   1    -0.06   0.05   0.15    -0.01   0.04  -0.01     0.00  -0.02   0.01
  19   1    -0.05  -0.10  -0.06     0.00  -0.00   0.00     0.00   0.00  -0.00
  20   1    -0.10   0.15  -0.01    -0.00  -0.01  -0.05     0.00   0.00   0.02
                     43                     44                     45
                        a                      a                      a 
 Frequencies --  2943.5050              2946.0204              2957.4626
 Red. masses --     1.9759                 1.4913                 1.9114
 Frc consts  --     0.0000                 0.0000                 0.0000
 IR Inten    --    77.4333                51.7192                 2.8642
 Raman Activ --     0.0000                 0.0000                 0.0000
 Depolar     --     0.0000                 0.0000                 0.0000
 Atom AN      X      Y      Z        X      Y      Z        X      Y      Z
   1   7     0.00   0.00  -0.00     0.00   0.00   0.00     0.00  -0.00   0.00
   2   6     0.00  -0.00  -0.02     0.01   0.01   0.01    -0.15  -0.16  -0.17
   3   6     0.05  -0.17   0.21     0.00  -0.01  -0.03    -0.01   0.05   0.02
   4   6     0.01  -0.05   0.10    -0.00  -0.01  -0.01    -0.00   0.01   0.00
   5   6     0.00   0.00   0.02    -0.03   0.17   0.11    -0.00   0.01   0.01
   6   6     0.00   0.00  -0.00     0.02  -0.01  -0.01     0.00  -0.00   0.00
   7   1    -0.00   0.00   0.00     0.00   0.00  -0.00    -0.01  -0.01  -0.00
   8   1     0.00  -0.00  -0.00    -0.00   0.00   0.00    -0.00   0.00   0.00
   9   1    -0.00   0.00   0.00     0.00  -0.00   0.00    -0.00  -0.00  -0.01
  10   1    -0.01  -0.01  -0.01    -0.02  -0.02  -0.00     0.51   0.56   0.13
  11   1     0.01   0.01   0.11    -0.00  -0.00  -0.03     0.01   0.03   0.49
  12   1    -0.02  -0.04  -0.55     0.00   0.00   0.10    -0.01   0.00  -0.18
  13   1    -0.15   0.64  -0.20    -0.01   0.01  -0.01     0.05  -0.19   0.07
  14   1    -0.01  -0.02  -0.27     0.00   0.00   0.09     0.00   0.00  -0.03
  15   1    -0.04   0.19  -0.07    -0.01   0.06  -0.03     0.01  -0.04   0.02
  16   1    -0.00  -0.00  -0.07    -0.03  -0.02  -0.67    -0.00  -0.00  -0.05
  17   1     0.00  -0.01   0.01     0.13  -0.62   0.27     0.01  -0.04   0.02
  18   1     0.00  -0.00   0.00    -0.00   0.03  -0.01    -0.00   0.01  -0.00
  19   1    -0.01   0.00   0.00    -0.07   0.03   0.03    -0.00   0.00   0.00
  20   1     0.00   0.00   0.01     0.01   0.00   0.03    -0.00  -0.00  -0.01
                     46                     47                     48
                        a                      a                      a 
 Frequencies --  2960.1309              2971.2584              2985.2516
 Red. masses --     1.4867                 1.5740                 1.5548
 Frc consts  --     0.0000                 0.0000                 0.0000
 IR Inten    --    37.7640                84.1561                18.4247
 Raman Activ --     0.0000                 0.0000                 0.0000
 Depolar     --     0.0000                 0.0000                 0.0000
 Atom AN      X      Y      Z        X      Y      Z        X      Y      Z
   1   7     0.00  -0.00  -0.00     0.00  -0.00  -0.00    -0.00   0.00   0.00
   2   6     0.01   0.01   0.00     0.05   0.06   0.04     0.08   0.08  -0.19
   3   6    -0.01   0.03   0.05    -0.03   0.15   0.13     0.00   0.00  -0.04
   4   6     0.03  -0.17  -0.10    -0.00   0.05   0.04    -0.00   0.00  -0.00
   5   6     0.00  -0.02  -0.01    -0.00   0.02   0.01    -0.00   0.00   0.00
   6   6    -0.01   0.01   0.01     0.01  -0.01  -0.01    -0.00  -0.00   0.01
   7   1     0.00   0.00  -0.00     0.01   0.01   0.00     0.01   0.01   0.00
   8   1    -0.00   0.00   0.00    -0.01   0.00   0.00     0.00   0.00  -0.00
   9   1    -0.00   0.00  -0.00    -0.00   0.00  -0.00    -0.00  -0.00  -0.02
  10   1    -0.02  -0.02  -0.00    -0.19  -0.20  -0.05    -0.33  -0.37  -0.12
  11   1    -0.00   0.00   0.01     0.00  -0.00  -0.08     0.07   0.09   0.81
  12   1    -0.01  -0.00  -0.23    -0.03  -0.00  -0.68     0.01   0.00   0.12
  13   1     0.03  -0.13   0.05     0.12  -0.52   0.21     0.01  -0.02   0.00
  14   1     0.03   0.01   0.63    -0.01  -0.00  -0.18     0.00   0.00   0.01
  15   1    -0.12   0.62  -0.27     0.03  -0.16   0.07     0.00  -0.01   0.00
  16   1     0.00   0.00   0.05    -0.00  -0.00  -0.07    -0.00  -0.00  -0.00
  17   1    -0.01   0.05  -0.02     0.01  -0.06   0.03     0.00  -0.00  -0.00
  18   1     0.01  -0.04   0.02    -0.00   0.01  -0.01    -0.00   0.01  -0.00
  19   1     0.03  -0.01  -0.01    -0.05   0.02   0.02     0.01  -0.00  -0.00
  20   1    -0.00  -0.00  -0.04     0.00   0.00   0.03    -0.00  -0.00  -0.02
                     49                     50                     51
                        a                      a                      a 
 Frequencies --  2990.6078              2993.9319              3013.4619
 Red. masses --     1.9152                 1.9356                 1.2753
 Frc consts  --     0.0000                 0.0000                 0.0000
 IR Inten    --   104.7417                91.1783                53.8625
 Raman Activ --     0.0000                 0.0000                 0.0000
 Depolar     --     0.0000                 0.0000                 0.0000
 Atom AN      X      Y      Z        X      Y      Z        X      Y      Z
   1   7    -0.00  -0.00   0.00    -0.00  -0.00   0.00    -0.00  -0.00   0.00
   2   6     0.00   0.00   0.00    -0.00  -0.00  -0.00    -0.00  -0.00   0.00
   3   6    -0.00   0.01   0.01     0.00  -0.00  -0.00     0.00  -0.00  -0.00
   4   6    -0.00   0.01   0.01    -0.00   0.00  -0.00    -0.00   0.01   0.00
   5   6    -0.01   0.02   0.02    -0.00   0.02  -0.02     0.00   0.01   0.00
   6   6    -0.20   0.14   0.14    -0.05   0.16  -0.24     0.08   0.12   0.06
   7   1     0.00  -0.00   0.00     0.00   0.00  -0.00     0.00   0.00   0.00
   8   1    -0.00  -0.00   0.00    -0.00   0.00  -0.00     0.00  -0.00  -0.00
   9   1     0.00  -0.00  -0.00     0.00  -0.00  -0.00    -0.00  -0.00   0.00
  10   1    -0.01  -0.01  -0.00     0.00   0.00  -0.00     0.00   0.00   0.00
  11   1    -0.00  -0.00  -0.02     0.00   0.00   0.02    -0.00  -0.00  -0.00
  12   1    -0.00   0.00  -0.02     0.00   0.00   0.01    -0.00   0.00   0.01
  13   1     0.00  -0.02   0.01    -0.00   0.00  -0.00    -0.00   0.01  -0.00
  14   1    -0.00   0.00  -0.04    -0.00   0.00   0.01    -0.00   0.00  -0.02
  15   1     0.01  -0.04   0.02     0.00  -0.01   0.00     0.00  -0.02   0.01
  16   1    -0.00  -0.00  -0.07    -0.00   0.00   0.04     0.00   0.00  -0.01
  17   1     0.01  -0.06   0.03     0.01  -0.05   0.02     0.00  -0.00   0.00
  18   1     0.02  -0.23   0.13     0.11  -0.64   0.23     0.11  -0.56   0.24
  19   1     0.75  -0.28  -0.29     0.03   0.01  -0.05    -0.38   0.16   0.16
  20   1    -0.05   0.00  -0.33     0.03   0.07   0.65    -0.03  -0.02  -0.63
                     52                     53                     54
                        a                      a                      a 
 Frequencies --  3269.7981              3278.6490              3299.2397
 Red. masses --     2.0373                 2.0487                 1.2975
 Frc consts  --     0.0000                 0.0000                 0.0000
 IR Inten    --   195.9833               165.7776                55.8798
 Raman Activ --     0.0000                 0.0000                 0.0000
 Depolar     --     0.0000                 0.0000                 0.0000
 Atom AN      X      Y      Z        X      Y      Z        X      Y      Z
   1   7     0.27   0.05  -0.07    -0.04  -0.14  -0.24    -0.02   0.12  -0.09
   2   6     0.00   0.00  -0.00    -0.00  -0.00  -0.01     0.00   0.01  -0.01
   3   6    -0.00  -0.00  -0.00    -0.00   0.00  -0.00     0.00   0.00   0.00
   4   6    -0.00  -0.00   0.00     0.00   0.00  -0.00     0.00  -0.00  -0.00
   5   6     0.00  -0.00  -0.00    -0.00   0.00  -0.00     0.00   0.00  -0.00
   6   6    -0.00   0.00  -0.00    -0.00  -0.00   0.00    -0.00   0.00  -0.00
   7   1    -0.28  -0.37  -0.12     0.37   0.44   0.12    -0.37  -0.45  -0.15
   8   1    -0.75   0.17   0.30    -0.24   0.04   0.07     0.40  -0.08  -0.16
   9   1     0.03   0.01   0.10     0.03   0.05   0.71     0.03   0.06   0.64
  10   1    -0.01  -0.01  -0.00     0.01   0.01   0.00    -0.01  -0.01  -0.00
  11   1    -0.00   0.00   0.00     0.00   0.00   0.02     0.00   0.00   0.01
  12   1     0.00   0.00   0.00    -0.00   0.00   0.00    -0.00   0.00  -0.00
  13   1    -0.00   0.00  -0.00     0.00  -0.00   0.00     0.00  -0.01   0.00
  14   1     0.00  -0.00  -0.00     0.00   0.00  -0.00    -0.00  -0.00   0.00
  15   1    -0.00  -0.00  -0.00    -0.00  -0.00   0.00    -0.00   0.00  -0.00
  16   1    -0.00   0.00   0.00     0.00   0.00   0.00    -0.00  -0.00   0.00
  17   1    -0.00   0.00  -0.00     0.00  -0.00   0.00    -0.00  -0.00   0.00
  18   1     0.00  -0.00   0.00    -0.00   0.00  -0.00     0.00  -0.00   0.00
  19   1    -0.00  -0.00   0.00     0.00  -0.00  -0.00     0.00  -0.00   0.00
  20   1     0.00  -0.00  -0.00    -0.00   0.00  -0.00     0.00  -0.00   0.00
