      -----------------------------------------------------------      
     |                   =====================                   |     
     |                           x T B                           |     
     |                   =====================                   |     
     |                         S. Grimme                         |     
     |          Mulliken Center for Theoretical Chemistry        |     
     |                    University of Bonn                     |     
      -----------------------------------------------------------      

   * xtb version 6.5.1 (fef0646) compiled by 'conda@b96dff2e9fd6' on 2023-01-04

   xtb is free software: you can redistribute it and/or modify it under
   the terms of the GNU Lesser General Public License as published by
   the Free Software Foundation, either version 3 of the License, or
   (at your option) any later version.
   
   xtb is distributed in the hope that it will be useful,
   but WITHOUT ANY WARRANTY; without even the implied warranty of
   MERCHANTABILITY or FITNESS FOR A PARTICULAR PURPOSE.  See the
   GNU Lesser General Public License for more details.
   
   Cite this work as:
   * C. Bannwarth, E. Caldeweyher, S. Ehlert, A. Hansen, P. Pracht,
     J. Seibert, S. Spicher, S. Grimme, WIREs Comput. Mol. Sci., 2020, 11,
     e01493. DOI: 10.1002/wcms.1493
   
   for GFN2-xTB:
   * C. Bannwarth, S. Ehlert and S. Grimme., J. Chem. Theory Comput., 2019,
     15, 1652-1671. DOI: 10.1021/acs.jctc.8b01176
   for GFN1-xTB:
   * S. Grimme, C. Bannwarth, P. Shushkov, J. Chem. Theory Comput., 2017,
     13, 1989-2009. DOI: 10.1021/acs.jctc.7b00118
   for GFN0-xTB:
   * P. Pracht, E. Caldeweyher, S. Ehlert, S. Grimme, ChemRxiv, 2019, preprint.
     DOI: 10.26434/chemrxiv.8326202.v1
   for GFN-FF:
   * S. Spicher and S. Grimme, Angew. Chem. Int. Ed., 2020, 59, 15665-15673.
     DOI: 10.1002/anie.202004239
   
   for ALPB and GBSA implicit solvation:
   * S. Ehlert, M. Stahn, S. Spicher, S. Grimme, J. Chem. Theory Comput.,
     2021, 17, 4250-4261. DOI: 10.1021/acs.jctc.1c00471
   
   for DFT-D4:
   * E. Caldeweyher, C. Bannwarth and S. Grimme, J. Chem. Phys., 2017,
     147, 034112. DOI: 10.1063/1.4993215
   * E. Caldeweyher, S. Ehlert, A. Hansen, H. Neugebauer, S. Spicher,
     C. Bannwarth and S. Grimme, J. Chem. Phys., 2019, 150, 154122.
     DOI: 10.1063/1.5090222
   * E. Caldeweyher, J.-M. Mewes, S. Ehlert and S. Grimme, Phys. Chem. Chem. Phys.
     2020, 22, 8499-8512. DOI: 10.1039/D0CP00502A
   
   for sTDA-xTB:
   * S. Grimme and C. Bannwarth, J. Chem. Phys., 2016, 145, 054103.
     DOI: 10.1063/1.4959605
   
   in the mass-spec context:
   * V. Asgeirsson, C. Bauer and S. Grimme, Chem. Sci., 2017, 8, 4879.
     DOI: 10.1039/c7sc00601b
   * J. Koopman and S. Grimme, ACS Omega 2019, 4, 12, 15120-15133.
     DOI: 10.1021/acsomega.9b02011
   
   for metadynamics refer to:
   * S. Grimme, J. Chem. Theory Comput., 2019, 155, 2847-2862
     DOI: 10.1021/acs.jctc.9b00143
   
   for SPH calculations refer to:
   * S. Spicher and S. Grimme, J. Chem. Theory Comput., 2021, 17, 1701-1714
     DOI: 10.1021/acs.jctc.0c01306
   
   with help from (in alphabetical order)
   P. Atkinson, C. Bannwarth, F. Bohle, G. Brandenburg, E. Caldeweyher
   M. Checinski, S. Dohm, S. Ehlert, S. Ehrlich, I. Gerasimov, C. Hölzer
   A. Katbashev, J. Koopman, C. Lavigne, S. Lehtola, F. März, M. Müller,
   F. Musil, H. Neugebauer, J. Pisarek, C. Plett, P. Pracht, F. Pultar,
   J. Seibert, P. Shushkov, S. Spicher, M. Stahn, M. Steiner, T. Strunk,
   J. Stückrath, T. Rose, and J. Unsleber
   
 * started run on 2023/01/24 at 15:13:14.459     

           -------------------------------------------------
          |                Calculation Setup                |
           -------------------------------------------------

          program call               : xtb init.xyz --opt -c 1 -u 0 -P 16 --alpb water
          hostname                   : gpg-woodward
          coordinate file            : init.xyz
          omp threads                :                    16

   ID    Z sym.   atoms
    1    7 N      1
    2    6 C      2-5
    3    1 H      6-17

           -------------------------------------------------
          |                 G F N 2 - x T B                 |
           -------------------------------------------------

        Reference                      10.1021/acs.jctc.8b01176
      * Hamiltonian:
        H0-scaling (s, p, d)           1.850000    2.230000    2.230000
        zeta-weighting                 0.500000
      * Dispersion:
        s8                             2.700000
        a1                             0.520000
        a2                             5.000000
        s9                             5.000000
      * Repulsion:
        kExp                           1.500000    1.000000
        rExp                           1.000000
      * Coulomb:
        alpha                          2.000000
        third order                    shell-resolved
        anisotropic                    true
        a3                             3.000000
        a5                             4.000000
        cn-shift                       1.200000
        cn-exp                         4.000000
        max-rad                        5.000000

      * Solvation model:               ALPB
        Solvent                        water
        Parameter file                 internal GFN2-xTB/ALPB
        Dielectric constant                8.0200E+01
        Reference state                gsolv [1 M gas/solution]
        Free energy shift                  1.0808E-03 Eh       6.7819E-01 kcal/mol
        Temperature                        2.9815E+02 K
        Density                            1.0000E+00 kg/L
        Solvent mass                       1.8000E+01 g/mol
        Interaction kernel             P16
        Born radius scaling (c1)           1.4744E+00
        Born radii integrator          GBOBC
        Born offset                        0.0000E+00 a0       0.0000E+00 AA
        H-bond correction              true
        Ion screening                  false
        Surface tension                    1.0000E-05 Eh       1.5569E+01 dyn/cm
        Grid points                               230 per atom

          ...................................................
          :                      SETUP                      :
          :.................................................:
          :  # basis functions                  32          :
          :  # atomic orbitals                  32          :
          :  # shells                           22          :
          :  # electrons                        32          :
          :  max. iterations                   250          :
          :  Hamiltonian                  GFN2-xTB          :
          :  restarted?                      false          :
          :  GBSA solvation                   true          :
          :  PC potential                    false          :
          :  electronic temp.          300.0000000     K    :
          :  accuracy                    1.0000000          :
          :  -> integral cutoff          0.2500000E+02      :
          :  -> integral neglect         0.1000000E-07      :
          :  -> SCF convergence          0.1000000E-05 Eh   :
          :  -> wf. convergence          0.1000000E-03 e    :
          :  Broyden damping             0.4000000          :
          ...................................................

 iter      E             dE          RMSdq      gap      omega  full diag
   1    -17.4543680 -0.174544E+02  0.320E+00   11.84       0.0  T
   2    -17.5208214 -0.664534E-01  0.173E+00   10.62       1.0  T
   3    -17.5233934 -0.257205E-02  0.989E-01   10.28       1.0  T
   4    -17.5236413 -0.247908E-03  0.176E-01   10.21       1.0  T
   5    -17.5237426 -0.101217E-03  0.772E-02   10.19       1.0  T
   6    -17.5237445 -0.192851E-05  0.245E-02   10.21       1.0  T
   7    -17.5237453 -0.835270E-06  0.604E-03   10.21       4.0  T
   8    -17.5237453 -0.266674E-07  0.351E-03   10.21       6.9  T
   9    -17.5237454 -0.107033E-07  0.248E-04   10.21      97.8  T
  10    -17.5237454 -0.326779E-10  0.125E-04   10.21     194.0  T

   *** convergence criteria satisfied after 10 iterations ***

         #    Occupation            Energy/Eh            Energy/eV
      -------------------------------------------------------------
         1        2.0000           -0.6918170             -18.8253
       ...           ...                  ...                  ...
        10        2.0000           -0.4969455             -13.5226
        11        2.0000           -0.4812389             -13.0952
        12        2.0000           -0.4660811             -12.6827
        13        2.0000           -0.4582344             -12.4692
        14        2.0000           -0.4461259             -12.1397
        15        2.0000           -0.4387502             -11.9390
        16        2.0000           -0.4308378             -11.7237 (HOMO)
        17                         -0.0556571              -1.5145 (LUMO)
        18                          0.0522354               1.4214
        19                          0.0663098               1.8044
        20                          0.0892185               2.4278
        21                          0.1028435               2.7985
       ...                                ...                  ...
        32                          0.2867722               7.8035
      -------------------------------------------------------------
                  HL-Gap            0.3751807 Eh           10.2092 eV
             Fermi-level           -0.2432475 Eh           -6.6191 eV

 SCC (total)                   0 d,  0 h,  0 min,  0.012 sec
 SCC setup                      ...        0 min,  0.000 sec (  2.670%)
 Dispersion                     ...        0 min,  0.000 sec (  1.861%)
 classical contributions        ...        0 min,  0.000 sec (  0.464%)
 integral evaluation            ...        0 min,  0.001 sec (  4.339%)
 iterations                     ...        0 min,  0.010 sec ( 77.468%)
 molecular gradient             ...        0 min,  0.001 sec ( 10.407%)
 printout                       ...        0 min,  0.000 sec (  0.873%)

         :::::::::::::::::::::::::::::::::::::::::::::::::::::
         ::                     SUMMARY                     ::
         :::::::::::::::::::::::::::::::::::::::::::::::::::::
         :: total energy             -17.280008227338 Eh    ::
         :: total w/o Gsasa/hb       -17.270275631204 Eh    ::
         :: gradient norm              0.023635577807 Eh/a0 ::
         :: HOMO-LUMO gap             10.209186614374 eV    ::
         ::.................................................::
         :: SCC energy               -17.523745359463 Eh    ::
         :: -> isotropic ES            0.122359744815 Eh    ::
         :: -> anisotropic ES         -0.011959229057 Eh    ::
         :: -> anisotropic XC          0.013649618326 Eh    ::
         :: -> dispersion             -0.007781659828 Eh    ::
         :: -> Gsolv                  -0.114445109372 Eh    ::
         ::    -> Gelec               -0.104712513237 Eh    ::
         ::    -> Gsasa               -0.000774433138 Eh    ::
         ::    -> Ghb                 -0.010038922695 Eh    ::
         ::    -> Gshift               0.001080759698 Eh    ::
         :: repulsion energy           0.243714297672 Eh    ::
         :: add. restraining           0.000000000000 Eh    ::
         :: total charge               1.000000000000 e     ::
         :::::::::::::::::::::::::::::::::::::::::::::::::::::

      ----------------------------------------------------------- 
     |                   =====================                   |
     |                        A N C O P T                        |
     |                   =====================                   |
     |               Approximate Normal Coordinate               |
     |                Rational Function Optimizer                |
      ----------------------------------------------------------- 

          ...................................................
          :                      SETUP                      :
          :.................................................:
          :   optimization level            normal          :
          :   max. optcycles                   200          :
          :   ANC micro-cycles                  20          :
          :   degrees of freedom                45          :
          :.................................................:
          :   RF solver                   davidson          :
          :   write xtbopt.log                true          :
          :   linear?                        false          :
          :   energy convergence         0.5000000E-05 Eh   :
          :   grad. convergence          0.1000000E-02 Eh/α :
          :   maximium RF displ.         1.0000000          :
          :   Hlow (freq-cutoff)         0.1000000E-01      :
          :   Hmax (freq-cutoff)         5.0000000          :
          :   S6 in model hess.         20.0000000          :
          ...................................................

generating ANC from model Hessian ...
Using Lindh-Hessian (1995)
 Shifting diagonal of input Hessian by    6.5464700534620945E-003
 Lowest  eigenvalues of input Hessian
    0.000000    0.000000    0.000000    0.000000    0.000000    0.000000
    0.010000    0.013032    0.014659    0.015229    0.017213    0.018343
    0.026662    0.028230    0.057360    0.058486    0.061285    0.062746
 Highest eigenvalues
    1.191956    1.225526    1.250503    1.393254    1.402316    1.447891


........................................................................
.............................. CYCLE    1 ..............................
........................................................................
   1    -17.5237454 -0.175237E+02  0.136E-05   10.21       0.0  T
   2    -17.5237454 -0.746070E-13  0.833E-06   10.21    2910.5  T
   3    -17.5237454 -0.497380E-13  0.183E-06   10.21   13256.5  T
     SCC iter.                  ...        0 min,  0.003 sec
     gradient                   ...        0 min,  0.001 sec
 * total energy  :   -17.2800082 Eh     change       -0.9002576E-11 Eh
   gradient norm :     0.0236356 Eh/α   predicted     0.0000000E+00 (-100.00%)
   displ. norm   :     0.1641210 α      lambda       -0.2155846E-02
   maximum displ.:     0.0644624 α      in ANC's #8, #13, #6, ...

........................................................................
.............................. CYCLE    2 ..............................
........................................................................
   1    -17.5319162 -0.175319E+02  0.189E-01   10.26       0.0  T
   2    -17.5319280 -0.117938E-04  0.109E-01   10.27       1.0  T
   3    -17.5319290 -0.952046E-06  0.129E-02   10.28       1.9  T
   4    -17.5319292 -0.233644E-06  0.393E-03   10.28       6.2  T
   5    -17.5319292 -0.120928E-07  0.205E-03   10.28      11.8  T
   6    -17.5319292 -0.252851E-08  0.344E-04   10.28      70.5  T
   7    -17.5319292 -0.316955E-09  0.188E-04   10.28     128.7  T
     SCC iter.                  ...        0 min,  0.006 sec
     gradient                   ...        0 min,  0.001 sec
 * total energy  :   -17.2812635 Eh     change       -0.1255244E-02 Eh
   gradient norm :     0.0073898 Eh/α   predicted    -0.1106960E-02 ( -11.81%)
   displ. norm   :     0.0933614 α      lambda       -0.2937129E-03
   maximum displ.:     0.0492618 α      in ANC's #8, #2, #4, ...

........................................................................
.............................. CYCLE    3 ..............................
........................................................................
   1    -17.5346898 -0.175347E+02  0.544E-02   10.37       0.0  T
   2    -17.5346924 -0.265292E-05  0.306E-02   10.38       1.0  T
   3    -17.5346926 -0.164152E-06  0.656E-03   10.38       3.7  T
   4    -17.5346926 -0.340767E-07  0.168E-03   10.38      14.4  T
   5    -17.5346926 -0.914429E-09  0.778E-04   10.38      31.2  T
   6    -17.5346926 -0.193296E-09  0.916E-05   10.38     264.9  T
     SCC iter.                  ...        0 min,  0.005 sec
     gradient                   ...        0 min,  0.001 sec
 * total energy  :   -17.2814408 Eh     change       -0.1773050E-03 Eh
   gradient norm :     0.0022880 Eh/α   predicted    -0.1481354E-03 ( -16.45%)
   displ. norm   :     0.0518752 α      lambda       -0.4781685E-04
   maximum displ.:     0.0327286 α      in ANC's #4, #3, #8, ...

........................................................................
.............................. CYCLE    4 ..............................
........................................................................
   1    -17.5348572 -0.175349E+02  0.209E-02   10.42       0.0  T
   2    -17.5348576 -0.358934E-06  0.120E-02   10.43       2.0  T
   3    -17.5348576 -0.224048E-07  0.240E-03   10.43      10.1  T
   4    -17.5348576 -0.860261E-08  0.623E-04   10.43      38.9  T
   5    -17.5348576 -0.594156E-10  0.185E-04   10.43     131.2  T
     SCC iter.                  ...        0 min,  0.004 sec
     gradient                   ...        0 min,  0.001 sec
 * total energy  :   -17.2814714 Eh     change       -0.3059105E-04 Eh
   gradient norm :     0.0008965 Eh/α   predicted    -0.2397503E-04 ( -21.63%)
   displ. norm   :     0.0626528 α      lambda       -0.1522400E-04
   maximum displ.:     0.0484821 α      in ANC's #4, #3, #1, ...

........................................................................
.............................. CYCLE    5 ..............................
........................................................................
   1    -17.5345058 -0.175345E+02  0.184E-02   10.44       0.0  T
   2    -17.5345059 -0.685648E-07  0.109E-02   10.44       2.2  T
   3    -17.5345059 -0.100524E-07  0.965E-04   10.44      25.1  T
   4    -17.5345059 -0.227155E-08  0.428E-04   10.44      56.6  T
     SCC iter.                  ...        0 min,  0.003 sec
     gradient                   ...        0 min,  0.001 sec
 * total energy  :   -17.2814850 Eh     change       -0.1367278E-04 Eh
   gradient norm :     0.0011347 Eh/α   predicted    -0.7623462E-05 ( -44.24%)
   displ. norm   :     0.0454682 α      lambda       -0.8566374E-05
   maximum displ.:     0.0348751 α      in ANC's #4, #3, #1, ...

........................................................................
.............................. CYCLE    6 ..............................
........................................................................
   1    -17.5344364 -0.175344E+02  0.119E-02   10.43       0.0  T
   2    -17.5344365 -0.343897E-07  0.707E-03   10.43       3.4  T
   3    -17.5344365 -0.254376E-08  0.649E-04   10.43      37.4  T
   4    -17.5344365 -0.106440E-08  0.215E-04   10.43     113.0  T
     SCC iter.                  ...        0 min,  0.003 sec
     gradient                   ...        0 min,  0.001 sec
 * total energy  :   -17.2814947 Eh     change       -0.9706434E-05 Eh
   gradient norm :     0.0009014 Eh/α   predicted    -0.4286539E-05 ( -55.84%)
   displ. norm   :     0.0450207 α      lambda       -0.5793173E-05
   maximum displ.:     0.0340926 α      in ANC's #4, #3, #1, ...

........................................................................
.............................. CYCLE    7 ..............................
........................................................................
   1    -17.5345683 -0.175346E+02  0.121E-02   10.42       0.0  T
   2    -17.5345683 -0.337764E-07  0.717E-03   10.42       3.4  T
   3    -17.5345683 -0.277732E-08  0.653E-04   10.42      37.1  T
   4    -17.5345683 -0.127649E-08  0.229E-04   10.42     106.0  T
     SCC iter.                  ...        0 min,  0.003 sec
     gradient                   ...        0 min,  0.001 sec
 * total energy  :   -17.2815003 Eh     change       -0.5578728E-05 Eh
   gradient norm :     0.0003548 Eh/α   predicted    -0.2897608E-05 ( -48.06%)
   displ. norm   :     0.0236638 α      lambda       -0.1265641E-05
   maximum displ.:     0.0181280 α      in ANC's #4, #3, #7, ...

........................................................................
.............................. CYCLE    8 ..............................
........................................................................
   1    -17.5346057 -0.175346E+02  0.596E-03   10.42       0.0  T
   2    -17.5346057 -0.396194E-08  0.356E-03   10.42       6.8  T
   3    -17.5346057 -0.523031E-09  0.217E-04   10.42     111.9  T
   4    -17.5346057 -0.165635E-09  0.931E-05   10.42     260.6  T
     SCC iter.                  ...        0 min,  0.003 sec
     gradient                   ...        0 min,  0.001 sec
 * total energy  :   -17.2815016 Eh     change       -0.1293253E-05 Eh
   gradient norm :     0.0001736 Eh/α   predicted    -0.6318130E-06 ( -51.15%)
   displ. norm   :     0.0193117 α      lambda       -0.7182899E-06
   maximum displ.:     0.0133270 α      in ANC's #4, #3, #6, ...

   *** GEOMETRY OPTIMIZATION CONVERGED AFTER 8 ITERATIONS ***

------------------------------------------------------------------------
 total energy gain   :        -0.0014934 Eh       -0.9371 kcal/mol
 total RMSD          :         0.0920765 a0        0.0487 Å
 total power (kW/mol):        -0.4901122 (step)  -65.5623 (real)
------------------------------------------------------------------------

 ANCopt (total)                0 d,  0 h,  0 min,  0.060 sec
 optimizer setup                ...        0 min,  0.000 sec (  0.203%)
 model hessian                  ...        0 min,  0.008 sec ( 13.715%)
 ANC generation                 ...        0 min,  0.001 sec (  1.469%)
 coordinate transformation      ...        0 min,  0.000 sec (  0.386%)
 single point calculation       ...        0 min,  0.047 sec ( 78.412%)
 optimization log               ...        0 min,  0.001 sec (  1.249%)
 hessian update                 ...        0 min,  0.000 sec (  0.477%)
 rational function              ...        0 min,  0.001 sec (  2.116%)

================
 final structure:
================
17
 xtb: 6.5.1 (fef0646)
N            1.01484728320038        0.00094621327853       -0.02554080858402
C            2.49528560521871        0.06354641760926       -0.07522160090983
C            2.99863512482115        0.59435065042727       -1.41988986267151
C            2.52087584092828        2.02509243216334       -1.66787218357296
C            4.52512977232575        0.53501113593717       -1.42568721833310
H            0.69991958247835       -0.39350701099330        0.86773280195278
H            0.65918388306832       -0.58389427385573       -0.79060480122208
H            0.62295132505531        0.94412593023023       -0.12624648989960
H            2.89880070555416       -0.93514891911204        0.09048888503753
H            2.85045277981124        0.71621034895564        0.72272245162934
H            2.63166657453257       -0.04793224580203       -2.22625190895073
H            2.78803765320160        2.67039928282773       -0.83419291532710
H            1.44908320498839        2.08005620664426       -1.83731660101862
H            3.00222459226270        2.42519184424161       -2.55676595088681
H            4.93798249464842        1.17343274749097       -0.64823217816257
H            4.91650763830361        0.87482509454992       -2.38088538661843
H            4.87881593960105       -0.47965585459283       -1.26100623246229

 Bond Distances (Angstroems)
 ---------------------------
N1-C2=1.4826         N1-H6=1.0260         N1-H7=1.0266         N1-H8=1.0263         C2-N1=1.4826         C2-C3=1.5308         
C2-H9=1.0898         C2-H10=1.0903        C3-C2=1.5308         C3-C4=1.5287         C3-C5=1.5277         C3-H11=1.0943        
C4-C3=1.5287         C4-H12=1.0876        C4-H13=1.0865        C4-H14=1.0872        C5-C3=1.5277         C5-H15=1.0874        
C5-H16=1.0868        C5-H17=1.0871        H6-N1=1.0260         H7-N1=1.0266         H8-N1=1.0263         H9-C2=1.0898         
H10-C2=1.0903        H11-C3=1.0943        H12-C4=1.0876        H13-C4=1.0865        H14-C4=1.0872        H15-C5=1.0874        
H16-C5=1.0868        H17-C5=1.0871        
 C  H  Rav=1.0885 sigma=0.0024  Rmin=1.0865  Rmax=1.0943     9
 C  C  Rav=1.5290 sigma=0.0013  Rmin=1.5277  Rmax=1.5308     3
 N  H  Rav=1.0263 sigma=0.0002  Rmin=1.0260  Rmax=1.0266     3
 N  C  Rav=1.4826 sigma=0.0000  Rmin=1.4826  Rmax=1.4826     1

 selected bond angles (degree)
 --------------------
H6-N1-C2=110.60                H7-N1-C2=110.18                H7-N1-H6=108.87                H8-N1-C2=109.83                
H8-N1-H6=108.76                H8-N1-H7=108.55                C3-C2-N1=111.86                H9-C2-N1=109.02                
H9-C2-C3=109.24                H10-C2-N1=109.03               H10-C2-C3=109.16               H10-C2-H9=108.46               
C4-C3-C2=111.36                C5-C3-C2=108.57                C5-C3-C4=110.37                H11-C3-C2=109.48               
H11-C3-C4=108.97               H11-C3-C5=108.03               H12-C4-C3=110.75               H13-C4-C3=112.39               
H13-C4-H12=109.38              H14-C4-C3=109.80               H14-C4-H12=107.44              H14-C4-H13=106.90              
H15-C5-C3=110.72               H16-C5-C3=110.55               H16-C5-H15=107.94              H17-C5-C3=111.15               
H17-C5-H15=108.43              H17-C5-H16=107.93              

 selected dihedral angles (degree)
 ---------------------------------
C3-C2-N1-H6=177.64            C3-C2-N1-H7= 57.21            C3-C2-N1-H8=297.69            H9-C2-N1-H6= 56.71            
H9-C2-N1-H7=296.28            H9-C2-N1-H8=176.76            H10-C2-N1-H6=298.47           H10-C2-N1-H7=178.04           
H10-C2-N1-H8= 58.51           C4-C3-C2-N1= 62.22            C4-C3-C2-H9=183.02            C4-C3-C2-H10=301.47           
C5-C3-C2-N1=183.93            C5-C3-C2-H9=304.74            C5-C3-C2-H10= 63.18           H11-C3-C2-N1=301.65           
H11-C3-C2-H9= 62.46           H11-C3-C2-H10=180.90          H12-C4-C3-C2= 53.68           H12-C4-C3-C5=293.02           
H12-C4-C3-H11=174.55          H13-C4-C3-C2=291.00           H13-C4-C3-C5=170.34           H13-C4-C3-H11= 51.87          
H14-C4-C3-C2=172.16           H14-C4-C3-C5= 51.50           H14-C4-C3-H11=293.03          H15-C5-C3-C2=297.71           
H15-C5-C3-C4= 60.03           H15-C5-C3-H11=179.07          H16-C5-C3-C2=178.13           H16-C5-C3-C4=300.45           
H16-C5-C3-H11= 59.49          H17-C5-C3-C2= 58.30           H17-C5-C3-C4=180.61           H17-C5-C3-H11=299.65          
           -------------------------------------------------
          |                Final Singlepoint                |
           -------------------------------------------------

          ...................................................
          :                      SETUP                      :
          :.................................................:
          :  # basis functions                  32          :
          :  # atomic orbitals                  32          :
          :  # shells                           22          :
          :  # electrons                        32          :
          :  max. iterations                   250          :
          :  Hamiltonian                  GFN2-xTB          :
          :  restarted?                      false          :
          :  GBSA solvation                   true          :
          :  PC potential                    false          :
          :  electronic temp.          300.0000000     K    :
          :  accuracy                    1.0000000          :
          :  -> integral cutoff          0.2500000E+02      :
          :  -> integral neglect         0.1000000E-07      :
          :  -> SCF convergence          0.1000000E-05 Eh   :
          :  -> wf. convergence          0.1000000E-03 e    :
          :  Broyden damping             0.4000000          :
          ...................................................

 iter      E             dE          RMSdq      gap      omega  full diag
   1    -17.5346057 -0.175346E+02  0.375E-05   10.42       0.0  T
   2    -17.5346057 -0.112266E-11  0.214E-05   10.42    1134.4  T
   3    -17.5346057 -0.319744E-13  0.567E-06   10.42    4280.8  T

   *** convergence criteria satisfied after 3 iterations ***

         #    Occupation            Energy/Eh            Energy/eV
      -------------------------------------------------------------
         1        2.0000           -0.6914761             -18.8160
       ...           ...                  ...                  ...
        10        2.0000           -0.4970949             -13.5266
        11        2.0000           -0.4817905             -13.1102
        12        2.0000           -0.4662850             -12.6883
        13        2.0000           -0.4586269             -12.4799
        14        2.0000           -0.4451199             -12.1123
        15        2.0000           -0.4405297             -11.9874
        16        2.0000           -0.4322122             -11.7611 (HOMO)
        17                         -0.0492388              -1.3399 (LUMO)
        18                          0.0485040               1.3199
        19                          0.0745251               2.0279
        20                          0.0902239               2.4551
        21                          0.1071927               2.9169
       ...                                ...                  ...
        32                          0.2967896               8.0761
      -------------------------------------------------------------
                  HL-Gap            0.3829734 Eh           10.4212 eV
             Fermi-level           -0.2407255 Eh           -6.5505 eV

 SCC (total)                   0 d,  0 h,  0 min,  0.004 sec
 SCC setup                      ...        0 min,  0.000 sec (  4.228%)
 Dispersion                     ...        0 min,  0.000 sec (  2.246%)
 classical contributions        ...        0 min,  0.000 sec (  0.617%)
 integral evaluation            ...        0 min,  0.000 sec (  7.050%)
 iterations                     ...        0 min,  0.002 sec ( 54.955%)
 molecular gradient             ...        0 min,  0.001 sec ( 23.932%)
 printout                       ...        0 min,  0.000 sec (  2.178%)

         :::::::::::::::::::::::::::::::::::::::::::::::::::::
         ::                     SUMMARY                     ::
         :::::::::::::::::::::::::::::::::::::::::::::::::::::
         :: total energy             -17.281501618481 Eh    ::
         :: total w/o Gsasa/hb       -17.271577265238 Eh    ::
         :: gradient norm              0.000175903046 Eh/a0 ::
         :: HOMO-LUMO gap             10.421235705070 eV    ::
         ::.................................................::
         :: SCC energy               -17.534605686862 Eh    ::
         :: -> isotropic ES            0.122264670861 Eh    ::
         :: -> anisotropic ES         -0.013232189196 Eh    ::
         :: -> anisotropic XC          0.013344503420 Eh    ::
         :: -> dispersion             -0.007805460680 Eh    ::
         :: -> Gsolv                  -0.114449339916 Eh    ::
         ::    -> Gelec               -0.104524986674 Eh    ::
         ::    -> Gsasa               -0.000789259207 Eh    ::
         ::    -> Ghb                 -0.010215853733 Eh    ::
         ::    -> Gshift               0.001080759698 Eh    ::
         :: repulsion energy           0.253081763225 Eh    ::
         :: add. restraining           0.000000000000 Eh    ::
         :: total charge               1.000000000000 e     ::
         :::::::::::::::::::::::::::::::::::::::::::::::::::::

           -------------------------------------------------
          |                Property Printout                |
           -------------------------------------------------

    * Orbital Energies and Occupations

         #    Occupation            Energy/Eh            Energy/eV
      -------------------------------------------------------------
         1        2.0000           -0.6914761             -18.8160
       ...           ...                  ...                  ...
         4        2.0000           -0.5974267             -16.2568
         5        2.0000           -0.5911524             -16.0861
         6        2.0000           -0.5819879             -15.8367
         7        2.0000           -0.5594805             -15.2242
         8        2.0000           -0.5457363             -14.8502
         9        2.0000           -0.5149210             -14.0117
        10        2.0000           -0.4970949             -13.5266
        11        2.0000           -0.4817905             -13.1102
        12        2.0000           -0.4662850             -12.6883
        13        2.0000           -0.4586269             -12.4799
        14        2.0000           -0.4451199             -12.1123
        15        2.0000           -0.4405297             -11.9874
        16        2.0000           -0.4322122             -11.7611 (HOMO)
        17                         -0.0492388              -1.3399 (LUMO)
        18                          0.0485040               1.3199
        19                          0.0745251               2.0279
        20                          0.0902239               2.4551
        21                          0.1071927               2.9169
        22                          0.1153625               3.1392
        23                          0.1528651               4.1597
        24                          0.1673460               4.5537
        25                          0.1778886               4.8406
        26                          0.2116327               5.7588
        27                          0.2190882               5.9617
       ...                                ...                  ...
        32                          0.2967896               8.0761
      -------------------------------------------------------------
                  HL-Gap            0.3829734 Eh           10.4212 eV
             Fermi-level           -0.2407255 Eh           -6.5505 eV

     #   Z          covCN         q      C6AA      α(0)
     1   7 N        3.484    -0.157    24.382     7.334
     2   6 C        3.737    -0.044    21.455     6.610
     3   6 C        3.849    -0.019    20.875     6.499
     4   6 C        3.755    -0.136    23.172     6.864
     5   6 C        3.758    -0.128    22.999     6.837
     6   1 H        0.859     0.317     0.666     1.278
     7   1 H        0.859     0.306     0.694     1.305
     8   1 H        0.859     0.302     0.707     1.317
     9   1 H        0.925     0.106     1.728     2.056
    10   1 H        0.924     0.108     1.712     2.046
    11   1 H        0.924     0.059     2.213     2.326
    12   1 H        0.925     0.053     2.286     2.365
    13   1 H        0.925     0.057     2.238     2.339
    14   1 H        0.925     0.041     2.435     2.440
    15   1 H        0.925     0.047     2.353     2.399
    16   1 H        0.925     0.042     2.425     2.435
    17   1 H        0.925     0.045     2.378     2.411

 Mol. C6AA /au·bohr⁶  :       1559.338285
 Mol. C8AA /au·bohr⁸  :      32056.740243
 Mol. α(0) /au        :         58.862570


Wiberg/Mayer (AO) data.
largest (>0.10) Wiberg bond orders for each atom

 ---------------------------------------------------------------------------
     #   Z sym  total        # sym  WBO       # sym  WBO       # sym  WBO
 ---------------------------------------------------------------------------
     1   7 N    3.656 --     2 C    0.966     7 H    0.891     8 H    0.890
                             6 H    0.887
     2   6 C    3.926 --     3 C    0.998     9 H    0.966     1 N    0.966
                            10 H    0.965
     3   6 C    3.993 --     4 C    1.009     5 C    1.006     2 C    0.998
                            11 H    0.965
     4   6 C    3.992 --     3 C    1.009    12 H    0.985    14 H    0.984
                            13 H    0.981
     5   6 C    3.993 --     3 C    1.006    15 H    0.986    16 H    0.985
                            17 H    0.985
     6   1 H    0.900 --     1 N    0.887
     7   1 H    0.906 --     1 N    0.891
     8   1 H    0.909 --     1 N    0.890
     9   1 H    0.989 --     2 C    0.966
    10   1 H    0.988 --     2 C    0.965
    11   1 H    0.997 --     3 C    0.965
    12   1 H    0.997 --     4 C    0.985
    13   1 H    0.997 --     4 C    0.981
    14   1 H    0.998 --     4 C    0.984
    15   1 H    0.998 --     5 C    0.986
    16   1 H    0.998 --     5 C    0.985
    17   1 H    0.998 --     5 C    0.985
 ---------------------------------------------------------------------------

Topologies differ in total number of bonds
Writing topology from bond orders to xtbtopo.mol

molecular dipole:
                 x           y           z       tot (Debye)
 q only:        2.174       0.053      -0.089
   full:        2.106       0.074      -0.123       5.366
molecular quadrupole (traceless):
                xx          xy          yy          xz          yz          zz
 q only:        6.109       0.345      -3.035      -0.575      -0.327      -3.074
  q+dip:        4.386       0.890      -2.314      -0.783       0.001      -2.072
   full:        5.134       0.800      -2.638      -0.958      -0.288      -2.496

           -------------------------------------------------
          |                Geometry Summary                 |
           -------------------------------------------------

      molecular mass/u    :       74.1449358
   center of mass at/Å    :        2.6626339       0.6362534      -0.8974155
  moments of inertia/u·Å² :        0.6855902E+02   0.1508668E+03   0.1968885E+03
rotational constants/cm⁻¹ :        0.2458850E+00   0.1117385E+00   0.8562018E-01

 * 16 selected distances

     #   Z          #   Z                                           value/Å
     1   7 N        2   6 C                                       1.4825940
     2   6 C        3   6 C                                       1.5307668 (max)
     3   6 C        4   6 C                                       1.5286503
     3   6 C        5   6 C                                       1.5276587
     1   7 N        6   1 H                                       1.0260169 (min)
     1   7 N        7   1 H                                       1.0265758
     1   7 N        8   1 H                                       1.0263100
     2   6 C        9   1 H                                       1.0898059
     2   6 C       10   1 H                                       1.0903343
     3   6 C       11   1 H                                       1.0942638
     4   6 C       12   1 H                                       1.0875742
     4   6 C       13   1 H                                       1.0864953
     4   6 C       14   1 H                                       1.0871562
     5   6 C       15   1 H                                       1.0874126
     5   6 C       16   1 H                                       1.0867630
     5   6 C       17   1 H                                       1.0870893

 * 4 distinct bonds (by element types)

   Z      Z             #   av. dist./Å        max./Å        min./Å
   1 H    6 C           9     1.0885438     1.0942638     1.0864953
   6 C    6 C           3     1.5290253     1.5307668     1.5276587
   1 H    7 N           3     1.0263009     1.0265758     1.0260169
   6 C    7 N           1     1.4825940     1.4825940     1.4825940


optimized geometry written to: xtbopt.xyz


           -------------------------------------------------
          | TOTAL ENERGY              -17.281501618481 Eh   |
          | GRADIENT NORM               0.000175903046 Eh/α |
          | HOMO-LUMO GAP              10.421235705070 eV   |
           -------------------------------------------------

------------------------------------------------------------------------
 * finished run on 2023/01/24 at 15:13:14.552     
------------------------------------------------------------------------
 total:
 * wall-time:     0 d,  0 h,  0 min,  0.093 sec
 *  cpu-time:     0 d,  0 h,  0 min, 12.976 sec
 * ratio c/w:   140.093 speedup
 SCF:
 * wall-time:     0 d,  0 h,  0 min,  0.013 sec
 *  cpu-time:     0 d,  0 h,  0 min,  1.797 sec
 * ratio c/w:   140.727 speedup
 ANC optimizer:
 * wall-time:     0 d,  0 h,  0 min,  0.065 sec
 *  cpu-time:     0 d,  0 h,  0 min,  9.218 sec
 * ratio c/w:   141.509 speedup

