17
 energy: -17.281501618481 gnorm: 0.000175903046 xtb: 6.5.1 (fef0646)
N            1.01484728320038        0.00094621327853       -0.02554080858402
C            2.49528560521871        0.06354641760926       -0.07522160090983
C            2.99863512482115        0.59435065042727       -1.41988986267151
C            2.52087584092828        2.02509243216334       -1.66787218357296
C            4.52512977232575        0.53501113593717       -1.42568721833310
H            0.69991958247835       -0.39350701099330        0.86773280195278
H            0.65918388306832       -0.58389427385573       -0.79060480122208
H            0.62295132505531        0.94412593023023       -0.12624648989960
H            2.89880070555416       -0.93514891911204        0.09048888503753
H            2.85045277981124        0.71621034895564        0.72272245162934
H            2.63166657453257       -0.04793224580203       -2.22625190895073
H            2.78803765320160        2.67039928282773       -0.83419291532710
H            1.44908320498839        2.08005620664426       -1.83731660101862
H            3.00222459226270        2.42519184424161       -2.55676595088681
H            4.93798249464842        1.17343274749097       -0.64823217816257
H            4.91650763830361        0.87482509454992       -2.38088538661843
H            4.87881593960105       -0.47965585459283       -1.26100623246229
