 Entering Gaussian System
 *********************************************
 Gaussian 98:
 frequency output generated by the xtb code
 *********************************************
                         Standard orientation:
 --------------------------------------------------------------------
  Center     Atomic     Atomic              Coordinates (Angstroms)
  Number     Number      Type              X           Y           Z
 --------------------------------------------------------------------
    1          7             0       -4.767471    0.754388    1.690665
    2          6             0       -5.136760    1.635838    0.548135
    3          6             0       -4.526187    1.152672   -0.764696
    4          6             0       -3.035387    1.003215   -0.689431
    5          6             0       -2.200602    2.091540   -0.895596
    6          6             0       -0.832333    1.960343   -0.786611
    7          6             0       -0.251038    0.734151   -0.463230
    8          6             0        1.200182    0.632383   -0.353885
    9          6             0        1.889447   -0.510620   -0.233206
   10          6             0        3.340127   -0.609808   -0.120461
   11          6             0        4.154053    0.510858    0.043075
   12          6             0        5.526103    0.394011    0.150610
   13          9             0        6.294940    1.499988    0.310645
   14          6             0        6.106886   -0.861032    0.095590
   15          6             0        5.321830   -1.984688   -0.062105
   16          6             0        3.952300   -1.863151   -0.168051
   17          6             0       -1.097573   -0.352345   -0.243066
   18          6             0       -2.464963   -0.216018   -0.352611
   19         17             0       -5.017212   -2.543703    0.576912
   20          1             0       -4.972587   -0.233851    1.466928
   21          1             0       -5.271096    1.000852    2.562747
   22          1             0       -3.756290    0.811553    1.885352
   23          1             0       -4.803404    2.658567    0.759682
   24          1             0       -6.229400    1.690694    0.461939
   25          1             0       -4.781666    1.834662   -1.584597
   26          1             0       -4.965343    0.187104   -1.040393
   27          1             0       -2.634998    3.047082   -1.140346
   28          1             0       -0.195489    2.813480   -0.953554
   29          1             0        1.742977    1.560410   -0.393889
   30          1             0        1.350142   -1.441548   -0.235782
   31          1             0        3.727799    1.495301    0.101624
   32          1             0        7.176846   -0.939027    0.179867
   33          1             0        5.781325   -2.959811   -0.102625
   34          1             0        3.340775   -2.741698   -0.292097
   35          1             0       -0.682127   -1.306776    0.031715
   36          1             0       -3.109686   -1.058784   -0.160817
 --------------------------------------------------------------------
     1 basis functions        1 primitive gaussians
     1 alpha electrons        1 beta electrons

 Harmonic frequencies (cm**-1), IR intensities (km*mol⁻¹),
 Raman scattering activities (A**4/amu), Raman depolarization ratios,
 reduced masses (AMU), force constants (mDyne/A) and normal coordinates:
                      1                      2                      3
                        a                      a                      a 
 Frequencies --  -138.9200               -74.8052               -36.3228
 Red. masses --    19.2668                 8.3107                10.5327
 Frc consts  --     0.0000                 0.0000                 0.0000
 IR Inten    --   125.3340                 0.1357                 1.6342
 Raman Activ --     0.0000                 0.0000                 0.0000
 Depolar     --     0.0000                 0.0000                 0.0000
 Atom AN      X      Y      Z        X      Y      Z        X      Y      Z
   1   7    -0.10  -0.58  -0.17     0.02   0.00   0.03    -0.04   0.03  -0.07
   2   6    -0.03  -0.27   0.05     0.02   0.05   0.06    -0.02  -0.02  -0.11
   3   6     0.02   0.02  -0.04     0.00   0.09   0.04     0.02  -0.06  -0.07
   4   6     0.01   0.02  -0.03    -0.00   0.05   0.01     0.02  -0.03  -0.03
   5   6     0.02   0.01  -0.03     0.03   0.03   0.01     0.02  -0.09  -0.29
   6   6     0.02   0.01  -0.03     0.03  -0.04  -0.09     0.02  -0.05  -0.22
   7   6     0.01   0.01  -0.01     0.01  -0.06  -0.16     0.01   0.04   0.11
   8   6     0.01   0.00  -0.02     0.02  -0.11  -0.31     0.01   0.04   0.16
   9   6     0.00   0.00   0.01    -0.04  -0.07   0.46    -0.00   0.03   0.02
  10   6     0.00  -0.00   0.00    -0.02  -0.04   0.25    -0.00   0.01   0.01
  11   6     0.01  -0.00  -0.01    -0.05  -0.02   0.26    -0.01  -0.02   0.21
  12   6     0.01  -0.00  -0.00    -0.02   0.03   0.01     0.00  -0.02   0.08
  13   9     0.01  -0.01   0.01    -0.05   0.05   0.03     0.00  -0.04   0.25
  14   6     0.00  -0.00  -0.00     0.02   0.06  -0.23     0.01  -0.00  -0.19
  15   6     0.00  -0.00   0.00     0.04   0.04  -0.19     0.01   0.02  -0.34
  16   6     0.00  -0.00   0.01     0.02  -0.01   0.06     0.01   0.02  -0.26
  17   6     0.01   0.02  -0.00    -0.03  -0.03  -0.13     0.01   0.09   0.38
  18   6     0.01   0.02  -0.02    -0.03   0.02  -0.06     0.01   0.06   0.31
  19  17    -0.01   0.57   0.20     0.01  -0.03  -0.01    -0.05  -0.00   0.05
  20   1     0.05  -0.17  -0.15     0.00   0.00  -0.00    -0.02   0.01  -0.00
  21   1    -0.09  -0.26  -0.05     0.01  -0.01   0.01    -0.00   0.03  -0.02
  22   1    -0.04  -0.11   0.02     0.00  -0.00   0.01    -0.01  -0.00  -0.03
  23   1    -0.01  -0.09   0.08     0.01   0.01   0.03    -0.01  -0.00  -0.04
  24   1    -0.01  -0.07  -0.00     0.00   0.02   0.02    -0.00  -0.01  -0.04
  25   1     0.01   0.05   0.03     0.00   0.04   0.02     0.01  -0.03  -0.03
  26   1     0.01   0.02  -0.07    -0.01   0.03  -0.00     0.01  -0.02  -0.01
  27   1     0.01   0.00  -0.01     0.02   0.02   0.02     0.01  -0.05  -0.17
  28   1     0.01   0.00  -0.01     0.02  -0.02  -0.03     0.01  -0.03  -0.13
  29   1     0.01  -0.00  -0.02     0.03  -0.06  -0.35     0.00   0.01   0.08
  30   1    -0.00   0.00   0.02    -0.02  -0.01   0.38    -0.00   0.01  -0.04
  31   1     0.00  -0.00  -0.00    -0.03  -0.02   0.15    -0.01  -0.01   0.13
  32   1     0.00  -0.00  -0.00     0.01   0.03  -0.13     0.01  -0.00  -0.08
  33   1     0.00  -0.00   0.00     0.02   0.02  -0.10     0.01   0.01  -0.16
  34   1    -0.00  -0.00   0.01     0.01  -0.01   0.02     0.00   0.01  -0.12
  35   1     0.00   0.01   0.00    -0.02  -0.02  -0.07     0.00   0.05   0.19
  36   1     0.00   0.01  -0.00    -0.01   0.01  -0.02     0.00   0.03   0.14
                      4                      5                      6
                        a                      a                      a 
 Frequencies --    30.0951                40.2627                54.3418
 Red. masses --    14.6178                18.6832                21.7960
 Frc consts  --     0.0000                 0.0000                 0.0000
 IR Inten    --     0.0059                 3.6556                13.8095
 Raman Activ --     0.0000                 0.0000                 0.0000
 Depolar     --     0.0000                 0.0000                 0.0000
 Atom AN      X      Y      Z        X      Y      Z        X      Y      Z
   1   7    -0.14   0.05  -0.14    -0.01   0.14   0.05     0.07   0.18  -0.08
   2   6    -0.08  -0.02  -0.20     0.08   0.08  -0.02    -0.09  -0.02  -0.17
   3   6     0.03  -0.08  -0.12     0.02  -0.10   0.03    -0.05  -0.08  -0.13
   4   6     0.03  -0.06   0.03     0.02  -0.14   0.00    -0.05  -0.05  -0.07
   5   6     0.03  -0.03   0.17     0.03  -0.12   0.11    -0.07   0.00   0.14
   6   6     0.02  -0.01   0.29     0.02  -0.13   0.09    -0.07   0.02   0.21
   7   6     0.01  -0.02   0.26     0.02  -0.17  -0.04    -0.06  -0.01   0.07
   8   6     0.01  -0.01   0.30     0.02  -0.15  -0.02    -0.07  -0.00   0.13
   9   6     0.03  -0.01   0.25     0.07  -0.13  -0.14    -0.06  -0.02   0.02
  10   6     0.04   0.01   0.15     0.08  -0.05  -0.10    -0.07  -0.02   0.02
  11   6     0.05   0.02  -0.00    -0.01   0.00   0.04    -0.07  -0.04   0.11
  12   6     0.07   0.03  -0.18    -0.01   0.10   0.08    -0.06  -0.04   0.04
  13   9     0.11   0.05  -0.40    -0.12   0.18   0.24    -0.08  -0.06   0.15
  14   6     0.07   0.03  -0.24     0.09   0.15   0.02    -0.06  -0.03  -0.11
  15   6     0.05   0.02  -0.05     0.18   0.10  -0.12    -0.06  -0.02  -0.17
  16   6     0.04   0.00   0.15     0.18   0.01  -0.18    -0.06  -0.02  -0.11
  17   6     0.01  -0.05   0.14     0.02  -0.19  -0.15    -0.05  -0.07  -0.14
  18   6     0.02  -0.06   0.03     0.02  -0.17  -0.12    -0.04  -0.08  -0.20
  19  17    -0.23   0.09  -0.18    -0.43   0.31   0.11     0.61   0.20   0.19
  20   1    -0.03   0.01  -0.03    -0.05   0.04   0.04     0.10   0.03   0.00
  21   1    -0.05   0.02  -0.05     0.02   0.08   0.01    -0.01   0.04  -0.04
  22   1    -0.04   0.02  -0.03     0.00   0.00   0.00     0.01   0.13  -0.01
  23   1    -0.04  -0.00  -0.07     0.05   0.02  -0.03    -0.07   0.02  -0.09
  24   1    -0.02  -0.02  -0.08     0.02   0.05  -0.00    -0.03  -0.05  -0.04
  25   1     0.03  -0.04  -0.05     0.01  -0.05  -0.01    -0.01  -0.04  -0.05
  26   1     0.02  -0.03  -0.03    -0.01  -0.03   0.05    -0.00  -0.03  -0.02
  27   1     0.01  -0.01   0.05     0.01  -0.03   0.06    -0.02   0.01   0.07
  28   1     0.01   0.00   0.11     0.01  -0.03   0.05    -0.02   0.02   0.11
  29   1    -0.00  -0.00   0.10    -0.01  -0.04   0.04    -0.02   0.00   0.08
  30   1     0.01  -0.00   0.07     0.04  -0.05  -0.08    -0.02  -0.01  -0.03
  31   1     0.02   0.01   0.00    -0.03  -0.01   0.03    -0.02  -0.01   0.06
  32   1     0.03   0.01  -0.12     0.03   0.06   0.02    -0.02  -0.01  -0.05
  33   1     0.02   0.01  -0.02     0.07   0.04  -0.05    -0.02  -0.00  -0.08
  34   1     0.01  -0.00   0.09     0.07  -0.01  -0.09    -0.02  -0.00  -0.05
  35   1     0.00  -0.02   0.04     0.01  -0.06  -0.07    -0.01  -0.03  -0.07
  36   1     0.00  -0.02  -0.02     0.00  -0.05  -0.05    -0.01  -0.03  -0.09
                      7                      8                      9
                        a                      a                      a 
 Frequencies --    69.8671                87.4323                95.0186
 Red. masses --    16.2725                20.4911                10.6034
 Frc consts  --     0.0000                 0.0000                 0.0000
 IR Inten    --     5.5630                25.9412                16.8352
 Raman Activ --     0.0000                 0.0000                 0.0000
 Depolar     --     0.0000                 0.0000                 0.0000
 Atom AN      X      Y      Z        X      Y      Z        X      Y      Z
   1   7    -0.08   0.01  -0.00     0.02   0.12   0.22    -0.48   0.12  -0.03
   2   6    -0.07  -0.11  -0.10    -0.01  -0.04   0.10    -0.33  -0.00  -0.15
   3   6    -0.02  -0.22  -0.03    -0.07  -0.30   0.17     0.02   0.02   0.00
   4   6    -0.00  -0.07  -0.02    -0.06  -0.20   0.10     0.02   0.07   0.22
   5   6    -0.10   0.02   0.09    -0.14  -0.17  -0.04     0.04   0.05   0.19
   6   6    -0.08   0.14   0.05    -0.12  -0.08  -0.13     0.05   0.00   0.05
   7   6     0.04   0.16  -0.09    -0.02  -0.01  -0.06     0.05  -0.02  -0.05
   8   6     0.05   0.23  -0.12    -0.01   0.06  -0.12     0.07  -0.08  -0.28
   9   6     0.05   0.25   0.03     0.00   0.09   0.04     0.05  -0.07  -0.09
  10   6     0.04   0.16   0.01    -0.00   0.07   0.03     0.07  -0.06  -0.15
  11   6     0.14   0.07   0.07     0.04   0.04  -0.00     0.04  -0.04  -0.13
  12   6     0.13  -0.08   0.05     0.03  -0.01  -0.00     0.03  -0.01  -0.00
  13   9     0.33  -0.22   0.15     0.11  -0.05  -0.06    -0.01   0.01   0.07
  14   6     0.01  -0.13  -0.03    -0.02  -0.04   0.04     0.06  -0.00   0.09
  15   6    -0.10  -0.05  -0.09    -0.06  -0.01   0.07     0.09  -0.02   0.02
  16   6    -0.08   0.10  -0.06    -0.05   0.04   0.06     0.10  -0.04  -0.10
  17   6     0.13   0.07  -0.18     0.05  -0.05   0.07     0.03   0.03   0.11
  18   6     0.12  -0.05  -0.15     0.04  -0.14   0.15     0.02   0.07   0.23
  19  17    -0.31  -0.13   0.26     0.16   0.44  -0.43     0.14  -0.03   0.02
  20   1    -0.03  -0.00   0.04     0.04   0.03   0.05    -0.01   0.01  -0.03
  21   1    -0.02   0.03  -0.01    -0.02   0.03   0.05    -0.23  -0.01  -0.05
  22   1    -0.02   0.00  -0.00    -0.00   0.07   0.08    -0.15   0.12   0.09
  23   1    -0.03  -0.02  -0.05     0.01  -0.00  -0.02    -0.16   0.02  -0.03
  24   1    -0.02  -0.05  -0.04    -0.00  -0.01   0.04    -0.09  -0.05  -0.12
  25   1    -0.02  -0.10  -0.03    -0.05  -0.15   0.01     0.04  -0.00  -0.02
  26   1     0.02  -0.08   0.02    -0.01  -0.11   0.13     0.04  -0.00  -0.02
  27   1    -0.05   0.00   0.06    -0.06  -0.06  -0.02     0.02   0.02   0.07
  28   1    -0.05   0.06   0.04    -0.05  -0.01  -0.07     0.02  -0.00  -0.00
  29   1     0.01   0.07  -0.08    -0.01   0.02  -0.09     0.03  -0.03  -0.18
  30   1     0.01   0.08   0.05    -0.00   0.03   0.06     0.01  -0.02   0.06
  31   1     0.06   0.03   0.04     0.02   0.02  -0.01     0.00  -0.01  -0.05
  32   1     0.00  -0.07  -0.01    -0.01  -0.02   0.01     0.01   0.00   0.07
  33   1    -0.06  -0.03  -0.04    -0.03  -0.01   0.03     0.03  -0.00   0.02
  34   1    -0.05   0.05  -0.03    -0.03   0.02   0.02     0.04  -0.02  -0.04
  35   1     0.06   0.02  -0.08     0.04  -0.00   0.03     0.00   0.00   0.02
  36   1     0.06  -0.03  -0.06     0.03  -0.05   0.07     0.01   0.02   0.08
                     10                     11                     12
                        a                      a                      a 
 Frequencies --   143.2341               169.2282               179.2743
 Red. masses --    10.7578                11.4234                 8.3944
 Frc consts  --     0.0000                 0.0000                 0.0000
 IR Inten    --    21.9093                 2.8466                 6.5790
 Raman Activ --     0.0000                 0.0000                 0.0000
 Depolar     --     0.0000                 0.0000                 0.0000
 Atom AN      X      Y      Z        X      Y      Z        X      Y      Z
   1   7    -0.46  -0.02   0.12    -0.22   0.00   0.14    -0.22  -0.11  -0.17
   2   6    -0.00   0.21   0.14     0.09  -0.02   0.00     0.38   0.30  -0.04
   3   6    -0.08   0.16   0.12     0.15  -0.18   0.09     0.06  -0.04  -0.05
   4   6    -0.07   0.00  -0.06     0.17  -0.02   0.02     0.04  -0.14  -0.05
   5   6    -0.02  -0.06  -0.17     0.08   0.05  -0.02    -0.03  -0.07   0.08
   6   6    -0.02  -0.11  -0.16     0.10   0.15  -0.07    -0.04   0.01   0.15
   7   6    -0.05  -0.10  -0.06     0.16   0.17  -0.09    -0.01   0.02   0.11
   8   6    -0.05  -0.02   0.22     0.12   0.11   0.05    -0.01   0.05  -0.09
   9   6     0.06   0.02  -0.02    -0.05  -0.01  -0.11    -0.04   0.06   0.11
  10   6     0.07   0.07   0.10    -0.10  -0.13   0.10    -0.04   0.05  -0.11
  11   6     0.11   0.04   0.11    -0.17  -0.11   0.17    -0.04   0.04  -0.16
  12   6     0.12  -0.00   0.02    -0.16  -0.02   0.01    -0.05   0.01  -0.04
  13   9     0.25  -0.06  -0.02    -0.36   0.10  -0.12    -0.05  -0.02   0.06
  14   6     0.09  -0.01  -0.09    -0.09   0.02  -0.13    -0.09  -0.02   0.08
  15   6     0.05   0.01  -0.03    -0.06  -0.03   0.01    -0.10  -0.00  -0.03
  16   6     0.05   0.06   0.06    -0.07  -0.12   0.11    -0.08   0.03  -0.12
  17   6    -0.09  -0.10  -0.19     0.25   0.10  -0.12     0.05  -0.02   0.14
  18   6    -0.10  -0.04  -0.17     0.25   0.01  -0.07     0.05  -0.11   0.05
  19  17     0.14  -0.05   0.03    -0.00  -0.03   0.00     0.15  -0.02   0.04
  20   1    -0.07   0.00  -0.05    -0.02  -0.00   0.01    -0.21   0.01  -0.09
  21   1    -0.22  -0.06  -0.01    -0.14  -0.01  -0.01    -0.02   0.02  -0.04
  22   1    -0.15  -0.00   0.16    -0.08   0.02   0.14    -0.05  -0.21  -0.03
  23   1     0.08   0.02   0.08     0.06  -0.02  -0.00     0.32   0.01   0.01
  24   1     0.01   0.16   0.01     0.03   0.04  -0.04     0.12   0.31  -0.00
  25   1    -0.02   0.06   0.04     0.01  -0.10  -0.00     0.03  -0.04  -0.04
  26   1    -0.06   0.06   0.03     0.07  -0.08   0.08    -0.03  -0.01   0.05
  27   1     0.01  -0.02  -0.06    -0.00   0.00   0.00    -0.02  -0.03   0.03
  28   1     0.00  -0.04  -0.05     0.01   0.05  -0.02    -0.02   0.01   0.06
  29   1    -0.04   0.02   0.19     0.05   0.02   0.12     0.01   0.00  -0.15
  30   1     0.04  -0.01  -0.13    -0.04   0.01  -0.14    -0.02   0.02   0.15
  31   1     0.04   0.02   0.04    -0.06  -0.04   0.07    -0.01   0.01  -0.06
  32   1     0.03  -0.01  -0.06    -0.02   0.02  -0.09    -0.03  -0.01   0.07
  33   1     0.01  -0.00  -0.03    -0.00  -0.00  -0.01    -0.03  -0.00   0.00
  34   1     0.01   0.02   0.03    -0.01  -0.04   0.04    -0.03   0.02  -0.04
  35   1    -0.03  -0.03  -0.06     0.09   0.04  -0.03     0.02   0.00   0.05
  36   1    -0.03  -0.01  -0.04     0.09  -0.01  -0.02     0.02  -0.04   0.01
                     13                     14                     15
                        a                      a                      a 
 Frequencies --   225.1466               227.7255               252.1447
 Red. masses --    10.6968                 9.7330                 8.3558
 Frc consts  --     0.0000                 0.0000                 0.0000
 IR Inten    --     4.3459                 0.8704                 0.5135
 Raman Activ --     0.0000                 0.0000                 0.0000
 Depolar     --     0.0000                 0.0000                 0.0000
 Atom AN      X      Y      Z        X      Y      Z        X      Y      Z
   1   7     0.01  -0.03  -0.11    -0.04  -0.07  -0.17     0.16   0.03  -0.10
   2   6    -0.01   0.05  -0.03    -0.04   0.05  -0.04     0.11   0.08  -0.05
   3   6    -0.02   0.00  -0.01    -0.05   0.01  -0.01     0.16   0.15  -0.05
   4   6    -0.03  -0.01   0.09    -0.06   0.01   0.12     0.11  -0.09   0.12
   5   6    -0.05  -0.00   0.10    -0.07   0.02   0.16     0.09  -0.08   0.14
   6   6    -0.04  -0.00  -0.00    -0.06   0.01   0.02     0.07  -0.12   0.03
   7   6    -0.02  -0.02  -0.10    -0.02  -0.02  -0.14    -0.01  -0.16  -0.07
   8   6    -0.01  -0.01  -0.13    -0.01  -0.02  -0.16    -0.04  -0.00  -0.14
   9   6     0.02  -0.00  -0.23     0.02  -0.01  -0.25    -0.01   0.04  -0.19
  10   6     0.00   0.00   0.01     0.01  -0.01   0.11    -0.06   0.16   0.03
  11   6     0.02   0.02  -0.14    -0.02  -0.04   0.47    -0.08   0.16   0.17
  12   6     0.02   0.01  -0.12     0.01  -0.01   0.17    -0.07   0.07   0.05
  13   9    -0.00  -0.04   0.40     0.11   0.00  -0.37     0.13  -0.05  -0.06
  14   6     0.05   0.04  -0.45     0.02  -0.01   0.08    -0.17   0.03  -0.06
  15   6     0.01   0.00   0.03     0.02  -0.00   0.07    -0.20   0.04   0.02
  16   6    -0.03  -0.03   0.46     0.04   0.01  -0.07    -0.17   0.13   0.03
  17   6    -0.01  -0.00   0.02    -0.02   0.01  -0.01     0.03  -0.16   0.06
  18   6    -0.02   0.00   0.13    -0.04   0.02   0.14     0.03  -0.12   0.14
  19  17     0.05   0.02   0.00     0.09   0.04   0.01    -0.09  -0.08   0.01
  20   1    -0.12   0.01   0.01    -0.25   0.02   0.04     0.32  -0.03  -0.16
  21   1     0.11   0.06   0.01     0.19   0.12   0.04    -0.18  -0.19  -0.10
  22   1     0.03  -0.12  -0.14     0.04  -0.23  -0.24    -0.01   0.25   0.18
  23   1     0.02   0.00  -0.00     0.03  -0.00  -0.00     0.01   0.03   0.00
  24   1    -0.00   0.04   0.00    -0.01   0.05   0.00     0.03   0.01  -0.02
  25   1     0.01  -0.01  -0.01     0.01  -0.00  -0.02     0.11   0.09   0.00
  26   1    -0.01   0.00   0.00    -0.01   0.00  -0.00     0.00   0.08  -0.07
  27   1    -0.02   0.00   0.05    -0.02   0.01   0.07     0.02  -0.02   0.06
  28   1    -0.02   0.00  -0.01    -0.02   0.01   0.00     0.03  -0.05   0.00
  29   1    -0.01   0.01   0.04    -0.01   0.00   0.04    -0.03   0.01  -0.00
  30   1     0.01  -0.00  -0.14     0.01  -0.01  -0.18     0.01   0.00  -0.11
  31   1     0.01   0.01  -0.06    -0.01  -0.02   0.19    -0.02   0.05   0.07
  32   1     0.02   0.02  -0.23     0.01   0.00  -0.02    -0.05  -0.00  -0.06
  33   1     0.00  -0.00   0.02     0.01   0.00   0.00    -0.07   0.01   0.00
  34   1    -0.02  -0.02   0.28     0.02   0.01  -0.10    -0.07   0.05   0.00
  35   1     0.00   0.00   0.01     0.00   0.00  -0.01     0.02  -0.04   0.02
  36   1    -0.00   0.00   0.05    -0.01   0.01   0.06    -0.00  -0.03   0.05
                     16                     17                     18
                        a                      a                      a 
 Frequencies --   270.3637               319.7844               349.8025
 Red. masses --     8.3928                10.8650                 9.1009
 Frc consts  --     0.0000                 0.0000                 0.0000
 IR Inten    --     0.8607                12.7137                 7.2666
 Raman Activ --     0.0000                 0.0000                 0.0000
 Depolar     --     0.0000                 0.0000                 0.0000
 Atom AN      X      Y      Z        X      Y      Z        X      Y      Z
   1   7     0.12  -0.01  -0.06     0.09   0.01  -0.26    -0.09   0.05   0.24
   2   6     0.16   0.12   0.01    -0.16   0.19   0.02    -0.04  -0.12   0.06
   3   6    -0.18  -0.08  -0.07    -0.04   0.22   0.08     0.03   0.27  -0.11
   4   6    -0.17  -0.04  -0.16    -0.07  -0.17   0.28     0.00  -0.18  -0.22
   5   6    -0.21   0.03   0.03    -0.12  -0.19   0.06     0.01  -0.17  -0.10
   6   6    -0.19   0.13   0.11    -0.10  -0.03  -0.14    -0.01  -0.05   0.14
   7   6    -0.06   0.15   0.03     0.06   0.07  -0.08     0.03  -0.00   0.19
   8   6     0.00   0.01  -0.14     0.08   0.22   0.14     0.07   0.16  -0.17
   9   6     0.02  -0.01  -0.13     0.05   0.19   0.15     0.07   0.17  -0.14
  10   6     0.06  -0.14  -0.01     0.03  -0.06   0.05     0.04   0.01  -0.12
  11   6     0.07  -0.16   0.14     0.09  -0.11  -0.09     0.05  -0.05   0.14
  12   6     0.09  -0.06   0.04     0.07  -0.10  -0.01     0.05  -0.05  -0.00
  13   9    -0.04   0.05  -0.04    -0.28   0.13  -0.01    -0.16   0.08  -0.02
  14   6     0.20  -0.01  -0.05     0.09  -0.09   0.07     0.04  -0.06  -0.11
  15   6     0.20  -0.03   0.06     0.04  -0.06  -0.07    -0.03  -0.06   0.14
  16   6     0.18  -0.11   0.06     0.03  -0.07  -0.04    -0.02  -0.02   0.01
  17   6    -0.08   0.18   0.14     0.13  -0.02  -0.18     0.03  -0.02   0.20
  18   6    -0.08   0.05  -0.01     0.07  -0.16   0.11     0.02  -0.17  -0.18
  19  17    -0.06  -0.07   0.01    -0.01  -0.02   0.01     0.02   0.04  -0.01
  20   1     0.26  -0.03  -0.15     0.07   0.00  -0.13    -0.10   0.01   0.15
  21   1    -0.17  -0.19  -0.08     0.05  -0.09  -0.03     0.01   0.12   0.06
  22   1    -0.02   0.19   0.19     0.03   0.04  -0.11    -0.01  -0.04   0.03
  23   1     0.13   0.01  -0.02    -0.08   0.06   0.04    -0.08  -0.02   0.04
  24   1     0.04   0.12   0.06    -0.05   0.02   0.01    -0.01  -0.09  -0.01
  25   1    -0.08  -0.05  -0.04     0.10   0.11   0.03     0.08   0.24   0.08
  26   1    -0.07  -0.03   0.04    -0.08   0.11  -0.04    -0.08   0.17  -0.20
  27   1    -0.07   0.01   0.02    -0.06  -0.07   0.00    -0.00  -0.05  -0.03
  28   1    -0.08   0.06   0.05    -0.07   0.01  -0.09    -0.02  -0.00   0.06
  29   1     0.01  -0.00  -0.07     0.00   0.08   0.08     0.01   0.05  -0.16
  30   1    -0.01   0.00  -0.03    -0.01   0.07   0.02    -0.01   0.07   0.04
  31   1     0.01  -0.05   0.07     0.04  -0.03  -0.05     0.01  -0.02   0.10
  32   1     0.06   0.01  -0.05     0.02  -0.04   0.04     0.01  -0.03  -0.07
  33   1     0.07  -0.01   0.02     0.01  -0.02  -0.04    -0.02  -0.02   0.08
  34   1     0.08  -0.05   0.02     0.01  -0.02  -0.02    -0.01  -0.00   0.01
  35   1    -0.02   0.07   0.08     0.07  -0.01  -0.10     0.01   0.00   0.10
  36   1    -0.00  -0.00   0.00     0.06  -0.07   0.04     0.01  -0.06  -0.07
                     19                     20                     21
                        a                      a                      a 
 Frequencies --   364.5592               387.2839               400.4546
 Red. masses --     8.9296                11.9044                 8.8221
 Frc consts  --     0.0000                 0.0000                 0.0000
 IR Inten    --     0.2579                 1.6513                 5.7469
 Raman Activ --     0.0000                 0.0000                 0.0000
 Depolar     --     0.0000                 0.0000                 0.0000
 Atom AN      X      Y      Z        X      Y      Z        X      Y      Z
   1   7    -0.00   0.00  -0.02    -0.00  -0.02   0.03    -0.04   0.02   0.18
   2   6    -0.02   0.02   0.00     0.10  -0.06  -0.05     0.12  -0.14  -0.04
   3   6    -0.01   0.00   0.02     0.03  -0.14  -0.03     0.06   0.10  -0.18
   4   6    -0.00  -0.01   0.01     0.04   0.18  -0.03     0.01  -0.11  -0.12
   5   6    -0.03   0.09   0.42     0.10   0.15   0.07    -0.07  -0.02   0.07
   6   6     0.02  -0.10  -0.43     0.07  -0.14  -0.01    -0.06   0.09   0.04
   7   6     0.01  -0.00  -0.04    -0.08  -0.22  -0.07    -0.03   0.03  -0.20
   8   6     0.00  -0.01   0.05    -0.06   0.09  -0.04    -0.04  -0.03  -0.07
   9   6    -0.01  -0.02   0.02     0.09   0.20  -0.01    -0.04  -0.04  -0.02
  10   6    -0.01  -0.01   0.03     0.06   0.15   0.05    -0.04  -0.03   0.28
  11   6    -0.00   0.01  -0.03     0.24  -0.04   0.02     0.02  -0.00  -0.19
  12   6    -0.01   0.01   0.00     0.22  -0.17   0.05    -0.01  -0.03   0.25
  13   9     0.02  -0.01   0.00    -0.39   0.27  -0.03     0.03  -0.00  -0.10
  14   6    -0.00   0.01   0.03     0.14  -0.23   0.01     0.02  -0.01   0.24
  15   6     0.01   0.01  -0.04    -0.11  -0.09  -0.07     0.06   0.05  -0.41
  16   6     0.00   0.00  -0.00    -0.10   0.08   0.03     0.01  -0.01   0.21
  17   6    -0.01   0.10   0.37    -0.15  -0.15   0.02     0.00   0.05   0.02
  18   6     0.03  -0.11  -0.42    -0.12   0.13   0.04    -0.01  -0.04   0.13
  19  17     0.00   0.00   0.01     0.00  -0.00   0.00     0.00   0.02  -0.01
  20   1    -0.01   0.00  -0.01     0.00  -0.01   0.02    -0.03  -0.00   0.11
  21   1     0.01   0.00   0.00    -0.03   0.01  -0.01    -0.04   0.08   0.01
  22   1     0.00  -0.01  -0.02    -0.01  -0.00   0.04    -0.02  -0.01   0.09
  23   1    -0.01   0.01   0.00     0.06  -0.02  -0.03     0.04  -0.04  -0.01
  24   1    -0.01   0.00   0.00     0.03   0.02  -0.01     0.04  -0.03  -0.02
  25   1    -0.00  -0.00   0.00    -0.06  -0.11  -0.04     0.07   0.14   0.03
  26   1     0.00  -0.00   0.01     0.07  -0.09   0.06    -0.03   0.09  -0.17
  27   1    -0.02   0.06   0.27     0.07   0.07   0.05    -0.05  -0.01   0.06
  28   1     0.01  -0.06  -0.26     0.07  -0.08   0.01    -0.03   0.05   0.06
  29   1     0.00  -0.00   0.03    -0.07   0.06   0.01    -0.01  -0.00   0.08
  30   1    -0.00  -0.00  -0.02     0.03   0.05  -0.02    -0.00  -0.02  -0.09
  31   1    -0.00   0.00  -0.03     0.13   0.02  -0.02     0.03   0.02  -0.25
  32   1    -0.00   0.00   0.02     0.04  -0.14  -0.01     0.00   0.00   0.07
  33   1     0.00   0.00  -0.02    -0.08  -0.05  -0.05     0.03   0.03  -0.30
  34   1     0.00  -0.00  -0.00    -0.06   0.05   0.00     0.01  -0.01   0.06
  35   1    -0.01   0.07   0.27    -0.08  -0.06   0.02     0.02   0.04   0.05
  36   1     0.01  -0.06  -0.22    -0.08   0.07   0.02     0.00  -0.00   0.09
                     22                     23                     24
                        a                      a                      a 
 Frequencies --   432.3474               468.1945               476.3505
 Red. masses --     9.5973                10.4780                11.4955
 Frc consts  --     0.0000                 0.0000                 0.0000
 IR Inten    --     6.5649                 2.2842                 1.3051
 Raman Activ --     0.0000                 0.0000                 0.0000
 Depolar     --     0.0000                 0.0000                 0.0000
 Atom AN      X      Y      Z        X      Y      Z        X      Y      Z
   1   7     0.02  -0.01  -0.16    -0.00   0.01  -0.04     0.00   0.00  -0.04
   2   6    -0.22   0.17   0.11    -0.08   0.06   0.05     0.03  -0.00  -0.03
   3   6    -0.15  -0.04   0.20    -0.04   0.03   0.06     0.23  -0.01   0.09
   4   6    -0.05   0.06  -0.06    -0.02  -0.11  -0.05     0.16   0.02   0.24
   5   6     0.10  -0.07  -0.17    -0.03  -0.08  -0.05    -0.01   0.07  -0.12
   6   6     0.08  -0.11   0.16     0.01   0.18   0.04    -0.04   0.13  -0.05
   7   6     0.13  -0.05   0.25     0.05   0.17  -0.02    -0.21   0.11   0.25
   8   6     0.16   0.04  -0.15    -0.02  -0.41  -0.01    -0.23  -0.03  -0.06
   9   6     0.11   0.03  -0.18    -0.04  -0.41  -0.01    -0.17  -0.01  -0.10
  10   6     0.04  -0.01   0.06    -0.00   0.21   0.03    -0.11   0.14  -0.08
  11   6    -0.02   0.05  -0.04     0.18   0.10   0.03    -0.04   0.04   0.02
  12   6    -0.06   0.02   0.29     0.20  -0.06  -0.03    -0.06  -0.21   0.14
  13   9     0.02   0.03  -0.10    -0.10   0.22   0.02    -0.17  -0.28  -0.09
  14   6    -0.12   0.00   0.10     0.04  -0.16  -0.02     0.26  -0.02   0.02
  15   6    -0.04  -0.01  -0.26    -0.20  -0.02   0.00     0.19   0.07  -0.03
  16   6    -0.07  -0.05   0.21    -0.14   0.20  -0.03     0.17   0.25   0.12
  17   6     0.04  -0.02   0.12     0.09   0.18   0.03    -0.04  -0.06   0.01
  18   6     0.06   0.04  -0.20     0.08  -0.07  -0.04    -0.01  -0.14  -0.10
  19  17    -0.00  -0.02   0.01    -0.00  -0.00   0.00     0.00   0.00   0.00
  20   1     0.03   0.01  -0.11     0.00   0.00  -0.03    -0.01   0.00  -0.01
  21   1     0.06  -0.09   0.01     0.02  -0.02   0.01     0.01   0.00  -0.01
  22   1     0.02   0.01  -0.11     0.00   0.00  -0.04     0.00  -0.01  -0.02
  23   1    -0.09   0.05   0.04    -0.04   0.02   0.02    -0.03   0.01   0.00
  24   1    -0.06   0.02   0.04    -0.02  -0.00   0.01     0.01  -0.03  -0.05
  25   1    -0.10  -0.12  -0.01     0.00   0.02   0.02     0.09  -0.02   0.01
  26   1    -0.01  -0.06   0.18    -0.04   0.02   0.02     0.08  -0.01   0.03
  27   1     0.08  -0.01  -0.10    -0.04  -0.04  -0.01    -0.04  -0.02  -0.13
  28   1     0.03  -0.04   0.04    -0.03   0.08   0.02     0.02  -0.01  -0.10
  29   1     0.04   0.01  -0.11     0.09  -0.17   0.03    -0.04  -0.03  -0.10
  30   1     0.01   0.02  -0.01     0.09  -0.17  -0.02    -0.02  -0.02   0.05
  31   1    -0.01   0.02  -0.14     0.12   0.06   0.03     0.06   0.05  -0.02
  32   1    -0.03   0.00  -0.03     0.01  -0.13  -0.00     0.08   0.05  -0.03
  33   1     0.01   0.01  -0.21    -0.11  -0.03   0.01     0.00  -0.00  -0.05
  34   1    -0.04  -0.01   0.07    -0.08   0.08  -0.01     0.07   0.05   0.05
  35   1    -0.03  -0.03   0.02     0.07   0.08   0.03     0.03  -0.02  -0.09
  36   1     0.02  -0.00  -0.10     0.06  -0.04  -0.00    -0.03  -0.04  -0.12
                     25                     26                     27
                        a                      a                      a 
 Frequencies --   487.8448               533.8487               568.2152
 Red. masses --    12.8947                 9.5976                10.3592
 Frc consts  --     0.0000                 0.0000                 0.0000
 IR Inten    --     7.6858                 2.4497                 5.3242
 Raman Activ --     0.0000                 0.0000                 0.0000
 Depolar     --     0.0000                 0.0000                 0.0000
 Atom AN      X      Y      Z        X      Y      Z        X      Y      Z
   1   7     0.00   0.00  -0.00     0.02  -0.00   0.10     0.01  -0.00   0.03
   2   6     0.07  -0.03  -0.05     0.14  -0.12  -0.10     0.06  -0.05  -0.04
   3   6     0.17  -0.01   0.02    -0.16  -0.03  -0.23    -0.03  -0.01  -0.07
   4   6     0.10   0.03   0.21    -0.18   0.08   0.26    -0.05   0.08   0.23
   5   6    -0.03   0.06  -0.06    -0.07  -0.04   0.12    -0.04  -0.00  -0.05
   6   6    -0.05   0.09  -0.07    -0.02  -0.08  -0.15    -0.04  -0.04   0.04
   7   6    -0.17   0.09   0.19     0.11   0.08   0.25     0.01   0.03   0.24
   8   6    -0.15  -0.01  -0.02     0.16  -0.09   0.10     0.07  -0.00  -0.20
   9   6    -0.11  -0.00  -0.07     0.21  -0.07  -0.02     0.05  -0.01  -0.14
  10   6    -0.06  -0.20  -0.10     0.18   0.08  -0.20    -0.00  -0.02   0.45
  11   6     0.13  -0.27   0.00    -0.02   0.17   0.01    -0.00   0.03   0.07
  12   6     0.22   0.17   0.15    -0.09  -0.00   0.26     0.04   0.05  -0.58
  13   9     0.32   0.41   0.03    -0.08  -0.01  -0.08    -0.02  -0.01   0.12
  14   6    -0.04   0.03  -0.01    -0.15  -0.03  -0.07    -0.05  -0.03   0.19
  15   6    -0.16   0.05  -0.04    -0.02  -0.14  -0.01     0.01  -0.03  -0.12
  16   6    -0.20  -0.28   0.02     0.01  -0.01   0.07     0.01  -0.00  -0.00
  17   6    -0.06  -0.04  -0.03    -0.02   0.10  -0.16    -0.01   0.00   0.03
  18   6    -0.04  -0.09  -0.05    -0.06   0.10   0.05    -0.01   0.02  -0.09
  19  17     0.00   0.00   0.00     0.00   0.01  -0.00     0.00   0.00   0.00
  20   1    -0.01   0.00   0.01     0.00  -0.01   0.08     0.00  -0.01   0.03
  21   1    -0.01   0.02  -0.01    -0.04   0.07  -0.02    -0.02   0.03  -0.01
  22   1    -0.00  -0.01   0.01    -0.01  -0.00   0.09    -0.00  -0.00   0.03
  23   1     0.01  -0.01  -0.01     0.16  -0.06  -0.07     0.06  -0.02  -0.03
  24   1     0.02  -0.02  -0.04     0.04   0.07   0.05     0.02   0.03   0.02
  25   1     0.07   0.00   0.00     0.00   0.06  -0.02     0.02   0.02  -0.01
  26   1     0.06  -0.00  -0.01    -0.04   0.02  -0.15     0.00   0.00  -0.06
  27   1    -0.04  -0.02  -0.09     0.01  -0.03  -0.08     0.01  -0.03  -0.15
  28   1     0.01  -0.01  -0.10    -0.03  -0.03  -0.20    -0.01  -0.04  -0.12
  29   1    -0.03  -0.01  -0.07     0.06  -0.04  -0.06     0.01   0.01   0.01
  30   1    -0.04   0.00   0.04     0.07  -0.03   0.09     0.01  -0.00  -0.14
  31   1    -0.03  -0.10  -0.03    -0.01   0.05  -0.02    -0.01   0.00   0.06
  32   1    -0.02  -0.09  -0.04    -0.03   0.01  -0.09    -0.03  -0.02   0.21
  33   1    -0.00   0.04  -0.03     0.01  -0.03  -0.02     0.00  -0.01  -0.03
  34   1    -0.03  -0.10   0.02    -0.05   0.03   0.05    -0.00   0.01  -0.06
  35   1     0.01  -0.02  -0.09    -0.02  -0.02  -0.20    -0.01  -0.04  -0.11
  36   1    -0.03  -0.03  -0.08     0.01  -0.01  -0.07    -0.00  -0.02  -0.13
                     28                     29                     30
                        a                      a                      a 
 Frequencies --   593.4686               610.5253               640.9425
 Red. masses --    10.8865                11.2105                 9.3674
 Frc consts  --     0.0000                 0.0000                 0.0000
 IR Inten    --     1.5117                 2.2638                 1.9034
 Raman Activ --     0.0000                 0.0000                 0.0000
 Depolar     --     0.0000                 0.0000                 0.0000
 Atom AN      X      Y      Z        X      Y      Z        X      Y      Z
   1   7     0.01  -0.00   0.04     0.00  -0.01   0.01     0.00  -0.00   0.01
   2   6    -0.00  -0.03  -0.01    -0.01  -0.01  -0.00     0.01  -0.01  -0.02
   3   6    -0.22  -0.00  -0.13    -0.05  -0.06  -0.00    -0.01  -0.01  -0.01
   4   6    -0.14   0.05   0.01    -0.04  -0.11   0.02    -0.02   0.03   0.13
   5   6     0.05  -0.08   0.09     0.36  -0.32   0.11     0.02  -0.04  -0.06
   6   6     0.05  -0.22  -0.01     0.42   0.19  -0.04     0.01   0.01   0.09
   7   6     0.19  -0.06   0.11     0.05   0.10  -0.01     0.01  -0.01  -0.01
   8   6     0.12   0.11  -0.00     0.03   0.08  -0.01     0.03   0.01  -0.15
   9   6    -0.31  -0.11  -0.04    -0.03   0.07  -0.04    -0.00   0.01   0.04
  10   6    -0.34  -0.01  -0.05    -0.05  -0.01   0.00    -0.04  -0.04   0.47
  11   6     0.02  -0.24  -0.03    -0.00  -0.05   0.02     0.02   0.02  -0.26
  12   6     0.09  -0.08   0.03     0.01  -0.01  -0.05    -0.03  -0.02   0.29
  13   9     0.06  -0.06  -0.01     0.00  -0.03   0.00    -0.00  -0.00   0.01
  14   6     0.29   0.07   0.02     0.04   0.02   0.03     0.02   0.03  -0.28
  15   6    -0.09   0.37   0.03    -0.01   0.07  -0.02    -0.03  -0.03   0.36
  16   6    -0.12   0.17   0.00    -0.02   0.01   0.02     0.03   0.02  -0.32
  17   6     0.14  -0.03  -0.06    -0.33   0.29  -0.10    -0.03   0.04   0.07
  18   6     0.13   0.16   0.03    -0.39  -0.21   0.04    -0.03  -0.02  -0.08
  19  17    -0.00   0.00  -0.00     0.00   0.00   0.00     0.00   0.00   0.00
  20   1     0.01  -0.01   0.03     0.00  -0.00   0.00     0.00  -0.00   0.01
  21   1    -0.01   0.01   0.00    -0.00  -0.00   0.00    -0.00   0.01  -0.00
  22   1    -0.00   0.01   0.02     0.00   0.00   0.00    -0.00   0.00   0.01
  23   1     0.08  -0.03  -0.03     0.01  -0.01  -0.01     0.02  -0.01  -0.01
  24   1    -0.00   0.06   0.06    -0.00   0.01   0.01     0.00   0.02   0.01
  25   1    -0.05   0.03  -0.01    -0.05  -0.06  -0.03     0.01   0.00  -0.00
  26   1    -0.06   0.01  -0.07     0.01  -0.04   0.05     0.00  -0.00  -0.01
  27   1     0.08   0.00  -0.01     0.07  -0.10   0.03     0.01  -0.02  -0.08
  28   1     0.01  -0.06  -0.05     0.08   0.08  -0.02     0.00  -0.01  -0.02
  29   1     0.09  -0.01  -0.01     0.00   0.03  -0.02    -0.01   0.02   0.07
  30   1    -0.13   0.00  -0.00    -0.04   0.04   0.00    -0.01   0.01  -0.10
  31   1     0.07  -0.04   0.00     0.00  -0.01   0.01     0.03   0.03  -0.27
  32   1     0.08  -0.03  -0.01     0.01   0.00   0.02     0.02   0.02  -0.23
  33   1    -0.08   0.08  -0.00    -0.01   0.02  -0.01     0.00  -0.00   0.01
  34   1     0.05  -0.01   0.00     0.01  -0.01   0.01     0.02   0.02  -0.29
  35   1    -0.03  -0.05  -0.05    -0.05   0.09  -0.04    -0.01  -0.00  -0.01
  36   1     0.06   0.02  -0.01    -0.08  -0.08   0.02    -0.01  -0.02  -0.07
                     31                     32                     33
                        a                      a                      a 
 Frequencies --   686.6256               742.5914               756.1797
 Red. masses --    10.6452                11.6972                 6.3198
 Frc consts  --     0.0000                 0.0000                 0.0000
 IR Inten    --     1.9735                 5.8407                 2.5480
 Raman Activ --     0.0000                 0.0000                 0.0000
 Depolar     --     0.0000                 0.0000                 0.0000
 Atom AN      X      Y      Z        X      Y      Z        X      Y      Z
   1   7     0.02  -0.01   0.01     0.00   0.01  -0.03    -0.01  -0.00   0.02
   2   6     0.03  -0.05  -0.06     0.09   0.00  -0.02    -0.04   0.03   0.04
   3   6    -0.04  -0.03  -0.04     0.21   0.03   0.09    -0.05   0.01  -0.04
   4   6    -0.07   0.13   0.48     0.02  -0.01  -0.04     0.02  -0.04  -0.16
   5   6     0.01  -0.09  -0.26    -0.15   0.04  -0.02     0.03   0.05   0.12
   6   6    -0.02   0.02   0.28    -0.16  -0.05  -0.01     0.05   0.07   0.04
   7   6     0.07  -0.12  -0.44     0.06   0.00   0.02    -0.06   0.04   0.12
   8   6     0.04   0.00  -0.00     0.19  -0.09   0.04    -0.03  -0.06  -0.39
   9   6     0.00   0.01   0.16     0.34  -0.00  -0.01     0.03   0.06   0.38
  10   6     0.01   0.01  -0.21     0.15  -0.04   0.03     0.05  -0.00  -0.09
  11   6     0.00  -0.03   0.02     0.11  -0.11   0.00     0.03  -0.02  -0.08
  12   6    -0.00  -0.01   0.04     0.02  -0.00  -0.01    -0.01  -0.01   0.16
  13   9    -0.01  -0.03  -0.03    -0.18  -0.31  -0.04    -0.03  -0.05  -0.05
  14   6     0.02   0.02   0.02     0.08   0.19   0.03     0.01   0.04  -0.08
  15   6    -0.02   0.07  -0.07    -0.23   0.47   0.03    -0.01   0.07  -0.09
  16   6    -0.03  -0.00   0.04    -0.22  -0.09  -0.02    -0.02  -0.04  -0.09
  17   6    -0.03   0.11   0.25    -0.12   0.09  -0.03     0.03  -0.05   0.04
  18   6    -0.01  -0.03  -0.28    -0.14  -0.01   0.00     0.02  -0.02   0.08
  19  17    -0.00   0.00  -0.00     0.00  -0.00   0.00     0.00   0.00   0.00
  20   1     0.01  -0.01   0.04    -0.03   0.01  -0.02    -0.00   0.00  -0.01
  21   1    -0.01   0.03  -0.01    -0.02   0.01  -0.02     0.01  -0.02   0.02
  22   1     0.00   0.01   0.02    -0.00  -0.04   0.03     0.00  -0.00  -0.01
  23   1     0.10  -0.04  -0.04    -0.10   0.03   0.03    -0.02   0.01   0.01
  24   1     0.01   0.07   0.03     0.03  -0.12  -0.08    -0.01  -0.00   0.01
  25   1     0.05   0.03  -0.00     0.04  -0.03   0.00    -0.04  -0.01  -0.01
  26   1     0.01  -0.00  -0.07     0.06  -0.01   0.07    -0.03  -0.00   0.02
  27   1     0.02  -0.03  -0.11    -0.06   0.01   0.02     0.01  -0.03  -0.16
  28   1    -0.02   0.02   0.10    -0.07   0.01   0.01     0.04  -0.05  -0.22
  29   1    -0.00   0.01   0.11     0.04  -0.02  -0.01    -0.05   0.03   0.34
  30   1     0.00   0.00  -0.06     0.12  -0.02   0.03     0.06  -0.01  -0.34
  31   1    -0.01  -0.02   0.09     0.01  -0.04  -0.02    -0.02  -0.03   0.15
  32   1     0.00  -0.00   0.05     0.02  -0.01  -0.01    -0.02  -0.01   0.18
  33   1    -0.01   0.01   0.05    -0.03   0.15  -0.01    -0.01   0.01   0.20
  34   1    -0.01  -0.02   0.12    -0.02  -0.05  -0.03    -0.02  -0.04   0.26
  35   1    -0.02   0.04   0.12    -0.04   0.02  -0.01     0.05  -0.04  -0.15
  36   1     0.00  -0.02  -0.11    -0.05   0.00   0.01     0.01  -0.03  -0.08
                     34                     35                     36
                        a                      a                      a 
 Frequencies --   765.4179               792.1375               813.5596
 Red. masses --     9.0668                 5.4694                 5.6963
 Frc consts  --     0.0000                 0.0000                 0.0000
 IR Inten    --    30.3736                43.6767                10.6076
 Raman Activ --     0.0000                 0.0000                 0.0000
 Depolar     --     0.0000                 0.0000                 0.0000
 Atom AN      X      Y      Z        X      Y      Z        X      Y      Z
   1   7    -0.01  -0.01   0.04    -0.00   0.00  -0.00    -0.02   0.01  -0.05
   2   6    -0.18  -0.01   0.05    -0.04  -0.03  -0.01    -0.05  -0.08  -0.03
   3   6    -0.29  -0.07  -0.12    -0.05  -0.04   0.00     0.02  -0.06   0.09
   4   6     0.04  -0.01   0.01     0.01   0.02   0.07     0.02   0.04   0.13
   5   6     0.14   0.09  -0.01     0.02   0.02  -0.09    -0.00   0.00  -0.19
   6   6     0.19   0.24  -0.04     0.03   0.03  -0.10     0.00  -0.06  -0.22
   7   6    -0.18   0.02  -0.04    -0.03   0.01   0.05    -0.01   0.07   0.33
   8   6    -0.28  -0.13   0.06    -0.03  -0.00   0.15     0.08  -0.01  -0.27
   9   6     0.20   0.14  -0.05     0.06   0.00  -0.24    -0.01  -0.02   0.21
  10   6     0.13  -0.02  -0.00     0.00  -0.02   0.30     0.02   0.01  -0.09
  11   6     0.06  -0.06   0.07     0.03   0.02  -0.21     0.00  -0.00   0.05
  12   6     0.02   0.02  -0.08    -0.01  -0.02   0.22     0.00   0.01  -0.03
  13   9    -0.10  -0.16  -0.00    -0.02  -0.02  -0.05    -0.01  -0.01   0.01
  14   6     0.01   0.10   0.06     0.03   0.03  -0.21    -0.01   0.00   0.04
  15   6    -0.09   0.19   0.05    -0.01   0.05  -0.12    -0.01   0.01   0.02
  16   6    -0.09  -0.12   0.03    -0.00  -0.00  -0.18    -0.00  -0.00   0.02
  17   6     0.16  -0.17   0.07     0.01  -0.05  -0.04    -0.03  -0.05  -0.20
  18   6     0.17  -0.06   0.03     0.01  -0.03  -0.02    -0.05  -0.03  -0.06
  19  17    -0.00   0.00  -0.00    -0.00   0.00  -0.00    -0.00  -0.00  -0.00
  20   1     0.07  -0.02   0.04     0.03  -0.01   0.02     0.07  -0.04   0.08
  21   1     0.05  -0.03   0.05     0.02  -0.00   0.01     0.03   0.02   0.00
  22   1     0.01   0.09  -0.08     0.00   0.04  -0.03     0.00   0.11  -0.08
  23   1     0.17  -0.06  -0.04     0.08  -0.03  -0.02     0.15  -0.07  -0.03
  24   1    -0.05   0.22   0.13    -0.01   0.08   0.03    -0.01   0.15   0.02
  25   1    -0.04   0.06   0.02     0.02   0.03   0.02     0.07   0.06   0.07
  26   1    -0.10   0.02  -0.13    -0.01   0.01  -0.06     0.01   0.02  -0.09
  27   1     0.02   0.01  -0.02    -0.01   0.04   0.14    -0.02   0.09   0.35
  28   1     0.11   0.03  -0.02     0.01   0.05   0.17    -0.02   0.08   0.36
  29   1    -0.13  -0.01  -0.06     0.01  -0.02  -0.20     0.02   0.01   0.16
  30   1     0.13  -0.01   0.08     0.01   0.00   0.11     0.01  -0.01  -0.20
  31   1    -0.02  -0.03  -0.10    -0.03  -0.03   0.27     0.02   0.01  -0.07
  32   1     0.01   0.01  -0.10    -0.03  -0.04   0.41     0.01   0.01  -0.08
  33   1     0.02   0.08  -0.09    -0.03  -0.01   0.31     0.01   0.01  -0.04
  34   1     0.01  -0.03  -0.13    -0.03  -0.03   0.32     0.00   0.00  -0.03
  35   1     0.13  -0.02  -0.02     0.01   0.02   0.09    -0.03   0.07   0.28
  36   1     0.04  -0.02  -0.01    -0.01   0.02   0.06    -0.04   0.05   0.18
                     37                     38                     39
                        a                      a                      a 
 Frequencies --   842.4328               853.4158               866.9395
 Red. masses --     5.2964                 3.8377                 3.4507
 Frc consts  --     0.0000                 0.0000                 0.0000
 IR Inten    --    24.3709                 3.9617                 1.4782
 Raman Activ --     0.0000                 0.0000                 0.0000
 Depolar     --     0.0000                 0.0000                 0.0000
 Atom AN      X      Y      Z        X      Y      Z        X      Y      Z
   1   7     0.11  -0.04   0.08     0.03  -0.03   0.03    -0.02  -0.03   0.00
   2   6     0.14   0.12  -0.04     0.02   0.04  -0.01    -0.01   0.01  -0.01
   3   6    -0.15   0.15  -0.21    -0.05   0.05  -0.07     0.02   0.04  -0.01
   4   6    -0.12   0.05   0.18    -0.02   0.02   0.06     0.01  -0.01  -0.04
   5   6     0.07  -0.17  -0.06     0.01  -0.01  -0.01     0.01  -0.05  -0.14
   6   6     0.07  -0.01  -0.10     0.02   0.03  -0.01    -0.00  -0.05  -0.19
   7   6    -0.07   0.04   0.09    -0.03   0.01   0.04     0.00  -0.01  -0.03
   8   6    -0.22  -0.08  -0.06    -0.03  -0.01  -0.03     0.00   0.00   0.00
   9   6     0.02   0.08   0.02     0.01   0.01   0.01    -0.01   0.00   0.01
  10   6     0.03   0.00   0.00     0.01  -0.00   0.03    -0.01  -0.00  -0.00
  11   6     0.01  -0.02   0.11     0.04   0.04  -0.41    -0.01  -0.00  -0.05
  12   6     0.01   0.01  -0.01     0.00  -0.00   0.04    -0.00  -0.00  -0.00
  13   9    -0.02  -0.03   0.00    -0.01  -0.01  -0.02     0.01   0.01   0.00
  14   6    -0.00   0.02  -0.03    -0.00  -0.01   0.13    -0.00  -0.01   0.04
  15   6     0.01   0.01  -0.03    -0.01  -0.00   0.11     0.00  -0.01   0.01
  16   6    -0.00  -0.04  -0.04    -0.02  -0.02   0.12     0.00   0.01  -0.00
  17   6     0.12  -0.02  -0.04     0.03  -0.05  -0.05    -0.01   0.10   0.36
  18   6     0.14   0.08  -0.05     0.02  -0.02  -0.02     0.00   0.03   0.10
  19  17     0.01  -0.00   0.00     0.00  -0.00   0.00     0.00   0.00   0.00
  20   1    -0.17   0.07  -0.12    -0.04   0.01  -0.01     0.04  -0.03   0.07
  21   1    -0.13   0.01  -0.08    -0.03   0.01  -0.02     0.01   0.02   0.00
  22   1    -0.01  -0.28   0.28    -0.00  -0.07   0.08    -0.00   0.05  -0.03
  23   1    -0.25   0.12  -0.00    -0.06   0.03   0.01     0.01  -0.01   0.04
  24   1     0.02  -0.29   0.04    -0.00  -0.07   0.02    -0.00   0.03  -0.02
  25   1    -0.09  -0.13  -0.18    -0.03  -0.05  -0.06    -0.01  -0.03  -0.03
  26   1    -0.00  -0.04   0.15    -0.00  -0.01   0.05     0.01  -0.00   0.04
  27   1     0.02   0.00   0.17    -0.00  -0.00   0.01    -0.02   0.07   0.33
  28   1    -0.00   0.05   0.19     0.01   0.01   0.01    -0.03   0.08   0.32
  29   1    -0.10   0.00   0.00    -0.00  -0.00   0.02     0.00   0.00   0.03
  30   1     0.05  -0.01  -0.03     0.02  -0.00  -0.05     0.01  -0.01  -0.04
  31   1    -0.00   0.01  -0.18    -0.07  -0.07   0.72    -0.01  -0.01   0.09
  32   1    -0.01   0.00   0.05     0.02   0.01  -0.20     0.01   0.01  -0.07
  33   1     0.01   0.00   0.08     0.03   0.03  -0.29    -0.00  -0.00  -0.04
  34   1    -0.00  -0.02   0.05     0.02   0.01  -0.19     0.00   0.00   0.01
  35   1     0.05   0.03   0.08     0.02   0.02   0.11     0.03  -0.17  -0.65
  36   1     0.08   0.00   0.03     0.01   0.01   0.05     0.01  -0.06  -0.25
                     40                     41                     42
                        a                      a                      a 
 Frequencies --   879.6571               883.4481               892.1888
 Red. masses --     9.7134                 4.1226                 4.5980
 Frc consts  --     0.0000                 0.0000                 0.0000
 IR Inten    --     5.4439                 0.7851                12.7611
 Raman Activ --     0.0000                 0.0000                 0.0000
 Depolar     --     0.0000                 0.0000                 0.0000
 Atom AN      X      Y      Z        X      Y      Z        X      Y      Z
   1   7    -0.04   0.15  -0.23    -0.00   0.05  -0.03     0.04   0.22  -0.05
   2   6     0.14  -0.18   0.02     0.02  -0.03   0.02     0.05  -0.04   0.10
   3   6     0.07  -0.13   0.33    -0.01  -0.06   0.05    -0.13  -0.29   0.09
   4   6    -0.13  -0.01  -0.07    -0.01  -0.00  -0.01     0.05  -0.01   0.00
   5   6     0.08  -0.29   0.07     0.01  -0.00   0.01     0.00   0.20  -0.06
   6   6     0.00  -0.16   0.06     0.01  -0.00   0.01     0.07   0.11  -0.06
   7   6    -0.04  -0.00   0.02    -0.00  -0.00  -0.00     0.01  -0.02  -0.01
   8   6    -0.35  -0.11  -0.03    -0.03  -0.00   0.03     0.17   0.06  -0.00
   9   6     0.01   0.13  -0.01     0.01   0.01  -0.04    -0.01  -0.05   0.02
  10   6     0.03   0.01   0.01    -0.00  -0.01   0.11    -0.02  -0.00  -0.03
  11   6     0.02  -0.00  -0.04     0.00   0.00  -0.02    -0.01  -0.00  -0.00
  12   6     0.01   0.01   0.02     0.01   0.01  -0.07    -0.01  -0.01   0.01
  13   9    -0.02  -0.03  -0.01    -0.01  -0.01   0.01     0.01   0.02   0.00
  14   6     0.00   0.02  -0.03    -0.03  -0.03   0.34     0.00  -0.01  -0.04
  15   6     0.01  -0.00   0.01    -0.00   0.00  -0.01    -0.01  -0.00   0.00
  16   6    -0.01  -0.06   0.05     0.03   0.02  -0.36    -0.00   0.03   0.06
  17   6     0.02   0.26  -0.04    -0.00   0.01  -0.02    -0.04  -0.10   0.08
  18   6     0.16   0.33  -0.06     0.01   0.03  -0.01    -0.09  -0.10   0.03
  19  17     0.00  -0.00   0.00     0.00  -0.00   0.00     0.01  -0.00   0.01
  20   1    -0.02   0.03  -0.04    -0.03   0.04  -0.08    -0.19   0.19  -0.40
  21   1    -0.04   0.07  -0.08    -0.01  -0.02  -0.00    -0.07  -0.17   0.00
  22   1    -0.02   0.02  -0.02    -0.00  -0.04   0.01     0.00  -0.26   0.12
  23   1     0.03  -0.03  -0.06    -0.01   0.01  -0.04    -0.07   0.07  -0.23
  24   1     0.04  -0.05  -0.06     0.00  -0.02   0.01    -0.00  -0.14   0.13
  25   1     0.07   0.16   0.24     0.02   0.05   0.06     0.07   0.19   0.21
  26   1    -0.04   0.05  -0.11    -0.02   0.01  -0.06    -0.12   0.05  -0.28
  27   1     0.09  -0.05   0.03     0.01  -0.00  -0.02    -0.02   0.06   0.03
  28   1    -0.04  -0.03  -0.03     0.00  -0.00  -0.01     0.06   0.02   0.07
  29   1    -0.17   0.01   0.01    -0.01  -0.00  -0.06     0.08  -0.00   0.03
  30   1     0.05   0.00   0.01    -0.00   0.00   0.00    -0.03   0.00  -0.02
  31   1    -0.04  -0.03   0.07    -0.00  -0.00   0.02     0.01   0.01   0.01
  32   1    -0.00   0.00   0.07     0.05   0.05  -0.58    -0.01  -0.01   0.07
  33   1     0.02   0.01  -0.03    -0.00  -0.00   0.04    -0.01  -0.00  -0.02
  34   1     0.01  -0.01  -0.08    -0.05  -0.05   0.58     0.01   0.02  -0.10
  35   1    -0.03   0.05  -0.05    -0.01   0.01   0.02    -0.01  -0.06  -0.09
  36   1     0.11   0.05  -0.01     0.00   0.01   0.00    -0.07  -0.01  -0.03
                     43                     44                     45
                        a                      a                      a 
 Frequencies --   905.3680               921.1748               921.6393
 Red. masses --     3.3586                 7.0728                 3.5399
 Frc consts  --     0.0000                 0.0000                 0.0000
 IR Inten    --     0.7742                39.6484                 1.7536
 Raman Activ --     0.0000                 0.0000                 0.0000
 Depolar     --     0.0000                 0.0000                 0.0000
 Atom AN      X      Y      Z        X      Y      Z        X      Y      Z
   1   7     0.01  -0.00  -0.01    -0.01  -0.05   0.38     0.00   0.01  -0.07
   2   6     0.01  -0.01  -0.01    -0.20   0.23  -0.02     0.04  -0.05   0.00
   3   6    -0.03   0.01   0.00     0.24  -0.15  -0.24    -0.04   0.03   0.05
   4   6     0.00   0.00   0.00     0.04  -0.01  -0.00    -0.01   0.00   0.00
   5   6     0.01  -0.06  -0.32     0.01  -0.11  -0.01    -0.00   0.02   0.00
   6   6    -0.01   0.09   0.30    -0.08  -0.17   0.04     0.02   0.03  -0.01
   7   6     0.00   0.00   0.02     0.01  -0.01   0.02    -0.00   0.00   0.00
   8   6     0.02   0.01   0.00    -0.12  -0.04  -0.02     0.02   0.01  -0.01
   9   6     0.00  -0.01  -0.02    -0.00   0.04  -0.01     0.00  -0.01  -0.01
  10   6    -0.00  -0.00   0.00     0.01   0.00   0.01    -0.01  -0.00   0.05
  11   6    -0.00  -0.00   0.00     0.01   0.00  -0.02     0.01   0.01  -0.09
  12   6    -0.00  -0.00  -0.00     0.01   0.00   0.01    -0.01  -0.00   0.05
  13   9     0.00   0.00   0.00    -0.01  -0.01  -0.00     0.00   0.00   0.00
  14   6     0.00  -0.00   0.00    -0.00   0.00   0.03    -0.01  -0.01   0.16
  15   6    -0.00   0.00  -0.00     0.01   0.00  -0.07     0.03   0.03  -0.37
  16   6     0.00   0.01  -0.00    -0.01  -0.02   0.04    -0.02  -0.01   0.19
  17   6     0.00  -0.03  -0.02    -0.05   0.21  -0.07     0.01  -0.04   0.01
  18   6    -0.01  -0.02   0.01     0.03   0.14  -0.01    -0.00  -0.02   0.00
  19  17     0.00  -0.00  -0.00    -0.00  -0.00   0.01     0.00   0.00  -0.00
  20   1    -0.01  -0.00   0.01     0.01   0.06  -0.23    -0.00  -0.01   0.05
  21   1    -0.01   0.02  -0.02     0.17  -0.36   0.29    -0.03   0.07  -0.06
  22   1    -0.00  -0.01   0.02     0.04  -0.06  -0.13    -0.01   0.01   0.02
  23   1    -0.00  -0.00   0.00     0.00   0.06  -0.09     0.00  -0.01   0.02
  24   1     0.00  -0.00   0.01    -0.05   0.11  -0.02     0.01  -0.02   0.00
  25   1    -0.00  -0.00  -0.01     0.19  -0.02  -0.09    -0.04   0.00   0.02
  26   1    -0.01   0.00   0.00     0.08  -0.03  -0.14    -0.01   0.00   0.03
  27   1    -0.04   0.15   0.62     0.03  -0.00   0.06    -0.01  -0.00  -0.01
  28   1     0.04  -0.14  -0.59    -0.05  -0.03  -0.01     0.01   0.01   0.01
  29   1     0.01   0.00   0.02    -0.07   0.01   0.02     0.01  -0.00   0.02
  30   1    -0.00   0.00   0.04     0.01   0.00   0.01    -0.00  -0.00   0.02
  31   1     0.00   0.00  -0.00    -0.01  -0.01   0.03    -0.00  -0.00   0.04
  32   1     0.00   0.00  -0.01     0.01   0.01  -0.06     0.03   0.03  -0.33
  33   1    -0.00  -0.00   0.01    -0.00  -0.01   0.13    -0.06  -0.06   0.71
  34   1    -0.00   0.00   0.01     0.01   0.00  -0.08     0.03   0.03  -0.37
  35   1     0.00  -0.02  -0.06    -0.04   0.06   0.01     0.01  -0.01   0.00
  36   1    -0.01   0.03   0.12     0.04   0.01  -0.04    -0.01  -0.00   0.01
                     46                     47                     48
                        a                      a                      a 
 Frequencies --   950.8805               967.4138               981.0154
 Red. masses --     3.3322                 2.3180                10.0960
 Frc consts  --     0.0000                 0.0000                 0.0000
 IR Inten    --     4.0969                20.6993                52.2473
 Raman Activ --     0.0000                 0.0000                 0.0000
 Depolar     --     0.0000                 0.0000                 0.0000
 Atom AN      X      Y      Z        X      Y      Z        X      Y      Z
   1   7    -0.03   0.02  -0.02     0.00  -0.00  -0.01     0.00  -0.00  -0.00
   2   6     0.03  -0.02   0.02     0.00  -0.00   0.00    -0.00   0.00  -0.00
   3   6    -0.01  -0.00   0.01    -0.01   0.00   0.00    -0.01  -0.00  -0.00
   4   6    -0.01  -0.01  -0.02     0.00  -0.00   0.01     0.01  -0.01   0.00
   5   6     0.01  -0.03  -0.10     0.00  -0.01  -0.01    -0.02   0.05  -0.02
   6   6     0.01   0.04   0.04     0.01   0.00  -0.02    -0.01   0.00  -0.01
   7   6    -0.00  -0.01  -0.04    -0.02   0.01   0.01     0.02  -0.02   0.03
   8   6     0.01   0.01   0.03     0.03   0.00  -0.21     0.01  -0.13  -0.03
   9   6    -0.00  -0.01   0.02    -0.05  -0.02  -0.22     0.36   0.11  -0.01
  10   6     0.01   0.00  -0.00     0.01   0.01   0.02    -0.09  -0.08   0.00
  11   6     0.01   0.01   0.00     0.06  -0.02   0.01    -0.40  -0.09  -0.04
  12   6     0.00   0.00   0.00     0.03   0.03   0.00    -0.25  -0.17  -0.04
  13   9    -0.00  -0.00  -0.00    -0.03  -0.04  -0.01     0.21   0.25   0.04
  14   6    -0.00   0.00  -0.00    -0.08   0.04  -0.00     0.35  -0.19   0.01
  15   6    -0.00   0.00   0.00     0.01  -0.01   0.00    -0.08   0.02  -0.01
  16   6    -0.00  -0.01   0.00     0.02  -0.00  -0.02    -0.04   0.18   0.00
  17   6     0.01  -0.08  -0.18     0.01  -0.01  -0.00     0.01   0.05  -0.02
  18   6    -0.03   0.09   0.37     0.01   0.01   0.03    -0.01  -0.02   0.01
  19  17     0.00   0.00   0.01     0.00   0.00   0.00    -0.00  -0.00  -0.00
  20   1     0.02  -0.00   0.01     0.00  -0.00   0.01    -0.00  -0.00   0.01
  21   1    -0.00   0.01  -0.01    -0.00   0.01  -0.01    -0.00   0.01  -0.01
  22   1    -0.00   0.01  -0.02    -0.00   0.00   0.00    -0.00  -0.00   0.01
  23   1    -0.01  -0.00   0.01    -0.00  -0.00   0.00    -0.00   0.00   0.00
  24   1     0.01  -0.02  -0.02    -0.00  -0.00   0.00    -0.00  -0.00   0.00
  25   1    -0.01   0.01   0.01    -0.00  -0.00  -0.00     0.00  -0.00  -0.00
  26   1    -0.03   0.01   0.01    -0.01   0.00   0.00    -0.01   0.00   0.00
  27   1    -0.01   0.02   0.10    -0.00  -0.00  -0.00    -0.01   0.01  -0.00
  28   1    -0.00   0.01   0.00     0.01   0.01   0.04    -0.01   0.01   0.01
  29   1     0.01  -0.01  -0.07    -0.03   0.05   0.64    -0.12   0.04   0.10
  30   1    -0.01   0.00  -0.06    -0.07   0.02   0.66     0.14   0.01   0.11
  31   1     0.00   0.00   0.00     0.05   0.01   0.03    -0.27  -0.10  -0.03
  32   1    -0.00  -0.00   0.00    -0.02   0.01   0.01     0.10  -0.02   0.01
  33   1     0.00   0.00  -0.00     0.04   0.02  -0.01    -0.27  -0.11  -0.03
  34   1    -0.00  -0.00  -0.01    -0.01   0.00   0.04    -0.01   0.05   0.01
  35   1    -0.01   0.08   0.33    -0.03  -0.00   0.05     0.05   0.04   0.02
  36   1     0.02  -0.19  -0.78     0.00  -0.02  -0.08     0.01  -0.02  -0.02
                     49                     50                     51
                        a                      a                      a 
 Frequencies --   993.1358              1019.6253              1033.7718
 Red. masses --    10.7955                 8.3678                 7.7070
 Frc consts  --     0.0000                 0.0000                 0.0000
 IR Inten    --     2.3202                 3.3866                20.3556
 Raman Activ --     0.0000                 0.0000                 0.0000
 Depolar     --     0.0000                 0.0000                 0.0000
 Atom AN      X      Y      Z        X      Y      Z        X      Y      Z
   1   7    -0.00   0.00   0.00    -0.05  -0.04   0.09    -0.21   0.31  -0.11
   2   6     0.00  -0.00  -0.00     0.10   0.05  -0.10     0.17  -0.34   0.38
   3   6     0.00  -0.00   0.00     0.06  -0.04   0.05     0.06   0.19  -0.26
   4   6    -0.00   0.00  -0.00    -0.17   0.02   0.01    -0.02   0.09   0.06
   5   6     0.01  -0.03   0.01    -0.01  -0.31   0.08    -0.01  -0.10   0.01
   6   6     0.01   0.01  -0.00     0.11   0.39  -0.09    -0.04  -0.01  -0.00
   7   6    -0.01   0.01  -0.01    -0.08   0.00  -0.01    -0.01   0.03  -0.00
   8   6     0.00   0.05  -0.01     0.13   0.03   0.01     0.00   0.00  -0.00
   9   6    -0.13  -0.06  -0.01     0.06  -0.04   0.01     0.01  -0.00  -0.00
  10   6     0.09  -0.02  -0.00     0.01  -0.02  -0.00    -0.00  -0.00  -0.00
  11   6    -0.16   0.57   0.04    -0.03  -0.04  -0.00    -0.01  -0.00  -0.00
  12   6    -0.03  -0.11  -0.01    -0.03  -0.01  -0.00    -0.00  -0.00  -0.00
  13   9     0.02   0.05   0.01     0.02   0.02   0.00     0.00   0.00   0.00
  14   6     0.42  -0.08   0.03     0.00  -0.02  -0.00     0.01  -0.00  -0.00
  15   6    -0.02   0.07   0.01    -0.02   0.01  -0.00    -0.00   0.00   0.00
  16   6    -0.22  -0.49  -0.06     0.01   0.06   0.01    -0.00   0.00   0.00
  17   6    -0.00  -0.03   0.01    -0.01  -0.39   0.10     0.03  -0.05   0.01
  18   6     0.01   0.02  -0.01     0.05   0.33  -0.10     0.00  -0.06  -0.01
  19  17     0.00   0.00  -0.00    -0.00  -0.00   0.00    -0.00  -0.00   0.00
  20   1     0.00   0.00  -0.00     0.05  -0.01  -0.01     0.01   0.12  -0.25
  21   1     0.00  -0.00   0.00     0.08  -0.09   0.10     0.08  -0.17   0.12
  22   1     0.00   0.00  -0.00     0.01   0.04  -0.10    -0.01   0.10  -0.25
  23   1    -0.00   0.00  -0.00    -0.05   0.03   0.00     0.05  -0.08   0.05
  24   1     0.00  -0.00  -0.00     0.04  -0.04  -0.18     0.05  -0.03   0.03
  25   1     0.00   0.00   0.00     0.05   0.02   0.03    -0.32  -0.06  -0.05
  26   1     0.00  -0.00  -0.00    -0.03   0.02  -0.00     0.27  -0.10   0.05
  27   1    -0.00  -0.01   0.00    -0.17  -0.16   0.02    -0.04  -0.04   0.03
  28   1    -0.00   0.01   0.00    -0.11   0.20  -0.05    -0.06   0.03   0.00
  29   1     0.02   0.01   0.03     0.07  -0.01   0.00     0.01  -0.00   0.01
  30   1    -0.11   0.03   0.02    -0.01   0.01  -0.01     0.02  -0.01   0.01
  31   1     0.07   0.21   0.02    -0.02  -0.02  -0.01    -0.01  -0.00   0.01
  32   1     0.12  -0.04   0.01     0.00  -0.01   0.00     0.00  -0.00   0.00
  33   1     0.06   0.04   0.01    -0.04  -0.01  -0.00    -0.01  -0.00  -0.01
  34   1    -0.03  -0.16  -0.01    -0.00   0.02   0.00     0.00  -0.00  -0.01
  35   1    -0.03  -0.03  -0.01    -0.21  -0.20   0.04     0.04   0.00   0.01
  36   1    -0.00   0.01   0.00    -0.11   0.19  -0.01     0.03  -0.03   0.04
                     52                     53                     54
                        a                      a                      a 
 Frequencies --  1056.1168              1076.2538              1120.9618
 Red. masses --     5.0017                 7.1233                 3.9343
 Frc consts  --     0.0000                 0.0000                 0.0000
 IR Inten    --    10.1733                 9.4710                 1.8011
 Raman Activ --     0.0000                 0.0000                 0.0000
 Depolar     --     0.0000                 0.0000                 0.0000
 Atom AN      X      Y      Z        X      Y      Z        X      Y      Z
   1   7     0.19   0.04  -0.10     0.08  -0.04   0.21     0.00  -0.00  -0.00
   2   6    -0.38  -0.09   0.10    -0.02  -0.10  -0.50    -0.00   0.00   0.01
   3   6     0.20   0.12   0.01    -0.08   0.30   0.32     0.01  -0.01  -0.00
   4   6     0.10   0.01  -0.10    -0.04   0.08  -0.05    -0.01   0.01  -0.00
   5   6    -0.01  -0.20   0.06    -0.01  -0.03   0.01    -0.00  -0.01   0.00
   6   6    -0.06   0.04  -0.01    -0.02  -0.04   0.02    -0.00  -0.01   0.00
   7   6    -0.02   0.02  -0.01    -0.00   0.05  -0.01     0.01   0.01  -0.00
   8   6     0.03   0.00   0.00    -0.01   0.01  -0.00    -0.01  -0.02   0.00
   9   6     0.02  -0.02   0.00    -0.01   0.00  -0.00     0.03   0.04  -0.00
  10   6     0.01  -0.01  -0.00    -0.01   0.00   0.00    -0.07   0.09   0.00
  11   6    -0.01  -0.01  -0.00    -0.00  -0.00  -0.00     0.10  -0.16  -0.01
  12   6    -0.01  -0.00  -0.00    -0.00  -0.00  -0.00    -0.07  -0.04  -0.01
  13   9     0.00   0.00   0.00     0.00   0.00   0.00     0.03   0.03   0.01
  14   6     0.00  -0.01  -0.00     0.00   0.00   0.00     0.16   0.17   0.03
  15   6    -0.01   0.01  -0.00     0.00  -0.00   0.00     0.08  -0.23  -0.01
  16   6     0.01   0.02   0.00    -0.00  -0.01  -0.00    -0.28  -0.09  -0.03
  17   6    -0.04  -0.07   0.02     0.06  -0.04   0.02     0.00  -0.02   0.00
  18   6     0.03   0.12  -0.01    -0.02  -0.12   0.04    -0.01   0.00  -0.00
  19  17     0.00   0.00   0.00    -0.00  -0.00   0.00    -0.00  -0.00  -0.00
  20   1    -0.13   0.05  -0.02    -0.02   0.04  -0.13    -0.00  -0.00   0.00
  21   1    -0.15   0.12  -0.17     0.04  -0.16   0.10    -0.00   0.00  -0.00
  22   1    -0.00  -0.16   0.27     0.03  -0.10   0.01    -0.00   0.00   0.00
  23   1     0.20  -0.09  -0.12     0.15  -0.04  -0.31    -0.00   0.00   0.00
  24   1    -0.12   0.22   0.39     0.00   0.09  -0.16    -0.00   0.00   0.00
  25   1     0.04  -0.07  -0.08    -0.36   0.06   0.17     0.01  -0.00  -0.00
  26   1     0.31  -0.07  -0.04     0.20  -0.02   0.07     0.00  -0.00  -0.00
  27   1    -0.10  -0.10   0.00     0.05   0.01  -0.00     0.01   0.00  -0.00
  28   1    -0.13   0.08  -0.04    -0.04   0.01  -0.01    -0.01   0.00  -0.00
  29   1     0.01  -0.00  -0.00     0.02  -0.01   0.01     0.09  -0.06   0.00
  30   1    -0.01   0.00  -0.00     0.04  -0.02   0.01     0.08  -0.03   0.00
  31   1    -0.01  -0.01  -0.00     0.01   0.00   0.00     0.16   0.01   0.02
  32   1     0.00  -0.00  -0.00     0.00   0.01   0.00     0.10   0.72   0.07
  33   1    -0.02  -0.00  -0.00     0.00   0.00  -0.00     0.02  -0.07  -0.00
  34   1    -0.00   0.01   0.00     0.01  -0.01  -0.00    -0.36   0.17  -0.02
  35   1    -0.09  -0.05   0.00     0.13   0.03  -0.01     0.02   0.00   0.00
  36   1    -0.05   0.07  -0.06     0.03  -0.07  -0.01    -0.03   0.02  -0.01
                     55                     56                     57
                        a                      a                      a 
 Frequencies --  1138.6880              1149.3777              1184.4003
 Red. masses --     3.8380                 4.5840                 2.3384
 Frc consts  --     0.0000                 0.0000                 0.0000
 IR Inten    --    14.3603                24.5170                 6.6305
 Raman Activ --     0.0000                 0.0000                 0.0000
 Depolar     --     0.0000                 0.0000                 0.0000
 Atom AN      X      Y      Z        X      Y      Z        X      Y      Z
   1   7    -0.01  -0.02  -0.03     0.01   0.02   0.02     0.00   0.00  -0.00
   2   6     0.00   0.07   0.06    -0.01  -0.06  -0.03    -0.00  -0.00   0.00
   3   6     0.03  -0.09  -0.03     0.00   0.06   0.02     0.01  -0.00   0.00
   4   6    -0.02   0.12  -0.03    -0.02  -0.10   0.02    -0.02  -0.00  -0.00
   5   6     0.08  -0.12   0.03    -0.09   0.07  -0.02     0.00  -0.03   0.01
   6   6    -0.09  -0.08   0.01     0.09   0.06  -0.01     0.00  -0.02   0.01
   7   6    -0.05   0.13  -0.04     0.01  -0.12   0.03    -0.09   0.03  -0.01
   8   6    -0.01   0.04  -0.00    -0.02  -0.05   0.00     0.02   0.07  -0.00
   9   6     0.07   0.08  -0.00     0.15   0.11   0.01    -0.07  -0.04  -0.00
  10   6    -0.16   0.03  -0.00    -0.20   0.02  -0.01     0.10  -0.07   0.00
  11   6    -0.05  -0.03  -0.01    -0.04  -0.05  -0.01     0.15   0.11   0.02
  12   6    -0.10  -0.17  -0.02    -0.14  -0.24  -0.03     0.06   0.13   0.02
  13   9     0.07   0.10   0.01     0.10   0.14   0.02    -0.05  -0.05  -0.01
  14   6    -0.12  -0.02  -0.01    -0.16  -0.02  -0.01    -0.03  -0.00  -0.00
  15   6    -0.02   0.06   0.00    -0.02   0.07   0.00    -0.12  -0.01  -0.01
  16   6     0.05  -0.05  -0.00     0.05  -0.03   0.00     0.06  -0.02   0.00
  17   6     0.05  -0.12   0.03    -0.06   0.10  -0.03    -0.01   0.00  -0.00
  18   6    -0.10  -0.03  -0.00     0.06   0.08  -0.01     0.01   0.03  -0.01
  19  17     0.00  -0.00  -0.00    -0.00   0.00   0.00     0.00  -0.00  -0.00
  20   1     0.01  -0.02   0.04    -0.01   0.02  -0.03     0.00   0.00  -0.00
  21   1    -0.00   0.02  -0.01    -0.00  -0.01   0.01    -0.00   0.00  -0.00
  22   1    -0.00   0.02   0.00     0.00  -0.02   0.00     0.00  -0.00   0.00
  23   1    -0.03   0.03   0.02     0.03  -0.03  -0.00     0.00  -0.00   0.00
  24   1    -0.00  -0.02   0.01    -0.00   0.03  -0.01    -0.00   0.00  -0.00
  25   1     0.05   0.01   0.01     0.00  -0.02  -0.02     0.01  -0.00  -0.00
  26   1    -0.00  -0.01  -0.05     0.01   0.00   0.04     0.00  -0.00  -0.00
  27   1     0.32   0.10  -0.00    -0.34  -0.12   0.01    -0.02  -0.02   0.00
  28   1    -0.24   0.12  -0.04     0.29  -0.17   0.06     0.11  -0.08   0.02
  29   1     0.16  -0.09   0.02     0.06  -0.05  -0.01     0.06  -0.01   0.01
  30   1     0.27  -0.12   0.04     0.09   0.00  -0.00     0.00  -0.02   0.00
  31   1     0.31   0.13   0.04     0.45   0.19   0.06    -0.04  -0.00  -0.01
  32   1    -0.04  -0.01  -0.00    -0.04   0.06   0.00     0.02   0.35   0.03
  33   1     0.08   0.06   0.01     0.11   0.08   0.02    -0.63  -0.28  -0.08
  34   1     0.23  -0.17   0.01     0.22  -0.16   0.01     0.42  -0.28   0.01
  35   1     0.34   0.10  -0.01    -0.19  -0.04   0.01     0.05   0.02  -0.00
  36   1    -0.27   0.16  -0.05     0.21  -0.11   0.03     0.01   0.01  -0.00
                     58                     59                     60
                        a                      a                      a 
 Frequencies --  1191.4919              1193.4970              1210.4733
 Red. masses --     3.2337                 4.0617                 4.3567
 Frc consts  --     0.0000                 0.0000                 0.0000
 IR Inten    --     2.7964                 3.9340                 2.7319
 Raman Activ --     0.0000                 0.0000                 0.0000
 Depolar     --     0.0000                 0.0000                 0.0000
 Atom AN      X      Y      Z        X      Y      Z        X      Y      Z
   1   7    -0.00   0.03   0.02    -0.03  -0.18  -0.06    -0.01   0.04   0.02
   2   6     0.00  -0.08  -0.04     0.04   0.36   0.10     0.01  -0.07  -0.07
   3   6    -0.04   0.05   0.02     0.02  -0.18  -0.12    -0.12   0.04   0.00
   4   6     0.04  -0.04   0.01     0.11   0.09   0.02     0.27  -0.02   0.04
   5   6     0.04   0.15  -0.03    -0.02  -0.03  -0.00    -0.01   0.03  -0.01
   6   6    -0.03   0.10  -0.03     0.01  -0.03   0.00     0.04  -0.08   0.02
   7   6     0.27  -0.08   0.04     0.10  -0.02   0.01     0.30  -0.10   0.05
   8   6    -0.10  -0.13   0.00    -0.04  -0.04   0.00    -0.08  -0.06  -0.00
   9   6     0.07   0.00   0.00     0.02   0.00   0.00    -0.02   0.03  -0.01
  10   6    -0.07  -0.00  -0.01    -0.03   0.00  -0.00    -0.15   0.09  -0.00
  11   6     0.07   0.02   0.01     0.02   0.01   0.00     0.04   0.04   0.01
  12   6    -0.00  -0.06  -0.00     0.00  -0.01  -0.00     0.09   0.06   0.01
  13   9     0.01   0.03   0.00     0.00   0.01   0.00    -0.03  -0.04  -0.01
  14   6    -0.07  -0.01  -0.01    -0.02  -0.00  -0.00     0.01   0.00   0.00
  15   6    -0.02   0.01  -0.00    -0.00   0.00  -0.00     0.03  -0.07  -0.00
  16   6     0.01  -0.00   0.00    -0.00  -0.00  -0.00    -0.05  -0.04  -0.01
  17   6     0.00  -0.01   0.00    -0.03   0.01  -0.01     0.08   0.10  -0.02
  18   6     0.00  -0.12   0.03     0.03  -0.07   0.02    -0.06   0.02  -0.01
  19  17    -0.00   0.00   0.00    -0.00   0.00  -0.00     0.00  -0.00   0.00
  20   1    -0.01   0.02  -0.04     0.05  -0.11   0.18    -0.01   0.02  -0.03
  21   1    -0.00  -0.02   0.01     0.02   0.11  -0.04     0.00  -0.04   0.02
  22   1     0.00  -0.01  -0.01    -0.02   0.09   0.02     0.00  -0.01  -0.02
  23   1     0.03  -0.03   0.01    -0.15   0.17  -0.10     0.01  -0.03   0.02
  24   1     0.00   0.01   0.01    -0.00  -0.10   0.05     0.00   0.00   0.02
  25   1     0.06  -0.03  -0.05    -0.44   0.19   0.30    -0.06  -0.03  -0.02
  26   1    -0.09   0.03   0.08     0.31  -0.10  -0.29    -0.19   0.06   0.08
  27   1     0.26   0.15  -0.02    -0.17  -0.08   0.02    -0.45  -0.19   0.02
  28   1    -0.43   0.33  -0.10    -0.11   0.07  -0.02    -0.09   0.05  -0.02
  29   1    -0.28   0.11  -0.03    -0.09   0.04  -0.01    -0.22   0.09  -0.02
  30   1    -0.17   0.11  -0.02    -0.04   0.03  -0.00     0.05  -0.03   0.01
  31   1     0.13   0.05   0.03     0.03   0.01   0.01    -0.08  -0.02  -0.00
  32   1    -0.01   0.15   0.01    -0.00   0.04   0.00     0.01   0.04   0.00
  33   1    -0.06  -0.02  -0.01    -0.01  -0.00   0.00     0.06   0.00   0.00
  34   1     0.14  -0.10   0.00     0.04  -0.03   0.00     0.11  -0.10   0.00
  35   1    -0.34  -0.15   0.02    -0.08  -0.02   0.01     0.13   0.07  -0.01
  36   1     0.13  -0.13   0.04     0.06  -0.06   0.01    -0.43   0.30  -0.09
                     61                     62                     63
                        a                      a                      a 
 Frequencies --  1226.5705              1232.3380              1251.0231
 Red. masses --     5.6500                 2.8842                 4.9909
 Frc consts  --     0.0000                 0.0000                 0.0000
 IR Inten    --    14.7043                40.1886                 5.4756
 Raman Activ --     0.0000                 0.0000                 0.0000
 Depolar     --     0.0000                 0.0000                 0.0000
 Atom AN      X      Y      Z        X      Y      Z        X      Y      Z
   1   7    -0.06  -0.01  -0.00     0.24   0.10   0.01    -0.02  -0.03  -0.01
   2   6     0.05  -0.01  -0.03    -0.19  -0.01   0.04     0.02   0.02   0.06
   3   6    -0.08   0.05   0.01     0.05  -0.14  -0.10     0.11   0.01   0.05
   4   6     0.16  -0.03   0.02    -0.04   0.04   0.03    -0.36   0.05  -0.06
   5   6     0.06  -0.08   0.02     0.00  -0.01  -0.00    -0.08   0.04  -0.01
   6   6    -0.08  -0.05   0.01     0.02  -0.00  -0.00     0.11   0.11  -0.02
   7   6    -0.20   0.02  -0.01    -0.02  -0.02   0.01     0.02  -0.14   0.04
   8   6     0.07  -0.06   0.01     0.02  -0.02   0.00     0.14  -0.00   0.01
   9   6     0.04  -0.12   0.01     0.01  -0.04   0.00    -0.03  -0.14   0.00
  10   6     0.26  -0.23  -0.01     0.05  -0.05  -0.00    -0.03   0.07  -0.00
  11   6     0.03  -0.02   0.00     0.02   0.01   0.00     0.10   0.06   0.01
  12   6    -0.16  -0.20  -0.03    -0.03  -0.05  -0.01     0.05  -0.16  -0.01
  13   9     0.07   0.10   0.01     0.01   0.02   0.00     0.01   0.05   0.00
  14   6    -0.11  -0.03  -0.01    -0.03  -0.01  -0.00    -0.07  -0.12  -0.02
  15   6    -0.06   0.19   0.01    -0.01   0.04   0.00    -0.04   0.03  -0.00
  16   6     0.11   0.09   0.02     0.02   0.02   0.00    -0.08   0.06  -0.00
  17   6     0.03   0.08  -0.02     0.02  -0.01  -0.00     0.07  -0.08   0.03
  18   6     0.06   0.04  -0.01    -0.01  -0.01  -0.00    -0.13   0.04  -0.02
  19  17    -0.00  -0.00  -0.00     0.00   0.00   0.00    -0.00  -0.00  -0.00
  20   1     0.03  -0.02   0.02    -0.13   0.10  -0.08     0.01  -0.02   0.02
  21   1     0.03  -0.02   0.03    -0.09  -0.02  -0.07     0.00   0.02  -0.01
  22   1    -0.01   0.03  -0.04     0.03  -0.13   0.16    -0.00   0.02  -0.01
  23   1    -0.01   0.03  -0.12     0.02  -0.13   0.53     0.01   0.03  -0.10
  24   1    -0.00  -0.06   0.13     0.01   0.25  -0.53     0.00  -0.03   0.02
  25   1    -0.03  -0.01  -0.01    -0.18   0.07   0.12     0.19  -0.03  -0.06
  26   1    -0.07   0.02   0.04    -0.00  -0.02  -0.08     0.18  -0.05  -0.06
  27   1    -0.00  -0.03   0.01    -0.02  -0.01   0.01    -0.04   0.01  -0.01
  28   1     0.02  -0.05   0.01    -0.01   0.01   0.00     0.08   0.00   0.00
  29   1    -0.17   0.09  -0.03    -0.10   0.05  -0.01    -0.34   0.22  -0.04
  30   1    -0.43   0.22  -0.04    -0.13   0.06  -0.01    -0.10   0.02   0.00
  31   1     0.28   0.11   0.04     0.06   0.03   0.01    -0.17  -0.07  -0.02
  32   1    -0.03   0.07   0.00    -0.01   0.03   0.00    -0.00   0.22   0.02
  33   1    -0.12   0.01  -0.01    -0.02   0.01  -0.00     0.23   0.12   0.03
  34   1    -0.17   0.17  -0.00    -0.03   0.04  -0.00     0.14  -0.10   0.00
  35   1     0.15   0.08  -0.03     0.11   0.04  -0.01     0.38   0.13  -0.02
  36   1    -0.18   0.15  -0.04    -0.01   0.00  -0.00     0.09  -0.08   0.02
                     64                     65                     66
                        a                      a                      a 
 Frequencies --  1256.2010              1278.0813              1297.5094
 Red. masses --     6.2842                 5.2003                 9.3661
 Frc consts  --     0.0000                 0.0000                 0.0000
 IR Inten    --    25.3457                12.1862                17.9887
 Raman Activ --     0.0000                 0.0000                 0.0000
 Depolar     --     0.0000                 0.0000                 0.0000
 Atom AN      X      Y      Z        X      Y      Z        X      Y      Z
   1   7    -0.01  -0.01  -0.00     0.02  -0.02  -0.02    -0.00   0.01  -0.01
   2   6     0.01   0.01   0.04    -0.02   0.02   0.08    -0.02   0.00  -0.03
   3   6     0.07   0.00   0.03     0.10   0.03  -0.01     0.00   0.00  -0.05
   4   6    -0.22   0.04  -0.04    -0.23  -0.11   0.01     0.16  -0.12   0.06
   5   6    -0.06   0.05  -0.02    -0.20  -0.02  -0.01     0.08  -0.10   0.03
   6   6     0.08   0.07  -0.01     0.02   0.07  -0.02    -0.18   0.07  -0.03
   7   6     0.10  -0.12   0.04     0.27   0.21  -0.03    -0.36   0.02  -0.02
   8   6    -0.02  -0.09   0.00    -0.17  -0.16   0.00     0.30  -0.08   0.03
   9   6     0.13   0.05   0.01     0.07   0.10  -0.00     0.29  -0.09   0.02
  10   6    -0.24  -0.12  -0.03    -0.03   0.01  -0.00    -0.38   0.05  -0.03
  11   6    -0.07  -0.01  -0.01     0.01   0.01   0.00     0.03   0.04   0.01
  12   6     0.03   0.37   0.03     0.01  -0.01   0.00     0.10   0.23   0.03
  13   9    -0.06  -0.13  -0.02    -0.00   0.00  -0.00    -0.05  -0.08  -0.01
  14   6     0.11   0.18   0.02    -0.01  -0.02  -0.00     0.07  -0.04   0.00
  15   6     0.12  -0.13  -0.00     0.00  -0.00  -0.00     0.09  -0.17  -0.01
  16   6     0.02  -0.07  -0.00    -0.01   0.01   0.00    -0.20   0.07  -0.01
  17   6     0.06  -0.05   0.02     0.20  -0.01   0.01    -0.05   0.07  -0.02
  18   6    -0.10   0.01  -0.01    -0.03  -0.14   0.03     0.11   0.08  -0.02
  19  17     0.00   0.00  -0.00     0.00  -0.00   0.00    -0.00  -0.00  -0.00
  20   1     0.01  -0.01   0.01    -0.02  -0.01   0.02    -0.00   0.00   0.01
  21   1    -0.00   0.01  -0.01    -0.01  -0.00  -0.01     0.01  -0.02   0.01
  22   1    -0.00   0.00  -0.00     0.00   0.01   0.02    -0.00  -0.01   0.01
  23   1     0.01   0.01  -0.05     0.01   0.02  -0.08    -0.00  -0.01   0.02
  24   1     0.00  -0.01  -0.00     0.00   0.01  -0.07    -0.01   0.01   0.05
  25   1     0.12  -0.02  -0.04    -0.03  -0.01   0.00    -0.16   0.03   0.07
  26   1     0.11  -0.03  -0.04     0.16  -0.04  -0.04    -0.08   0.02   0.05
  27   1    -0.06  -0.00  -0.00     0.24   0.13  -0.01     0.22   0.05   0.00
  28   1    -0.01   0.04  -0.01     0.34  -0.21   0.07     0.10  -0.09   0.03
  29   1    -0.12   0.04  -0.01     0.01  -0.07   0.01    -0.13   0.10  -0.02
  30   1    -0.07   0.07  -0.00    -0.18   0.14  -0.02    -0.12   0.09  -0.01
  31   1     0.37   0.17   0.05    -0.03  -0.01  -0.00    -0.01   0.01  -0.00
  32   1     0.01  -0.29  -0.02    -0.00   0.02   0.00     0.03   0.00   0.00
  33   1    -0.27  -0.18  -0.04     0.02   0.01   0.00     0.17   0.02   0.02
  34   1    -0.16   0.09  -0.01     0.05  -0.03   0.00     0.16  -0.14   0.00
  35   1     0.25   0.08  -0.01    -0.24  -0.13   0.02    -0.04   0.01  -0.00
  36   1     0.04  -0.05   0.01    -0.38   0.22  -0.07    -0.00   0.05  -0.01
                     67                     68                     69
                        a                      a                      a 
 Frequencies --  1318.6403              1326.9059              1340.6466
 Red. masses --     4.6811                 3.9503                 7.3498
[...]
   3   6     0.02   0.00   0.00     0.00  -0.01   0.01    -0.01  -0.19   0.09
   4   6    -0.11  -0.02  -0.00     0.00   0.00   0.00     0.00  -0.01   0.00
   5   6     0.20   0.05  -0.00    -0.00   0.00  -0.00    -0.00   0.00  -0.00
   6   6    -0.17   0.03  -0.02    -0.00  -0.00  -0.00     0.00  -0.00   0.00
   7   6     0.02   0.09  -0.02    -0.00  -0.00  -0.00    -0.00   0.00  -0.00
   8   6     0.37  -0.47   0.06     0.00   0.00   0.00     0.00   0.00  -0.00
   9   6    -0.37   0.47  -0.05    -0.00  -0.00   0.00    -0.00   0.00   0.00
  10   6    -0.01  -0.11  -0.01     0.00  -0.00   0.00     0.00  -0.00   0.00
  11   6     0.13   0.07   0.02    -0.00   0.00   0.00     0.00  -0.00   0.00
  12   6    -0.10   0.00  -0.01     0.00   0.00  -0.00    -0.00  -0.00  -0.00
  13   9     0.00   0.00   0.00    -0.00  -0.00  -0.00     0.00   0.00  -0.00
  14   6     0.06   0.05   0.01    -0.00  -0.00   0.00     0.00   0.00   0.00
  15   6    -0.16  -0.06  -0.02    -0.00   0.00   0.00     0.00  -0.00   0.00
  16   6     0.13  -0.01   0.01     0.00   0.00   0.00    -0.00  -0.00   0.00
  17   6    -0.16  -0.06   0.00     0.00   0.00  -0.00    -0.00  -0.00  -0.00
  18   6     0.14  -0.04   0.02    -0.01  -0.01   0.00     0.00   0.00   0.00
  19  17     0.00  -0.00  -0.00     0.00  -0.01  -0.00     0.00  -0.00  -0.00
  20   1    -0.00  -0.00  -0.00    -0.20  -0.84  -0.19    -0.05  -0.21  -0.05
  21   1     0.00  -0.00   0.00     0.02   0.00  -0.02     0.01   0.00  -0.01
  22   1    -0.00   0.00   0.00    -0.05   0.01  -0.01    -0.00   0.00  -0.00
  23   1    -0.00   0.00   0.00     0.11   0.31   0.07    -0.13  -0.42  -0.08
  24   1     0.00   0.00   0.00     0.15  -0.02   0.01    -0.45   0.03  -0.04
  25   1    -0.00  -0.00  -0.00    -0.01   0.04  -0.04    -0.13   0.34  -0.42
  26   1     0.01  -0.00  -0.00    -0.00  -0.01  -0.00     0.16   0.34   0.11
  27   1    -0.04  -0.03   0.00     0.00  -0.00   0.00     0.00  -0.00   0.00
  28   1     0.02  -0.03   0.01     0.00   0.00  -0.00     0.00   0.00  -0.00
  29   1    -0.13  -0.00  -0.02    -0.00  -0.00  -0.00     0.00  -0.00  -0.00
  30   1     0.13   0.00  -0.00    -0.00  -0.00   0.00    -0.00  -0.00   0.00
  31   1    -0.01   0.00   0.00     0.00  -0.00  -0.00    -0.00   0.00  -0.00
  32   1     0.01  -0.01   0.00     0.00   0.00  -0.00    -0.00  -0.00   0.00
  33   1     0.03   0.02   0.00     0.00  -0.00   0.00    -0.00   0.00   0.00
  34   1    -0.01   0.03   0.00    -0.00  -0.00   0.00     0.00   0.00   0.00
  35   1     0.01   0.01   0.00     0.00  -0.00   0.00     0.00  -0.00   0.00
  36   1    -0.01   0.02  -0.01     0.02   0.03  -0.01     0.00   0.00  -0.00
                     88                     89                     90
                        a                      a                      a 
 Frequencies --  2947.0537              2971.1060              2977.4924
 Red. masses --     1.8982                 1.5206                 1.6207
 Frc consts  --     0.0000                 0.0000                 0.0000
 IR Inten    --    63.7106                25.6059                 7.0036
 Raman Activ --     0.0000                 0.0000                 0.0000
 Depolar     --     0.0000                 0.0000                 0.0000
 Atom AN      X      Y      Z        X      Y      Z        X      Y      Z
   1   7    -0.02  -0.07  -0.02    -0.01  -0.05  -0.01    -0.01  -0.03  -0.01
   2   6    -0.18  -0.07  -0.02     0.10  -0.15  -0.01     0.00  -0.11  -0.02
   3   6     0.01  -0.16   0.12     0.06   0.02   0.08    -0.10  -0.14  -0.11
   4   6     0.00  -0.01   0.00     0.00  -0.00   0.00    -0.01  -0.00  -0.00
   5   6    -0.00   0.00  -0.00    -0.00   0.00  -0.00     0.00   0.00  -0.00
   6   6     0.00  -0.00  -0.00    -0.00  -0.00  -0.00     0.00   0.00  -0.00
   7   6    -0.00   0.00  -0.00    -0.00   0.00  -0.00     0.00   0.00  -0.00
   8   6     0.00   0.00   0.00     0.00   0.00   0.00    -0.00   0.00  -0.00
   9   6     0.00  -0.00  -0.00    -0.00   0.00  -0.00     0.00  -0.00   0.00
  10   6    -0.00   0.00   0.00    -0.00   0.00   0.00    -0.00   0.00   0.00
  11   6    -0.00   0.00  -0.00     0.00  -0.00  -0.00     0.00   0.00   0.00
  12   6    -0.00   0.00  -0.00    -0.00  -0.00   0.00    -0.00   0.00  -0.00
  13   9    -0.00   0.00  -0.00     0.00   0.00   0.00     0.00   0.00  -0.00
  14   6     0.00  -0.00   0.00     0.00  -0.00  -0.00     0.00  -0.00  -0.00
  15   6    -0.00   0.00   0.00     0.00  -0.00   0.00    -0.00   0.00   0.00
  16   6     0.00   0.00   0.00     0.00  -0.00   0.00     0.00   0.00   0.00
  17   6    -0.00  -0.00  -0.00    -0.00   0.00  -0.00    -0.00  -0.00   0.00
  18   6     0.00   0.00  -0.00     0.00   0.00  -0.00     0.00   0.00  -0.00
  19  17    -0.00   0.00   0.00    -0.00   0.00   0.00    -0.00   0.00   0.00
  20   1     0.06   0.23   0.05     0.04   0.14   0.04     0.02   0.10   0.02
  21   1    -0.01   0.00   0.01    -0.01  -0.00   0.01    -0.00  -0.00  -0.00
  22   1     0.00  -0.00  -0.00     0.03  -0.00   0.01     0.01  -0.00   0.00
  23   1     0.06   0.24   0.05     0.22   0.57   0.11     0.14   0.38   0.08
  24   1     0.59  -0.02   0.05    -0.58  -0.01  -0.06    -0.15  -0.01  -0.02
  25   1    -0.15   0.41  -0.48    -0.07   0.21  -0.23     0.06  -0.22   0.22
  26   1     0.08   0.15   0.06    -0.13  -0.29  -0.07     0.31   0.71   0.18
  27   1     0.01  -0.01   0.00     0.00  -0.01   0.00     0.00  -0.00   0.00
  28   1     0.00   0.00  -0.00     0.00   0.00  -0.00    -0.00  -0.00   0.00
  29   1    -0.00  -0.00  -0.00     0.00  -0.00  -0.00    -0.00  -0.00  -0.00
  30   1     0.00   0.00   0.00    -0.00  -0.00   0.00     0.00   0.00  -0.00
  31   1     0.00  -0.00  -0.00    -0.00   0.00  -0.00     0.00  -0.00  -0.00
  32   1     0.00   0.00   0.00    -0.00  -0.00   0.00     0.00   0.00  -0.00
  33   1     0.00  -0.00   0.00    -0.00   0.00   0.00     0.00  -0.00   0.00
  34   1    -0.00  -0.00   0.00     0.00   0.00   0.00    -0.00  -0.00   0.00
  35   1    -0.00   0.00  -0.00     0.00  -0.00   0.00    -0.00   0.00  -0.00
  36   1    -0.01  -0.01   0.00    -0.00  -0.00   0.00    -0.01  -0.01   0.00
                     91                     92                     93
                        a                      a                      a 
 Frequencies --  3095.0286              3097.7557              3097.9452
 Red. masses --     1.8620                 1.7880                 1.7822
 Frc consts  --     0.0000                 0.0000                 0.0000
 IR Inten    --   170.5345                42.7911                 5.6704
 Raman Activ --     0.0000                 0.0000                 0.0000
 Depolar     --     0.0000                 0.0000                 0.0000
 Atom AN      X      Y      Z        X      Y      Z        X      Y      Z
   1   7    -0.01  -0.01  -0.00     0.00   0.00   0.00     0.00  -0.00  -0.00
   2   6     0.00  -0.00  -0.00    -0.00  -0.00  -0.00    -0.00  -0.00  -0.00
   3   6    -0.00  -0.00  -0.00     0.00  -0.00   0.00     0.00  -0.00   0.00
   4   6    -0.01   0.00  -0.00     0.00  -0.00   0.00     0.01  -0.00   0.00
   5   6    -0.01   0.02  -0.01     0.05  -0.12   0.03     0.07  -0.15   0.04
   6   6     0.00   0.00  -0.00     0.05   0.07  -0.01     0.07   0.09  -0.02
   7   6     0.00   0.00  -0.00     0.00   0.00  -0.00     0.00   0.00  -0.00
   8   6     0.00   0.01  -0.00    -0.00  -0.01   0.00    -0.00  -0.01   0.00
   9   6    -0.00  -0.01   0.00    -0.00  -0.01  -0.00    -0.00   0.00  -0.00
  10   6    -0.00  -0.00   0.00     0.00   0.00   0.00    -0.00  -0.00  -0.00
  11   6     0.00   0.00   0.00    -0.00   0.00   0.00     0.00  -0.00   0.00
  12   6    -0.00  -0.00  -0.00    -0.00   0.00  -0.00     0.00  -0.00   0.00
  13   9     0.00   0.00   0.00     0.00  -0.00  -0.00    -0.00   0.00   0.00
  14   6    -0.00   0.00  -0.00    -0.02   0.00  -0.00     0.02  -0.00   0.00
  15   6     0.00  -0.01  -0.00     0.09  -0.18  -0.01    -0.06   0.14   0.01
  16   6     0.00   0.00   0.00     0.04   0.06   0.01    -0.03  -0.04  -0.01
  17   6    -0.01   0.03  -0.01    -0.00   0.00  -0.00    -0.00   0.00  -0.00
  18   6    -0.16  -0.22   0.05    -0.00  -0.00   0.00    -0.01  -0.01   0.00
  19  17     0.00  -0.00  -0.00    -0.00  -0.00   0.00    -0.00  -0.00   0.00
  20   1     0.01   0.04   0.01     0.00  -0.00  -0.00     0.00   0.00   0.00
  21   1     0.00  -0.00  -0.00    -0.00   0.00   0.00    -0.00   0.00   0.00
  22   1     0.01  -0.00  -0.00    -0.00  -0.00  -0.00    -0.00  -0.00  -0.00
  23   1     0.00   0.00   0.00     0.00   0.00   0.00     0.00   0.01   0.00
  24   1    -0.00   0.00   0.00     0.00   0.00  -0.00    -0.00   0.00  -0.00
  25   1    -0.00   0.00  -0.00    -0.00   0.00  -0.00    -0.00   0.00  -0.01
  26   1     0.01   0.01   0.00     0.00   0.00   0.00     0.00   0.00   0.00
  27   1     0.03  -0.08   0.02    -0.19   0.42  -0.11    -0.25   0.56  -0.14
  28   1    -0.01  -0.01   0.00    -0.19  -0.26   0.05    -0.26  -0.35   0.07
  29   1    -0.01  -0.02   0.00     0.01   0.03  -0.00     0.01   0.03  -0.00
  30   1     0.02   0.03   0.00     0.01   0.02   0.00    -0.00  -0.00   0.00
  31   1     0.00  -0.00   0.00     0.00  -0.01  -0.00    -0.00   0.00  -0.00
  32   1     0.00  -0.00   0.00     0.10  -0.01   0.01    -0.07   0.01  -0.01
  33   1    -0.01   0.02   0.00    -0.31   0.65   0.03     0.23  -0.48  -0.02
  34   1    -0.00  -0.00  -0.00    -0.15  -0.22  -0.03     0.11   0.16   0.02
  35   1     0.05  -0.12   0.03     0.01  -0.01   0.00     0.01  -0.02   0.01
  36   1     0.56   0.75  -0.16     0.01   0.01  -0.00     0.04   0.05  -0.01
                     94                     95                     96
                        a                      a                      a 
 Frequencies --  3111.1591              3114.6282              3119.5131
 Red. masses --     1.8727                 1.8603                 1.8036
 Frc consts  --     0.0000                 0.0000                 0.0000
 IR Inten    --    47.3029                19.2037                 3.0265
 Raman Activ --     0.0000                 0.0000                 0.0000
 Depolar     --     0.0000                 0.0000                 0.0000
 Atom AN      X      Y      Z        X      Y      Z        X      Y      Z
   1   7    -0.00   0.00   0.00     0.00  -0.00  -0.00    -0.00  -0.00  -0.00
   2   6     0.00   0.00   0.00     0.00   0.00   0.00     0.00  -0.00  -0.00
   3   6     0.00   0.00  -0.00    -0.00   0.00  -0.00    -0.00  -0.00   0.00
   4   6    -0.01  -0.00  -0.00     0.00  -0.00   0.00    -0.00   0.00  -0.00
   5   6    -0.06   0.14  -0.04     0.00  -0.00   0.00     0.01  -0.01   0.00
   6   6     0.13   0.18  -0.03    -0.00  -0.00   0.00    -0.02  -0.02   0.00
   7   6     0.01  -0.00   0.00    -0.00   0.00  -0.00     0.00  -0.01   0.00
   8   6    -0.02  -0.04   0.00     0.00   0.01  -0.00    -0.08  -0.15   0.01
   9   6    -0.00   0.00  -0.00    -0.02  -0.04   0.00     0.07   0.14  -0.00
  10   6     0.00   0.00   0.00     0.01  -0.00   0.00     0.00   0.00   0.00
  11   6    -0.00   0.00   0.00    -0.00  -0.00  -0.00    -0.01   0.02   0.00
  12   6     0.00   0.00   0.00     0.00  -0.00   0.00     0.00   0.00   0.00
  13   9    -0.00  -0.00  -0.00    -0.00  -0.00  -0.00    -0.00  -0.00  -0.00
  14   6    -0.00  -0.00  -0.00     0.02  -0.00   0.00     0.00  -0.00   0.00
  15   6    -0.00   0.00   0.00    -0.04   0.09   0.00    -0.01   0.01   0.00
  16   6     0.00   0.01   0.00     0.14   0.21   0.03     0.02   0.03   0.00
  17   6    -0.00   0.00  -0.00    -0.01   0.02  -0.00     0.05  -0.11   0.03
  18   6     0.01   0.01  -0.00     0.00   0.00  -0.00    -0.02  -0.03   0.01
  19  17     0.00   0.00  -0.00     0.00  -0.00   0.00    -0.00  -0.00  -0.00
  20   1    -0.00  -0.00   0.00    -0.00   0.00   0.00     0.00   0.00   0.00
  21   1     0.00  -0.00  -0.00    -0.00   0.00   0.00    -0.00   0.00   0.00
  22   1     0.00   0.00   0.00    -0.00   0.00  -0.00     0.00  -0.00  -0.00
  23   1    -0.00  -0.00  -0.00    -0.00  -0.00  -0.00     0.00   0.00   0.00
  24   1     0.00  -0.00  -0.00    -0.00  -0.00  -0.00    -0.00   0.00  -0.00
  25   1     0.00  -0.00   0.00    -0.00   0.00   0.00    -0.00   0.00  -0.00
  26   1    -0.00  -0.00  -0.00    -0.00  -0.00  -0.00     0.00   0.00   0.00
  27   1     0.21  -0.48   0.12    -0.00   0.01  -0.00    -0.02   0.04  -0.01
  28   1    -0.46  -0.61   0.12     0.01   0.01  -0.00     0.06   0.08  -0.02
  29   1     0.08   0.14  -0.01    -0.02  -0.03   0.00     0.31   0.52  -0.02
  30   1    -0.00  -0.01   0.00     0.09   0.15   0.00    -0.28  -0.48  -0.00
  31   1     0.01  -0.01  -0.00     0.00   0.00   0.00     0.03  -0.06  -0.00
  32   1     0.00  -0.00   0.00    -0.09   0.01  -0.01    -0.01   0.00  -0.00
  33   1     0.00  -0.01  -0.00     0.13  -0.29  -0.01     0.02  -0.04  -0.00
  34   1    -0.02  -0.02  -0.00    -0.50  -0.72  -0.10    -0.08  -0.12  -0.02
  35   1     0.00  -0.00   0.00     0.02  -0.05   0.02    -0.17   0.40  -0.11
  36   1    -0.04  -0.05   0.01    -0.01  -0.01   0.00     0.06   0.08  -0.02
                     97                     98                     99
                        a                      a                      a 
 Frequencies --  3123.0605              3134.2250              3136.7609
 Red. masses --     1.8277                 1.8240                 1.8506
 Frc consts  --     0.0000                 0.0000                 0.0000
 IR Inten    --    15.7941                46.6958                15.9640
 Raman Activ --     0.0000                 0.0000                 0.0000
 Depolar     --     0.0000                 0.0000                 0.0000
 Atom AN      X      Y      Z        X      Y      Z        X      Y      Z
   1   7    -0.00   0.00   0.00     0.00   0.00   0.00    -0.00   0.00   0.00
   2   6     0.00  -0.00   0.00     0.00  -0.00   0.00    -0.00  -0.00   0.00
   3   6     0.00  -0.00   0.00     0.00  -0.00   0.00     0.00  -0.00  -0.00
   4   6    -0.00   0.00  -0.00     0.00   0.00  -0.00    -0.00   0.00  -0.00
   5   6    -0.00   0.01  -0.00     0.00  -0.01   0.00    -0.00   0.00  -0.00
   6   6     0.02   0.02  -0.00    -0.01  -0.02   0.00    -0.00  -0.00   0.00
   7   6     0.01   0.00   0.00    -0.00  -0.01   0.00    -0.00  -0.00   0.00
   8   6     0.07   0.13  -0.01    -0.07  -0.12   0.00    -0.01  -0.01   0.00
   9   6    -0.00  -0.01   0.00    -0.10  -0.18  -0.00    -0.01  -0.02  -0.00
  10   6     0.00  -0.00   0.00    -0.00  -0.01  -0.00    -0.00  -0.00  -0.00
  11   6     0.01  -0.02  -0.00    -0.02   0.04   0.00    -0.00  -0.00  -0.00
  12   6    -0.00  -0.00  -0.00     0.00   0.00   0.00     0.01   0.01   0.00
  13   9     0.00   0.00   0.00    -0.00  -0.00  -0.00    -0.00  -0.00  -0.00
  14   6     0.00  -0.00   0.00    -0.03   0.00  -0.00     0.27  -0.02   0.02
  15   6    -0.00   0.00   0.00     0.00  -0.00  -0.00     0.02  -0.05  -0.00
  16   6     0.00   0.01   0.00    -0.01  -0.02  -0.00    -0.01  -0.01  -0.00
  17   6     0.09  -0.20   0.06     0.03  -0.07   0.02     0.00  -0.01   0.00
  18   6    -0.02  -0.03   0.01    -0.01  -0.01   0.00    -0.00  -0.00   0.00
  19  17     0.00   0.00  -0.00    -0.00  -0.00   0.00     0.00   0.00  -0.00
  20   1     0.00   0.00   0.00     0.00  -0.00  -0.00    -0.00  -0.00   0.00
  21   1     0.00  -0.00  -0.01     0.00  -0.00  -0.00     0.00  -0.00  -0.00
  22   1    -0.00  -0.00   0.00    -0.00  -0.00  -0.00     0.00   0.00   0.00
  23   1    -0.00   0.00   0.00     0.00   0.00   0.00     0.00   0.00   0.00
  24   1    -0.00   0.00  -0.00    -0.00   0.00  -0.00     0.00   0.00  -0.00
  25   1     0.00   0.00  -0.00    -0.00   0.00  -0.00     0.00  -0.00   0.00
  26   1    -0.00  -0.00  -0.00     0.00   0.00   0.00     0.00   0.00   0.00
  27   1     0.01  -0.02   0.01    -0.01   0.02  -0.00     0.00  -0.00   0.00
  28   1    -0.06  -0.08   0.02     0.04   0.06  -0.01     0.00   0.00  -0.00
  29   1    -0.27  -0.46   0.02     0.24   0.41  -0.02     0.03   0.05  -0.00
  30   1     0.03   0.05  -0.00     0.38   0.65   0.00     0.04   0.06   0.00
  31   1    -0.03   0.07   0.00     0.06  -0.13  -0.01    -0.00   0.01   0.00
  32   1    -0.01   0.00  -0.00     0.10  -0.01   0.01    -0.94   0.08  -0.07
  33   1     0.00  -0.00  -0.00    -0.00   0.00   0.00    -0.06   0.13   0.01
  34   1    -0.01  -0.02  -0.00     0.06   0.08   0.01     0.03   0.05   0.01
  35   1    -0.31   0.69  -0.20    -0.11   0.26  -0.07    -0.01   0.02  -0.01
  36   1     0.05   0.07  -0.02     0.02   0.02  -0.01     0.00   0.00  -0.00
                    100                    101                    102
                        a                      a                      a 
 Frequencies --  3149.6088              3152.4833              3210.3317
 Red. masses --     1.8079                 1.8146                 1.7077
 Frc consts  --     0.0000                 0.0000                 0.0000
 IR Inten    --    36.4063                19.7028                49.8276
 Raman Activ --     0.0000                 0.0000                 0.0000
 Depolar     --     0.0000                 0.0000                 0.0000
 Atom AN      X      Y      Z        X      Y      Z        X      Y      Z
   1   7    -0.14   0.05   0.20    -0.00   0.00   0.00     0.23   0.01   0.05
   2   6    -0.00  -0.00   0.00    -0.00  -0.00   0.00     0.01  -0.00   0.00
   3   6     0.00  -0.00   0.00     0.00  -0.00   0.00     0.00  -0.00  -0.00
   4   6     0.00  -0.00  -0.00     0.00   0.00  -0.00    -0.00   0.00   0.00
   5   6     0.00  -0.00   0.00     0.00  -0.00   0.00    -0.00   0.00  -0.00
   6   6    -0.00  -0.00   0.00    -0.00  -0.00   0.00    -0.00   0.00  -0.00
   7   6    -0.00   0.00   0.00    -0.00  -0.00   0.00     0.00  -0.00   0.00
   8   6    -0.00  -0.00  -0.00    -0.02  -0.04   0.00    -0.00  -0.00  -0.00
   9   6     0.00   0.00   0.00    -0.01  -0.02  -0.00     0.00   0.00   0.00
  10   6    -0.00   0.00  -0.00     0.01  -0.00   0.00     0.00   0.00  -0.00
  11   6    -0.00   0.00   0.00     0.11  -0.24  -0.01    -0.00   0.00   0.00
  12   6    -0.00   0.00   0.00    -0.00  -0.01  -0.00     0.00   0.00  -0.00
  13   9     0.00   0.00   0.00     0.00   0.00   0.00    -0.00  -0.00  -0.00
  14   6    -0.00   0.00  -0.00    -0.01   0.00  -0.00     0.00  -0.00   0.00
  15   6    -0.00   0.00   0.00     0.00  -0.00  -0.00     0.00  -0.00  -0.00
  16   6     0.00   0.00   0.00    -0.00   0.00  -0.00    -0.00   0.00  -0.00
  17   6    -0.00   0.00  -0.00     0.00  -0.00   0.00     0.00   0.00  -0.00
  18   6     0.00   0.00  -0.00    -0.00  -0.00   0.00    -0.00  -0.00   0.00
  19  17    -0.00  -0.00  -0.00    -0.00   0.00   0.00     0.00  -0.00   0.00
  20   1    -0.01   0.04   0.03     0.00   0.00   0.00     0.04   0.07   0.02
  21   1     0.48  -0.24  -0.80     0.01  -0.00  -0.01     0.06  -0.02  -0.06
  22   1     0.06   0.01   0.04     0.00   0.00   0.00    -0.95  -0.06  -0.17
  23   1     0.00   0.00  -0.00     0.00   0.00   0.00     0.00   0.01   0.00
  24   1     0.00  -0.00  -0.00     0.00   0.00   0.00    -0.02  -0.00  -0.00
  25   1    -0.00   0.00  -0.00    -0.00   0.00  -0.00    -0.00   0.00  -0.00
  26   1    -0.00  -0.00  -0.00     0.00   0.00   0.00     0.00   0.00   0.00
  27   1    -0.00   0.00  -0.00    -0.00   0.00  -0.00     0.00  -0.00   0.00
  28   1     0.00   0.00  -0.00     0.01   0.01  -0.00     0.00  -0.00  -0.00
  29   1    -0.00  -0.00   0.00     0.08   0.14  -0.00     0.00   0.00  -0.00
  30   1    -0.00  -0.00   0.00     0.03   0.06   0.00    -0.00  -0.00  -0.00
  31   1     0.01  -0.02  -0.00    -0.39   0.86   0.05     0.00  -0.00  -0.00
  32   1     0.00  -0.00   0.00     0.02  -0.00   0.00    -0.00   0.00  -0.00
  33   1     0.00  -0.00  -0.00    -0.00   0.00   0.00    -0.00   0.00  -0.00
  34   1    -0.00  -0.00  -0.00     0.00   0.00   0.00    -0.00  -0.00  -0.00
  35   1     0.00  -0.01   0.00    -0.00   0.01  -0.00     0.00  -0.00   0.00
  36   1    -0.00  -0.00   0.00     0.00   0.00  -0.00     0.00   0.01  -0.00
