      -----------------------------------------------------------      
     |                   =====================                   |     
     |                           x T B                           |     
     |                   =====================                   |     
     |                         S. Grimme                         |     
     |          Mulliken Center for Theoretical Chemistry        |     
     |                    University of Bonn                     |     
      -----------------------------------------------------------      

   * xtb version 6.5.1 (fef0646) compiled by 'conda@b96dff2e9fd6' on 2023-01-04

   xtb is free software: you can redistribute it and/or modify it under
   the terms of the GNU Lesser General Public License as published by
   the Free Software Foundation, either version 3 of the License, or
   (at your option) any later version.
   
   xtb is distributed in the hope that it will be useful,
   but WITHOUT ANY WARRANTY; without even the implied warranty of
   MERCHANTABILITY or FITNESS FOR A PARTICULAR PURPOSE.  See the
   GNU Lesser General Public License for more details.
   
   Cite this work as:
   * C. Bannwarth, E. Caldeweyher, S. Ehlert, A. Hansen, P. Pracht,
     J. Seibert, S. Spicher, S. Grimme, WIREs Comput. Mol. Sci., 2020, 11,
     e01493. DOI: 10.1002/wcms.1493
   
   for GFN2-xTB:
   * C. Bannwarth, S. Ehlert and S. Grimme., J. Chem. Theory Comput., 2019,
     15, 1652-1671. DOI: 10.1021/acs.jctc.8b01176
   for GFN1-xTB:
   * S. Grimme, C. Bannwarth, P. Shushkov, J. Chem. Theory Comput., 2017,
     13, 1989-2009. DOI: 10.1021/acs.jctc.7b00118
   for GFN0-xTB:
   * P. Pracht, E. Caldeweyher, S. Ehlert, S. Grimme, ChemRxiv, 2019, preprint.
     DOI: 10.26434/chemrxiv.8326202.v1
   for GFN-FF:
   * S. Spicher and S. Grimme, Angew. Chem. Int. Ed., 2020, 59, 15665-15673.
     DOI: 10.1002/anie.202004239
   
   for ALPB and GBSA implicit solvation:
   * S. Ehlert, M. Stahn, S. Spicher, S. Grimme, J. Chem. Theory Comput.,
     2021, 17, 4250-4261. DOI: 10.1021/acs.jctc.1c00471
   
   for DFT-D4:
   * E. Caldeweyher, C. Bannwarth and S. Grimme, J. Chem. Phys., 2017,
     147, 034112. DOI: 10.1063/1.4993215
   * E. Caldeweyher, S. Ehlert, A. Hansen, H. Neugebauer, S. Spicher,
     C. Bannwarth and S. Grimme, J. Chem. Phys., 2019, 150, 154122.
     DOI: 10.1063/1.5090222
   * E. Caldeweyher, J.-M. Mewes, S. Ehlert and S. Grimme, Phys. Chem. Chem. Phys.
     2020, 22, 8499-8512. DOI: 10.1039/D0CP00502A
   
   for sTDA-xTB:
   * S. Grimme and C. Bannwarth, J. Chem. Phys., 2016, 145, 054103.
     DOI: 10.1063/1.4959605
   
   in the mass-spec context:
   * V. Asgeirsson, C. Bauer and S. Grimme, Chem. Sci., 2017, 8, 4879.
     DOI: 10.1039/c7sc00601b
   * J. Koopman and S. Grimme, ACS Omega 2019, 4, 12, 15120-15133.
     DOI: 10.1021/acsomega.9b02011
   
   for metadynamics refer to:
   * S. Grimme, J. Chem. Theory Comput., 2019, 155, 2847-2862
     DOI: 10.1021/acs.jctc.9b00143
   
   for SPH calculations refer to:
   * S. Spicher and S. Grimme, J. Chem. Theory Comput., 2021, 17, 1701-1714
     DOI: 10.1021/acs.jctc.0c01306
   
   with help from (in alphabetical order)
   P. Atkinson, C. Bannwarth, F. Bohle, G. Brandenburg, E. Caldeweyher
   M. Checinski, S. Dohm, S. Ehlert, S. Ehrlich, I. Gerasimov, C. Hölzer
   A. Katbashev, J. Koopman, C. Lavigne, S. Lehtola, F. März, M. Müller,
   F. Musil, H. Neugebauer, J. Pisarek, C. Plett, P. Pracht, F. Pultar,
   J. Seibert, P. Shushkov, S. Spicher, M. Stahn, M. Steiner, T. Strunk,
   J. Stückrath, T. Rose, and J. Unsleber
   
 * started run on 2023/01/24 at 14:57:36.005     

           -------------------------------------------------
          |                Calculation Setup                |
           -------------------------------------------------

          program call               : xtb init.xyz --opt -c 0 -u 0 -P 16 --alpb water
          hostname                   : gpg-woodward
          coordinate file            : init.xyz
          omp threads                :                    16

   ID    Z sym.   atoms
    1    7 N      1
    2    6 C      2-11
    3   16 S      12, 13
    4   17 Cl     14
    5    1 H      15-26

molecular fragmentation (1/2 indicates fragments):
11111111111112111111111111
# atoms in fragment 1/2:    25     1
 fragment masses (1/2) :      210.34       35.45
CMA distance (Bohr)    :  13.729
constraining FC (au)   :  0.0500

           -------------------------------------------------
          |                 G F N 2 - x T B                 |
           -------------------------------------------------

        Reference                      10.1021/acs.jctc.8b01176
      * Hamiltonian:
        H0-scaling (s, p, d)           1.850000    2.230000    2.230000
        zeta-weighting                 0.500000
      * Dispersion:
        s8                             2.700000
        a1                             0.520000
        a2                             5.000000
        s9                             5.000000
      * Repulsion:
        kExp                           1.500000    1.000000
        rExp                           1.000000
      * Coulomb:
        alpha                          2.000000
        third order                    shell-resolved
        anisotropic                    true
        a3                             3.000000
        a5                             4.000000
        cn-shift                       1.200000
        cn-exp                         4.000000
        max-rad                        5.000000

      * Solvation model:               ALPB
        Solvent                        water
        Parameter file                 internal GFN2-xTB/ALPB
        Dielectric constant                8.0200E+01
        Reference state                gsolv [1 M gas/solution]
        Free energy shift                  1.0808E-03 Eh       6.7819E-01 kcal/mol
        Temperature                        2.9815E+02 K
        Density                            1.0000E+00 kg/L
        Solvent mass                       1.8000E+01 g/mol
        Interaction kernel             P16
        Born radius scaling (c1)           1.4744E+00
        Born radii integrator          GBOBC
        Born offset                        0.0000E+00 a0       0.0000E+00 AA
        H-bond correction              true
        Ion screening                  false
        Surface tension                    1.0000E-05 Eh       1.5569E+01 dyn/cm
        Grid points                               230 per atom

          ...................................................
          :                      SETUP                      :
          :.................................................:
          :  # basis functions                  86          :
          :  # atomic orbitals                  83          :
          :  # shells                           43          :
          :  # electrons                        76          :
          :  max. iterations                   250          :
          :  Hamiltonian                  GFN2-xTB          :
          :  restarted?                      false          :
          :  GBSA solvation                   true          :
          :  PC potential                    false          :
          :  electronic temp.          300.0000000     K    :
          :  accuracy                    1.0000000          :
          :  -> integral cutoff          0.2500000E+02      :
          :  -> integral neglect         0.1000000E-07      :
          :  -> SCF convergence          0.1000000E-05 Eh   :
          :  -> wf. convergence          0.1000000E-03 e    :
          :  Broyden damping             0.4000000          :
          ...................................................

 iter      E             dE          RMSdq      gap      omega  full diag
   1    -41.9269088 -0.419269E+02  0.435E+00    2.72       0.0  T
   2    -42.0096634 -0.827546E-01  0.248E+00    2.79       1.0  T
   3    -42.0093060  0.357405E-03  0.122E+00    2.80       1.0  T
   4    -42.0129763 -0.367030E-02  0.745E-01    2.79       1.0  T
   5    -42.0190061 -0.602982E-02  0.300E-01    2.78       1.0  T
   6    -42.0193991 -0.392988E-03  0.228E-01    2.78       1.0  T
   7    -42.0198633 -0.464157E-03  0.120E-01    2.78       1.0  T
   8    -42.0199714 -0.108165E-03  0.585E-02    2.78       1.0  T
   9    -42.0200052 -0.337980E-04  0.179E-02    2.78       1.1  T
  10    -42.0200056 -0.333377E-06  0.105E-02    2.78       1.9  T
  11    -42.0200060 -0.408130E-06  0.577E-03    2.78       3.4  T
  12    -42.0200063 -0.324242E-06  0.259E-03    2.78       7.6  T
  13    -42.0200063 -0.153495E-07  0.128E-03    2.78      15.4  T
  14    -42.0200063 -0.739023E-08  0.524E-04    2.78      37.4  T
  15    -42.0200063 -0.187391E-08  0.285E-04    2.78      68.8  T

   *** convergence criteria satisfied after 15 iterations ***

         #    Occupation            Energy/Eh            Energy/eV
      -------------------------------------------------------------
         1        2.0000           -1.0106684             -27.5017
       ...           ...                  ...                  ...
        32        2.0000           -0.4088114             -11.1243
        33        2.0000           -0.4021652             -10.9435
        34        2.0000           -0.4020997             -10.9417
        35        2.0000           -0.4017327             -10.9317
        36        2.0000           -0.3970378             -10.8039
        37        2.0000           -0.3933842             -10.7045
        38        2.0000           -0.3661631              -9.9638 (HOMO)
        39                         -0.2641674              -7.1884 (LUMO)
        40                         -0.2232177              -6.0741
        41                         -0.2022908              -5.5046
        42                         -0.1949366              -5.3045
        43                         -0.1787366              -4.8637
       ...                                ...                  ...
        83                          0.7003942              19.0587
      -------------------------------------------------------------
                  HL-Gap            0.1019957 Eh            2.7754 eV
             Fermi-level           -0.3151653 Eh           -8.5761 eV

 SCC (total)                   0 d,  0 h,  0 min,  0.086 sec
 SCC setup                      ...        0 min,  0.000 sec (  0.530%)
 Dispersion                     ...        0 min,  0.000 sec (  0.479%)
 classical contributions        ...        0 min,  0.000 sec (  0.066%)
 integral evaluation            ...        0 min,  0.003 sec (  3.401%)
 iterations                     ...        0 min,  0.076 sec ( 88.417%)
 molecular gradient             ...        0 min,  0.005 sec (  6.054%)
 printout                       ...        0 min,  0.001 sec (  0.697%)

         :::::::::::::::::::::::::::::::::::::::::::::::::::::
         ::                     SUMMARY                     ::
         :::::::::::::::::::::::::::::::::::::::::::::::::::::
         :: total energy             -41.500562166970 Eh    ::
         :: total w/o Gsasa/hb       -41.495241271956 Eh    ::
         :: gradient norm              0.057343066034 Eh/a0 ::
         :: HOMO-LUMO gap              2.775443060113 eV    ::
         ::.................................................::
         :: SCC energy               -42.020006336193 Eh    ::
         :: -> isotropic ES            0.109694739146 Eh    ::
         :: -> anisotropic ES         -0.029725956823 Eh    ::
         :: -> anisotropic XC          0.010150626786 Eh    ::
         :: -> dispersion             -0.025920269653 Eh    ::
         :: -> Gsolv                  -0.063312022917 Eh    ::
         ::    -> Gelec               -0.057991127903 Eh    ::
         ::    -> Gsasa                0.000981112232 Eh    ::
         ::    -> Ghb                 -0.007382766944 Eh    ::
         ::    -> Gshift               0.001080759698 Eh    ::
         :: repulsion energy           0.519593976823 Eh    ::
         :: add. restraining           0.000000000000 Eh    ::
         :: total charge              -0.000000000000 e     ::
         :::::::::::::::::::::::::::::::::::::::::::::::::::::

      ----------------------------------------------------------- 
     |                   =====================                   |
     |                        A N C O P T                        |
     |                   =====================                   |
     |               Approximate Normal Coordinate               |
     |                Rational Function Optimizer                |
      ----------------------------------------------------------- 

          ...................................................
          :                      SETUP                      :
          :.................................................:
          :   optimization level            normal          :
          :   max. optcycles                   200          :
          :   ANC micro-cycles                  20          :
          :   degrees of freedom                72          :
          :.................................................:
          :   RF solver                   davidson          :
          :   write xtbopt.log                true          :
          :   linear?                        false          :
          :   energy convergence         0.5000000E-05 Eh   :
          :   grad. convergence          0.1000000E-02 Eh/α :
          :   maximium RF displ.         1.0000000          :
          :   Hlow (freq-cutoff)         0.1000000E-01      :
          :   Hmax (freq-cutoff)         5.0000000          :
          :   S6 in model hess.         20.0000000          :
          ...................................................

generating ANC from model Hessian ...
Using Lindh-Hessian (1995)
 Shifting diagonal of input Hessian by    9.8588886409606419E-003
 Lowest  eigenvalues of input Hessian
    0.000000    0.000000    0.000000    0.000000    0.000000    0.000000
    0.010000    0.010436    0.010986    0.011669    0.012538    0.013433
    0.014654    0.015340    0.021628    0.023285    0.026087    0.027604
 Highest eigenvalues
    1.632131    1.686469    1.747904    1.805064    1.835324    1.924101


........................................................................
.............................. CYCLE    1 ..............................
........................................................................
   1    -42.0200063 -0.420200E+02  0.909E-05    2.78       0.0  T
   2    -42.0200063 -0.211458E-10  0.664E-05    2.78     295.5  T
   3    -42.0200063 -0.606093E-11  0.461E-05    2.78     425.5  T
     SCC iter.                  ...        0 min,  0.015 sec
     gradient                   ...        0 min,  0.004 sec
 * total energy  :   -41.5005622 Eh     change       -0.4136496E-09 Eh
   gradient norm :     0.0573432 Eh/α   predicted     0.0000000E+00 (-100.00%)
   displ. norm   :     0.3160548 α      lambda       -0.8633270E-02
   maximum displ.:     0.2294042 α      in ANC's #17, #3, #12, ...

........................................................................
.............................. CYCLE    2 ..............................
........................................................................
   1    -42.0446989 -0.420447E+02  0.202E-01    2.77       0.0  T
   2    -42.0448126 -0.113642E-03  0.111E-01    2.78       1.0  T
   3    -42.0448093  0.322112E-05  0.473E-02    2.78       1.0  T
   4    -42.0448169 -0.752428E-05  0.266E-02    2.78       1.0  T
   5    -42.0448246 -0.774370E-05  0.848E-03    2.78       2.3  T
   6    -42.0448247 -0.125860E-06  0.576E-03    2.78       3.4  T
   7    -42.0448250 -0.226414E-06  0.307E-03    2.78       6.4  T
   8    -42.0448250 -0.484199E-07  0.158E-03    2.78      12.4  T
   9    -42.0448250 -0.130427E-07  0.770E-04    2.78      25.5  T
  10    -42.0448250 -0.356791E-08  0.483E-04    2.78      40.6  T
     SCC iter.                  ...        0 min,  0.047 sec
     gradient                   ...        0 min,  0.005 sec
 * total energy  :   -41.5062582 Eh     change       -0.5696073E-02 Eh
   gradient norm :     0.0309968 Eh/α   predicted    -0.4749020E-02 ( -16.63%)
   displ. norm   :     0.2274016 α      lambda       -0.2565904E-02
   maximum displ.:     0.1063797 α      in ANC's #17, #3, #9, ...

........................................................................
.............................. CYCLE    3 ..............................
........................................................................
   1    -42.0552599 -0.420553E+02  0.133E-01    2.75       0.0  T
   2    -42.0552992 -0.393679E-04  0.718E-02    2.76       1.0  T
   3    -42.0552974  0.188995E-05  0.305E-02    2.76       1.0  T
   4    -42.0553018 -0.440315E-05  0.175E-02    2.76       1.1  T
   5    -42.0553049 -0.309041E-05  0.676E-03    2.76       2.9  T
   6    -42.0553049 -0.880043E-07  0.452E-03    2.76       4.3  T
   7    -42.0553051 -0.163572E-06  0.264E-03    2.76       7.4  T
   8    -42.0553051 -0.430476E-07  0.139E-03    2.76      14.1  T
   9    -42.0553052 -0.138128E-07  0.589E-04    2.76      33.3  T
  10    -42.0553052 -0.183750E-08  0.316E-04    2.76      62.0  T
     SCC iter.                  ...        0 min,  0.047 sec
     gradient                   ...        0 min,  0.004 sec
 * total energy  :   -41.5078520 Eh     change       -0.1593744E-02 Eh
   gradient norm :     0.0117489 Eh/α   predicted    -0.1350331E-02 ( -15.27%)
   displ. norm   :     0.1865716 α      lambda       -0.5846682E-03
   maximum displ.:     0.1199869 α      in ANC's #3, #8, #6, ...

........................................................................
.............................. CYCLE    4 ..............................
........................................................................
   1    -42.0550536 -0.420551E+02  0.925E-02    2.73       0.0  T
   2    -42.0550596 -0.608558E-05  0.512E-02    2.74       1.0  T
   3    -42.0550595  0.123521E-06  0.137E-02    2.74       1.4  T
   4    -42.0550603 -0.763702E-06  0.825E-03    2.74       2.4  T
   5    -42.0550610 -0.686083E-06  0.444E-03    2.74       4.4  T
   6    -42.0550610 -0.764426E-07  0.296E-03    2.74       6.6  T
   7    -42.0550611 -0.551980E-07  0.193E-03    2.74      10.2  T
   8    -42.0550611 -0.317711E-07  0.661E-04    2.74      29.7  T
   9    -42.0550611 -0.301998E-08  0.253E-04    2.74      77.4  T
     SCC iter.                  ...        0 min,  0.043 sec
     gradient                   ...        0 min,  0.004 sec
 * total energy  :   -41.5082701 Eh     change       -0.4181395E-03 Eh
   gradient norm :     0.0056202 Eh/α   predicted    -0.3025408E-03 ( -27.65%)
   displ. norm   :     0.2377758 α      lambda       -0.3910859E-03
   maximum displ.:     0.1619763 α      in ANC's #3, #8, #6, ...

........................................................................
.............................. CYCLE    5 ..............................
........................................................................
   1    -42.0532334 -0.420532E+02  0.115E-01    2.70       0.0  T
   2    -42.0532362 -0.282636E-05  0.648E-02    2.70       1.0  T
   3    -42.0532371 -0.855014E-06  0.106E-02    2.70       1.9  T
   4    -42.0532372 -0.129650E-06  0.640E-03    2.70       3.1  T
   5    -42.0532374 -0.237272E-06  0.421E-03    2.70       4.7  T
   6    -42.0532376 -0.107611E-06  0.281E-03    2.70       7.0  T
   7    -42.0532376 -0.367814E-07  0.161E-03    2.70      12.2  T
   8    -42.0532376 -0.332230E-07  0.404E-04    2.70      48.6  T
   9    -42.0532376 -0.830475E-09  0.210E-04    2.70      93.2  T
     SCC iter.                  ...        0 min,  0.043 sec
     gradient                   ...        0 min,  0.004 sec
 * total energy  :   -41.5085494 Eh     change       -0.2792893E-03 Eh
   gradient norm :     0.0061538 Eh/α   predicted    -0.2066010E-03 ( -26.03%)
   displ. norm   :     0.2298438 α      lambda       -0.2634583E-03
   maximum displ.:     0.1550540 α      in ANC's #3, #8, #6, ...

........................................................................
.............................. CYCLE    6 ..............................
........................................................................
   1    -42.0519140 -0.420519E+02  0.109E-01    2.68       0.0  T
   2    -42.0519155 -0.149651E-05  0.620E-02    2.68       1.0  T
   3    -42.0519161 -0.588602E-06  0.889E-03    2.68       2.2  T
   4    -42.0519161 -0.106313E-07  0.548E-03    2.68       3.6  T
   5    -42.0519164 -0.304061E-06  0.314E-03    2.68       6.2  T
   6    -42.0519165 -0.390270E-07  0.226E-03    2.68       8.7  T
   7    -42.0519165 -0.362467E-07  0.105E-03    2.68      18.7  T
   8    -42.0519165 -0.129613E-07  0.319E-04    2.68      61.4  T
   9    -42.0519165 -0.407056E-09  0.180E-04    2.68     109.1  T
     SCC iter.                  ...        0 min,  0.043 sec
     gradient                   ...        0 min,  0.005 sec
 * total energy  :   -41.5087630 Eh     change       -0.2135562E-03 Eh
   gradient norm :     0.0084436 Eh/α   predicted    -0.1387002E-03 ( -35.05%)
   displ. norm   :     0.3127124 α      lambda       -0.3595666E-03
   maximum displ.:     0.2091471 α      in ANC's #3, #8, #6, ...

........................................................................
.............................. CYCLE    7 ..............................
........................................................................
   1    -42.0508723 -0.420509E+02  0.145E-01    2.65       0.0  T
   2    -42.0508753 -0.297552E-05  0.826E-02    2.65       1.0  T
   3    -42.0508761 -0.825347E-06  0.121E-02    2.65       1.6  T
   4    -42.0508762 -0.138512E-06  0.774E-03    2.65       2.5  T
   5    -42.0508769 -0.600781E-06  0.411E-03    2.65       4.8  T
   6    -42.0508769 -0.653432E-07  0.308E-03    2.65       6.4  T
   7    -42.0508770 -0.617085E-07  0.156E-03    2.65      12.5  T
   8    -42.0508770 -0.272288E-07  0.446E-04    2.65      44.0  T
   9    -42.0508770 -0.933021E-09  0.227E-04    2.65      86.6  T
     SCC iter.                  ...        0 min,  0.043 sec
     gradient                   ...        0 min,  0.005 sec
 * total energy  :   -41.5090488 Eh     change       -0.2858780E-03 Eh
   gradient norm :     0.0094234 Eh/α   predicted    -0.1973655E-03 ( -30.96%)
   displ. norm   :     0.3595590 α      lambda       -0.4028146E-03
   maximum displ.:     0.2488526 α      in ANC's #3, #8, #6, ...

........................................................................
.............................. CYCLE    8 ..............................
........................................................................
   1    -42.0508774 -0.420509E+02  0.160E-01    2.63       0.0  T
   2    -42.0508815 -0.413057E-05  0.915E-02    2.63       1.0  T
   3    -42.0508828 -0.120365E-05  0.136E-02    2.63       1.4  T
   4    -42.0508830 -0.257919E-06  0.861E-03    2.63       2.3  T
   5    -42.0508837 -0.661255E-06  0.486E-03    2.63       4.0  T
   6    -42.0508838 -0.105372E-06  0.347E-03    2.63       5.7  T
   7    -42.0508838 -0.642123E-07  0.194E-03    2.63      10.1  T
   8    -42.0508839 -0.442934E-07  0.499E-04    2.63      39.3  T
   9    -42.0508839 -0.120072E-08  0.251E-04    2.63      78.1  T
     SCC iter.                  ...        0 min,  0.043 sec
     gradient                   ...        0 min,  0.005 sec
 * total energy  :   -41.5093532 Eh     change       -0.3043767E-03 Eh
   gradient norm :     0.0084670 Eh/α   predicted    -0.2274479E-03 ( -25.27%)
   displ. norm   :     0.3253928 α      lambda       -0.3418919E-03
   maximum displ.:     0.2359484 α      in ANC's #3, #8, #6, ...

........................................................................
.............................. CYCLE    9 ..............................
........................................................................
   1    -42.0529142 -0.420529E+02  0.138E-01    2.62       0.0  T
   2    -42.0529174 -0.318000E-05  0.787E-02    2.62       1.0  T
   3    -42.0529180 -0.639845E-06  0.130E-02    2.62       1.5  T
   4    -42.0529185 -0.524871E-06  0.871E-03    2.62       2.3  T
   5    -42.0529192 -0.671226E-06  0.466E-03    2.62       4.2  T
   6    -42.0529193 -0.919725E-07  0.342E-03    2.62       5.7  T
   7    -42.0529194 -0.770012E-07  0.177E-03    2.62      11.1  T
   8    -42.0529194 -0.332240E-07  0.427E-04    2.62      46.0  T
   9    -42.0529194 -0.744599E-09  0.229E-04    2.62      85.8  T
     SCC iter.                  ...        0 min,  0.043 sec
     gradient                   ...        0 min,  0.004 sec
 * total energy  :   -41.5096062 Eh     change       -0.2530223E-03 Eh
   gradient norm :     0.0057989 Eh/α   predicted    -0.1890478E-03 ( -25.28%)
   displ. norm   :     0.3670310 α      lambda       -0.2495920E-03
   maximum displ.:     0.2739547 α      in ANC's #3, #8, #6, ...

........................................................................
.............................. CYCLE   10 ..............................
........................................................................
   1    -42.0529081 -0.420529E+02  0.154E-01    2.60       0.0  T
   2    -42.0529115 -0.338344E-05  0.876E-02    2.60       1.0  T
   3    -42.0529118 -0.348424E-06  0.147E-02    2.60       1.3  T
   4    -42.0529127 -0.895116E-06  0.971E-03    2.60       2.0  T
   5    -42.0529136 -0.843840E-06  0.470E-03    2.60       4.2  T
   6    -42.0529137 -0.846086E-07  0.358E-03    2.60       5.5  T
   7    -42.0529138 -0.101135E-06  0.130E-03    2.60      15.1  T
   8    -42.0529138 -0.177216E-07  0.455E-04    2.60      43.1  T
   9    -42.0529138 -0.106869E-08  0.265E-04    2.60      73.9  T
     SCC iter.                  ...        0 min,  0.045 sec
     gradient                   ...        0 min,  0.004 sec
 * total energy  :   -41.5097924 Eh     change       -0.1861427E-03 Eh
   gradient norm :     0.0069783 Eh/α   predicted    -0.1416076E-03 ( -23.93%)
   displ. norm   :     0.3550106 α      lambda       -0.3276381E-03
   maximum displ.:     0.2712501 α      in ANC's #3, #8, #1, ...

........................................................................
.............................. CYCLE   11 ..............................
........................................................................
   1    -42.0576837 -0.420577E+02  0.142E-01    2.62       0.0  T
   2    -42.0576872 -0.351844E-05  0.809E-02    2.62       1.0  T
   3    -42.0576851  0.203980E-05  0.175E-02    2.62       1.1  T
   4    -42.0576889 -0.371627E-05  0.892E-03    2.62       2.2  T
   5    -42.0576892 -0.369893E-06  0.471E-03    2.62       4.2  T
   6    -42.0576894 -0.136818E-06  0.347E-03    2.62       5.7  T
   7    -42.0576894 -0.766571E-07  0.177E-03    2.62      11.1  T
   8    -42.0576895 -0.298004E-07  0.491E-04    2.62      39.9  T
   9    -42.0576895 -0.867509E-09  0.313E-04    2.62      62.6  T
     SCC iter.                  ...        0 min,  0.044 sec
     gradient                   ...        0 min,  0.005 sec
 * total energy  :   -41.5099673 Eh     change       -0.1748749E-03 Eh
   gradient norm :     0.0064900 Eh/α   predicted    -0.1844712E-03 (   5.49%)
   displ. norm   :     0.5380030 α      lambda       -0.2798166E-03
   maximum displ.:     0.4110452 α      in ANC's #3, #8, #1, ...

........................................................................
.............................. CYCLE   12 ..............................
........................................................................
   1    -42.0509390 -0.420509E+02  0.228E-01    2.58       0.0  T
   2    -42.0509481 -0.904469E-05  0.130E-01    2.58       1.0  T
   3    -42.0509456  0.241923E-05  0.257E-02    2.58       1.0  T
   4    -42.0509520 -0.637841E-05  0.133E-02    2.58       1.5  T
   5    -42.0509529 -0.880112E-06  0.662E-03    2.58       3.0  T
   6    -42.0509531 -0.168354E-06  0.517E-03    2.58       3.8  T
   7    -42.0509532 -0.171880E-06  0.266E-03    2.58       7.4  T
   8    -42.0509533 -0.757655E-07  0.781E-04    2.58      25.1  T
   9    -42.0509533 -0.324044E-08  0.396E-04    2.58      49.5  T
     SCC iter.                  ...        0 min,  0.044 sec
     gradient                   ...        0 min,  0.005 sec
 * total energy  :   -41.5099987 Eh     change       -0.3140347E-04 Eh
   gradient norm :     0.0117435 Eh/α   predicted    -0.1804083E-03 ( 474.49%)
   displ. norm   :     0.1879495 α      lambda       -0.2873861E-03
   maximum displ.:     0.1339683 α      in ANC's #3, #8, #6, ...

........................................................................
.............................. CYCLE   13 ..............................
........................................................................
   1    -42.0555238 -0.420555E+02  0.900E-02    2.60       0.0  T
   2    -42.0555258 -0.198382E-05  0.513E-02    2.60       1.0  T
   3    -42.0555236  0.215464E-05  0.154E-02    2.60       1.3  T
   4    -42.0555269 -0.323841E-05  0.594E-03    2.60       3.3  T
   5    -42.0555270 -0.837479E-07  0.337E-03    2.60       5.8  T
   6    -42.0555270 -0.755167E-07  0.240E-03    2.60       8.2  T
   7    -42.0555271 -0.373401E-07  0.121E-03    2.60      16.2  T
   8    -42.0555271 -0.119811E-07  0.390E-04    2.60      50.3  T
   9    -42.0555271 -0.972761E-09  0.228E-04    2.60      86.0  T
     SCC iter.                  ...        0 min,  0.045 sec
     gradient                   ...        0 min,  0.004 sec
 * total energy  :   -41.5101482 Eh     change       -0.1495742E-03 Eh
   gradient norm :     0.0047438 Eh/α   predicted    -0.1487691E-03 (  -0.54%)
   displ. norm   :     0.1175965 α      lambda       -0.9113856E-04
   maximum displ.:     0.0903283 α      in ANC's #3, #12, #1, ...

........................................................................
.............................. CYCLE   14 ..............................
........................................................................
   1    -42.0560988 -0.420561E+02  0.429E-02    2.61       0.0  T
   2    -42.0560995 -0.669262E-06  0.239E-02    2.61       1.0  T
   3    -42.0560992  0.240561E-06  0.566E-03    2.61       3.5  T
   4    -42.0560995 -0.325356E-06  0.258E-03    2.61       7.6  T
   5    -42.0560996 -0.570668E-07  0.102E-03    2.61      19.3  T
   6    -42.0560996 -0.809590E-08  0.438E-04    2.61      44.8  T
   7    -42.0560996 -0.110126E-08  0.300E-04    2.61      65.3  T
     SCC iter.                  ...        0 min,  0.035 sec
     gradient                   ...        0 min,  0.004 sec
 * total energy  :   -41.5102164 Eh     change       -0.6820398E-04 Eh
   gradient norm :     0.0026289 Eh/α   predicted    -0.4620135E-04 ( -32.26%)
   displ. norm   :     0.3642567 α      lambda       -0.1705614E-03
   maximum displ.:     0.2905435 α      in ANC's #3, #1, #12, ...

........................................................................
.............................. CYCLE   15 ..............................
........................................................................
   1    -42.0550727 -0.420551E+02  0.137E-01    2.60       0.0  T
   2    -42.0550755 -0.283437E-05  0.774E-02    2.60       1.0  T
   3    -42.0550761 -0.562431E-06  0.103E-02    2.60       1.9  T
   4    -42.0550760  0.595383E-07  0.585E-03    2.60       3.4  T
   5    -42.0550764 -0.380115E-06  0.221E-03    2.60       8.9  T
   6    -42.0550764 -0.360067E-07  0.147E-03    2.60      13.4  T
   7    -42.0550764 -0.969145E-08  0.834E-04    2.60      23.5  T
   8    -42.0550764 -0.654040E-08  0.409E-04    2.60      47.9  T
     SCC iter.                  ...        0 min,  0.039 sec
     gradient                   ...        0 min,  0.004 sec
 * total energy  :   -41.5103038 Eh     change       -0.8732755E-04 Eh
   gradient norm :     0.0049268 Eh/α   predicted    -0.9659736E-04 (  10.61%)
   displ. norm   :     0.1145076 α      lambda       -0.5462967E-04
   maximum displ.:     0.0950515 α      in ANC's #3, #1, #12, ...

........................................................................
.............................. CYCLE   16 ..............................
........................................................................
   1    -42.0548931 -0.420549E+02  0.433E-02    2.60       0.0  T
   2    -42.0548934 -0.314982E-06  0.248E-02    2.60       1.0  T
   3    -42.0548934 -0.664237E-08  0.400E-03    2.60       4.9  T
   4    -42.0548935 -0.948993E-07  0.233E-03    2.60       8.4  T
   5    -42.0548935 -0.342112E-07  0.120E-03    2.60      16.3  T
   6    -42.0548935 -0.829291E-08  0.822E-04    2.60      23.9  T
   7    -42.0548935 -0.294355E-08  0.503E-04    2.60      39.0  T
     SCC iter.                  ...        0 min,  0.035 sec
     gradient                   ...        0 min,  0.004 sec
 * total energy  :   -41.5103304 Eh     change       -0.2659416E-04 Eh
   gradient norm :     0.0032926 Eh/α   predicted    -0.2767515E-04 (   4.06%)
   displ. norm   :     0.0690291 α      lambda       -0.5205541E-04
   maximum displ.:     0.0420579 α      in ANC's #3, #8, #1, ...

........................................................................
.............................. CYCLE   17 ..............................
........................................................................
   1    -42.0564499 -0.420564E+02  0.306E-02    2.60       0.0  T
   2    -42.0564503 -0.407291E-06  0.171E-02    2.60       1.1  T
   3    -42.0564502  0.681837E-07  0.420E-03    2.60       4.7  T
   4    -42.0564504 -0.136134E-06  0.210E-03    2.60       9.3  T
   5    -42.0564504 -0.269130E-07  0.110E-03    2.60      17.8  T
   6    -42.0564504 -0.927431E-08  0.564E-04    2.60      34.8  T
   7    -42.0564504 -0.122677E-08  0.371E-04    2.60      52.8  T
     SCC iter.                  ...        0 min,  0.037 sec
     gradient                   ...        0 min,  0.004 sec
 * total energy  :   -41.5103538 Eh     change       -0.2345368E-04 Eh
   gradient norm :     0.0039306 Eh/α   predicted    -0.2615502E-04 (  11.52%)
   displ. norm   :     0.0791510 α      lambda       -0.3486278E-04
   maximum displ.:     0.0571195 α      in ANC's #3, #8, #1, ...

........................................................................
.............................. CYCLE   18 ..............................
........................................................................
   1    -42.0568351 -0.420568E+02  0.320E-02    2.60       0.0  T
   2    -42.0568354 -0.285235E-06  0.183E-02    2.60       1.1  T
   3    -42.0568352  0.248529E-06  0.459E-03    2.60       4.3  T
   4    -42.0568355 -0.325678E-06  0.200E-03    2.60       9.8  T
   5    -42.0568355 -0.274561E-07  0.984E-04    2.60      19.9  T
   6    -42.0568355 -0.520188E-08  0.611E-04    2.60      32.1  T
     SCC iter.                  ...        0 min,  0.032 sec
     gradient                   ...        0 min,  0.004 sec
 * total energy  :   -41.5103803 Eh     change       -0.2643355E-04 Eh
   gradient norm :     0.0024847 Eh/α   predicted    -0.1754583E-04 ( -33.62%)
   displ. norm   :     0.2062271 α      lambda       -0.5731778E-04
   maximum displ.:     0.1535353 α      in ANC's #3, #1, #8, ...

........................................................................
.............................. CYCLE   19 ..............................
........................................................................
   1    -42.0559963 -0.420560E+02  0.765E-02    2.60       0.0  T
   2    -42.0559974 -0.108517E-05  0.434E-02    2.60       1.0  T
   3    -42.0559971  0.363314E-06  0.893E-03    2.60       2.2  T
   4    -42.0559978 -0.782195E-06  0.482E-03    2.60       4.1  T
   5    -42.0559980 -0.126806E-06  0.243E-03    2.60       8.1  T
   6    -42.0559980 -0.361614E-07  0.176E-03    2.60      11.2  T
   7    -42.0559980 -0.177694E-07  0.988E-04    2.60      19.8  T
   8    -42.0559980 -0.901051E-08  0.331E-04    2.60      59.2  T
     SCC iter.                  ...        0 min,  0.042 sec
     gradient                   ...        0 min,  0.004 sec
 * total energy  :   -41.5104182 Eh     change       -0.3793550E-04 Eh
   gradient norm :     0.0028851 Eh/α   predicted    -0.2987992E-04 ( -21.23%)
   displ. norm   :     0.1941707 α      lambda       -0.5748206E-04
   maximum displ.:     0.1291907 α      in ANC's #8, #3, #2, ...

........................................................................
.............................. CYCLE   20 ..............................
........................................................................
   1    -42.0560184 -0.420560E+02  0.725E-02    2.60       0.0  T
   2    -42.0560191 -0.774965E-06  0.415E-02    2.60       1.0  T
   3    -42.0560187  0.408719E-06  0.824E-03    2.60       2.4  T
   4    -42.0560195 -0.730339E-06  0.442E-03    2.60       4.4  T
   5    -42.0560196 -0.129224E-06  0.209E-03    2.60       9.4  T
   6    -42.0560196 -0.195624E-07  0.157E-03    2.60      12.5  T
   7    -42.0560196 -0.154424E-07  0.860E-04    2.60      22.8  T
   8    -42.0560196 -0.633046E-08  0.288E-04    2.60      68.2  T
     SCC iter.                  ...        0 min,  0.039 sec
     gradient                   ...        0 min,  0.004 sec
 * total energy  :   -41.5104532 Eh     change       -0.3500817E-04 Eh
   gradient norm :     0.0037930 Eh/α   predicted    -0.2982677E-04 ( -14.80%)
   displ. norm   :     0.1863482 α      lambda       -0.4831564E-04
   maximum displ.:     0.1070563 α      in ANC's #3, #8, #2, ...
 * RMSD in coord.:     0.7212353 α      energy gain  -0.9891031E-02 Eh

generating ANC from model Hessian ...
Using Lindh-Hessian (1995)
 Shifting diagonal of input Hessian by    1.0007616587755796E-002
 Lowest  eigenvalues of input Hessian
    0.010000    0.000000    0.000000    0.000000    0.000000    0.000000
    0.000000    0.010540    0.010827    0.011651    0.012399    0.013691
    0.015181    0.015900    0.021514    0.023561    0.024757    0.025921
 Highest eigenvalues
    1.658176    1.706494    1.820630    1.886091    1.915470    2.010415


........................................................................
.............................. CYCLE   21 ..............................
........................................................................
   1    -42.0549236 -0.420549E+02  0.687E-02    2.60       0.0  T
   2    -42.0549244 -0.814930E-06  0.391E-02    2.60       1.0  T
   3    -42.0549242  0.180289E-06  0.809E-03    2.60       2.4  T
   4    -42.0549247 -0.535000E-06  0.458E-03    2.60       4.3  T
   5    -42.0549249 -0.125674E-06  0.228E-03    2.60       8.6  T
   6    -42.0549249 -0.211562E-07  0.172E-03    2.60      11.4  T
   7    -42.0549249 -0.196614E-07  0.937E-04    2.60      20.9  T
   8    -42.0549249 -0.775775E-08  0.256E-04    2.60      76.7  T
     SCC iter.                  ...        0 min,  0.036 sec
     gradient                   ...        0 min,  0.004 sec
 * total energy  :   -41.5104871 Eh     change       -0.3389486E-04 Eh
   gradient norm :     0.0032588 Eh/α   predicted     0.0000000E+00 (-100.00%)
   displ. norm   :     0.0279026 α      lambda       -0.2626232E-04
   maximum displ.:     0.0113765 α      in ANC's #2, #5, #12, ...

........................................................................
.............................. CYCLE   22 ..............................
........................................................................
   1    -42.0557932 -0.420558E+02  0.120E-02    2.60       0.0  T
   2    -42.0557933 -0.116125E-06  0.637E-03    2.60       3.1  T
   3    -42.0557933  0.715061E-08  0.207E-03    2.60       9.5  T
   4    -42.0557933 -0.243022E-07  0.103E-03    2.60      19.0  T
   5    -42.0557933 -0.775221E-08  0.541E-04    2.60      36.3  T
   6    -42.0557933 -0.156631E-08  0.344E-04    2.60      57.0  T
     SCC iter.                  ...        0 min,  0.027 sec
     gradient                   ...        0 min,  0.004 sec
 * total energy  :   -41.5105071 Eh     change       -0.1998716E-04 Eh
   gradient norm :     0.0013489 Eh/α   predicted    -0.1393734E-04 ( -30.27%)
   displ. norm   :     0.0785662 α      lambda       -0.2269681E-04
   maximum displ.:     0.0390678 α      in ANC's #2, #5, #1, ...

........................................................................
.............................. CYCLE   23 ..............................
........................................................................
   1    -42.0567013 -0.420567E+02  0.275E-02    2.61       0.0  T
   2    -42.0567017 -0.399380E-06  0.155E-02    2.61       1.3  T
   3    -42.0567017 -0.172570E-07  0.397E-03    2.61       4.9  T
   4    -42.0567018 -0.694165E-07  0.232E-03    2.61       8.5  T
   5    -42.0567018 -0.432666E-07  0.141E-03    2.61      13.9  T
   6    -42.0567018 -0.101095E-07  0.953E-04    2.61      20.6  T
   7    -42.0567018 -0.578471E-08  0.549E-04    2.61      35.7  T
     SCC iter.                  ...        0 min,  0.031 sec
     gradient                   ...        0 min,  0.004 sec
 * total energy  :   -41.5105257 Eh     change       -0.1861479E-04 Eh
   gradient norm :     0.0021608 Eh/α   predicted    -0.1138071E-04 ( -38.86%)
   displ. norm   :     0.0425195 α      lambda       -0.1183271E-04
   maximum displ.:     0.0222984 α      in ANC's #5, #2, #1, ...

........................................................................
.............................. CYCLE   24 ..............................
........................................................................
   1    -42.0564253 -0.420564E+02  0.121E-02    2.61       0.0  T
   2    -42.0564253 -0.334035E-07  0.700E-03    2.61       2.8  T
   3    -42.0564253 -0.109054E-07  0.141E-03    2.61      13.9  T
   4    -42.0564253 -0.868702E-08  0.993E-04    2.61      19.8  T
   5    -42.0564253 -0.671383E-08  0.596E-04    2.61      32.9  T
     SCC iter.                  ...        0 min,  0.022 sec
     gradient                   ...        0 min,  0.004 sec
 * total energy  :   -41.5105365 Eh     change       -0.1081433E-04 Eh
   gradient norm :     0.0018758 Eh/α   predicted    -0.5927491E-05 ( -45.19%)
   displ. norm   :     0.2264544 α      lambda       -0.3874920E-04
   maximum displ.:     0.1223762 α      in ANC's #5, #2, #1, ...

........................................................................
.............................. CYCLE   25 ..............................
........................................................................
   1    -42.0548839 -0.420549E+02  0.640E-02    2.60       0.0  T
   2    -42.0548846 -0.682111E-06  0.372E-02    2.60       1.0  T
   3    -42.0548847 -0.122143E-06  0.698E-03    2.60       2.8  T
   4    -42.0548851 -0.323009E-06  0.463E-03    2.60       4.2  T
   5    -42.0548852 -0.132581E-06  0.274E-03    2.60       7.2  T
   6    -42.0548852 -0.357707E-07  0.196E-03    2.60      10.0  T
   7    -42.0548853 -0.281562E-07  0.764E-04    2.60      25.7  T
   8    -42.0548853 -0.666026E-08  0.229E-04    2.60      85.6  T
     SCC iter.                  ...        0 min,  0.036 sec
     gradient                   ...        0 min,  0.004 sec
 * total energy  :   -41.5105747 Eh     change       -0.3819231E-04 Eh
   gradient norm :     0.0019356 Eh/α   predicted    -0.1981734E-04 ( -48.11%)
   displ. norm   :     0.1653546 α      lambda       -0.1930624E-04
   maximum displ.:     0.0887763 α      in ANC's #5, #2, #1, ...

........................................................................
.............................. CYCLE   26 ..............................
........................................................................
   1    -42.0547968 -0.420548E+02  0.436E-02    2.60       0.0  T
   2    -42.0547971 -0.281489E-06  0.252E-02    2.60       1.0  T
   3    -42.0547972 -0.106541E-06  0.425E-03    2.60       4.6  T
   4    -42.0547973 -0.515111E-07  0.306E-03    2.60       6.4  T
   5    -42.0547973 -0.787188E-07  0.168E-03    2.60      11.7  T
   6    -42.0547974 -0.116080E-07  0.118E-03    2.60      16.7  T
   7    -42.0547974 -0.122659E-07  0.357E-04    2.60      54.9  T
   8    -42.0547974 -0.143754E-08  0.141E-04    2.60     139.4  T
     SCC iter.                  ...        0 min,  0.035 sec
     gradient                   ...        0 min,  0.004 sec
 * total energy  :   -41.5105989 Eh     change       -0.2419357E-04 Eh
   gradient norm :     0.0020607 Eh/α   predicted    -0.9773770E-05 ( -59.60%)
   displ. norm   :     0.2003131 α      lambda       -0.3831696E-04
   maximum displ.:     0.1047422 α      in ANC's #5, #2, #1, ...

........................................................................
.............................. CYCLE   27 ..............................
........................................................................
   1    -42.0550849 -0.420551E+02  0.522E-02    2.60       0.0  T
   2    -42.0550853 -0.377364E-06  0.302E-02    2.60       1.0  T
   3    -42.0550854 -0.992399E-07  0.476E-03    2.60       4.1  T
   4    -42.0550855 -0.962261E-07  0.327E-03    2.60       6.0  T
   5    -42.0550856 -0.775955E-07  0.182E-03    2.60      10.8  T
   6    -42.0550856 -0.136201E-07  0.134E-03    2.60      14.6  T
   7    -42.0550856 -0.136398E-07  0.572E-04    2.60      34.3  T
   8    -42.0550856 -0.368490E-08  0.173E-04    2.60     113.6  T
     SCC iter.                  ...        0 min,  0.036 sec
     gradient                   ...        0 min,  0.004 sec
 * total energy  :   -41.5106317 Eh     change       -0.3279327E-04 Eh
   gradient norm :     0.0017536 Eh/α   predicted    -0.1992766E-04 ( -39.23%)
   displ. norm   :     0.6111445 α      lambda       -0.6807348E-04
   maximum displ.:     0.3125880 α      in ANC's #5, #2, #1, ...

........................................................................
.............................. CYCLE   28 ..............................
........................................................................
   1    -42.0536197 -0.420536E+02  0.158E-01    2.59       0.0  T
   2    -42.0536232 -0.344571E-05  0.910E-02    2.59       1.0  T
   3    -42.0536240 -0.770705E-06  0.144E-02    2.59       1.4  T
   4    -42.0536248 -0.869932E-06  0.947E-03    2.59       2.1  T
   5    -42.0536255 -0.654474E-06  0.506E-03    2.59       3.9  T
   6    -42.0536256 -0.944675E-07  0.382E-03    2.59       5.1  T
   7    -42.0536257 -0.115291E-06  0.157E-03    2.59      12.5  T
   8    -42.0536257 -0.279981E-07  0.543E-04    2.59      36.1  T
   9    -42.0536257 -0.471616E-09  0.234E-04    2.59      83.9  T
     SCC iter.                  ...        0 min,  0.039 sec
     gradient                   ...        0 min,  0.004 sec
 * total energy  :   -41.5106785 Eh     change       -0.4679756E-04 Eh
   gradient norm :     0.0044210 Eh/α   predicted    -0.3968848E-04 ( -15.19%)
   displ. norm   :     0.0412331 α      lambda       -0.4665014E-04
   maximum displ.:     0.0192198 α      in ANC's #8, #4, #7, ...

........................................................................
.............................. CYCLE   29 ..............................
........................................................................
   1    -42.0557820 -0.420558E+02  0.197E-02    2.60       0.0  T
   2    -42.0557822 -0.201226E-06  0.111E-02    2.60       1.8  T
   3    -42.0557821  0.124124E-06  0.355E-03    2.60       5.5  T
   4    -42.0557823 -0.170142E-06  0.112E-03    2.60      17.5  T
   5    -42.0557823 -0.485174E-08  0.530E-04    2.60      37.0  T
   6    -42.0557823 -0.147968E-08  0.283E-04    2.60      69.4  T
     SCC iter.                  ...        0 min,  0.026 sec
     gradient                   ...        0 min,  0.004 sec
 * total energy  :   -41.5107102 Eh     change       -0.3170519E-04 Eh
   gradient norm :     0.0026650 Eh/α   predicted    -0.2339247E-04 ( -26.22%)
   displ. norm   :     0.1932906 α      lambda       -0.4027991E-04
   maximum displ.:     0.1020905 α      in ANC's #2, #4, #1, ...

........................................................................
.............................. CYCLE   30 ..............................
........................................................................
   1    -42.0567186 -0.420567E+02  0.533E-02    2.60       0.0  T
   2    -42.0567190 -0.395607E-06  0.306E-02    2.60       1.0  T
   3    -42.0567191 -0.484767E-07  0.491E-03    2.60       4.0  T
   4    -42.0567192 -0.927979E-07  0.324E-03    2.60       6.0  T
   5    -42.0567193 -0.895262E-07  0.160E-03    2.60      12.2  T
   6    -42.0567193 -0.103493E-07  0.121E-03    2.60      16.2  T
   7    -42.0567193 -0.103286E-07  0.580E-04    2.60      33.8  T
   8    -42.0567193 -0.328561E-08  0.186E-04    2.60     105.3  T
     SCC iter.                  ...        0 min,  0.035 sec
     gradient                   ...        0 min,  0.004 sec
 * total energy  :   -41.5107435 Eh     change       -0.3326018E-04 Eh
   gradient norm :     0.0019155 Eh/α   predicted    -0.2089312E-04 ( -37.18%)
   displ. norm   :     0.6969927 α      lambda       -0.7058420E-04
   maximum displ.:     0.3789823 α      in ANC's #2, #4, #1, ...

........................................................................
.............................. CYCLE   31 ..............................
........................................................................
   1    -42.0536968 -0.420537E+02  0.193E-01    2.60       0.0  T
   2    -42.0537020 -0.511604E-05  0.110E-01    2.60       1.0  T
   3    -42.0537035 -0.154852E-05  0.169E-02    2.60       1.2  T
   4    -42.0537036 -0.643567E-07  0.117E-02    2.60       1.7  T
   5    -42.0537050 -0.144325E-05  0.586E-03    2.60       3.3  T
   6    -42.0537052 -0.147682E-06  0.419E-03    2.60       4.7  T
   7    -42.0537053 -0.111723E-06  0.198E-03    2.60       9.9  T
   8    -42.0537053 -0.464153E-07  0.667E-04    2.60      29.4  T
   9    -42.0537053 -0.106895E-08  0.349E-04    2.60      56.2  T
     SCC iter.                  ...        0 min,  0.040 sec
     gradient                   ...        0 min,  0.004 sec
 * total energy  :   -41.5107995 Eh     change       -0.5600894E-04 Eh
   gradient norm :     0.0035374 Eh/α   predicted    -0.4291555E-04 ( -23.38%)
   displ. norm   :     0.0475550 α      lambda       -0.3783523E-04
   maximum displ.:     0.0242514 α      in ANC's #5, #3, #2, ...

........................................................................
.............................. CYCLE   32 ..............................
........................................................................
   1    -42.0557506 -0.420558E+02  0.211E-02    2.60       0.0  T
   2    -42.0557507 -0.154391E-06  0.121E-02    2.60       1.6  T
   3    -42.0557507  0.516410E-07  0.277E-03    2.60       7.1  T
   4    -42.0557507 -0.883306E-07  0.133E-03    2.60      14.7  T
   5    -42.0557508 -0.129601E-07  0.692E-04    2.60      28.3  T
   6    -42.0557508 -0.214937E-08  0.476E-04    2.60      41.2  T
     SCC iter.                  ...        0 min,  0.026 sec
     gradient                   ...        0 min,  0.004 sec
 * total energy  :   -41.5108233 Eh     change       -0.2379437E-04 Eh
   gradient norm :     0.0019365 Eh/α   predicted    -0.1896250E-04 ( -20.31%)
   displ. norm   :     0.2762726 α      lambda       -0.2353659E-04
   maximum displ.:     0.1793974 α      in ANC's #2, #1, #4, ...

........................................................................
.............................. CYCLE   33 ..............................
........................................................................
   1    -42.0560670 -0.420561E+02  0.828E-02    2.60       0.0  T
   2    -42.0560680 -0.990498E-06  0.478E-02    2.60       1.0  T
   3    -42.0560683 -0.375409E-06  0.843E-03    2.60       2.3  T
   4    -42.0560686 -0.226102E-06  0.604E-03    2.60       3.2  T
   5    -42.0560689 -0.298365E-06  0.326E-03    2.60       6.0  T
   6    -42.0560689 -0.450475E-07  0.212E-03    2.60       9.2  T
   7    -42.0560690 -0.438366E-07  0.544E-04    2.60      36.1  T
   8    -42.0560690 -0.258283E-08  0.270E-04    2.60      72.7  T
     SCC iter.                  ...        0 min,  0.035 sec
     gradient                   ...        0 min,  0.004 sec
 * total energy  :   -41.5108491 Eh     change       -0.2582874E-04 Eh
   gradient norm :     0.0016666 Eh/α   predicted    -0.1217654E-04 ( -52.86%)
   displ. norm   :     0.1255846 α      lambda       -0.1423306E-04
   maximum displ.:     0.0925916 α      in ANC's #2, #1, #6, ...

........................................................................
.............................. CYCLE   34 ..............................
........................................................................
   1    -42.0566062 -0.420566E+02  0.388E-02    2.60       0.0  T
   2    -42.0566066 -0.384074E-06  0.222E-02    2.60       1.0  T
   3    -42.0566067 -0.841648E-07  0.520E-03    2.60       3.8  T
   4    -42.0566068 -0.151112E-06  0.358E-03    2.60       5.5  T
   5    -42.0566069 -0.841552E-07  0.210E-03    2.60       9.4  T
   6    -42.0566069 -0.213210E-07  0.144E-03    2.60      13.6  T
   7    -42.0566069 -0.144143E-07  0.634E-04    2.60      30.9  T
   8    -42.0566069 -0.434665E-08  0.136E-04    2.60     144.2  T
     SCC iter.                  ...        0 min,  0.035 sec
     gradient                   ...        0 min,  0.004 sec
 * total energy  :   -41.5108657 Eh     change       -0.1662091E-04 Eh
   gradient norm :     0.0009957 Eh/α   predicted    -0.7167387E-05 ( -56.88%)
   displ. norm   :     0.1027092 α      lambda       -0.9386914E-05
   maximum displ.:     0.0791233 α      in ANC's #2, #1, #6, ...

........................................................................
.............................. CYCLE   35 ..............................
........................................................................
   1    -42.0565926 -0.420566E+02  0.319E-02    2.60       0.0  T
   2    -42.0565929 -0.277430E-06  0.183E-02    2.60       1.1  T
   3    -42.0565930 -0.143247E-06  0.428E-03    2.60       4.6  T
   4    -42.0565931 -0.598928E-07  0.303E-03    2.60       6.5  T
   5    -42.0565931 -0.619632E-07  0.181E-03    2.60      10.8  T
   6    -42.0565932 -0.186805E-07  0.110E-03    2.60      17.7  T
   7    -42.0565932 -0.731679E-08  0.426E-04    2.60      46.0  T
   8    -42.0565932 -0.281440E-08  0.121E-04    2.60     161.6  T
     SCC iter.                  ...        0 min,  0.035 sec
     gradient                   ...        0 min,  0.004 sec
 * total energy  :   -41.5108770 Eh     change       -0.1129789E-04 Eh
   gradient norm :     0.0007458 Eh/α   predicted    -0.4715949E-05 ( -58.26%)
   displ. norm   :     0.0679274 α      lambda       -0.5620379E-05
   maximum displ.:     0.0560196 α      in ANC's #2, #6, #8, ...

........................................................................
.............................. CYCLE   36 ..............................
........................................................................
   1    -42.0567268 -0.420567E+02  0.208E-02    2.60       0.0  T
   2    -42.0567269 -0.128202E-06  0.121E-02    2.60       1.6  T
   3    -42.0567270 -0.536960E-07  0.339E-03    2.60       5.8  T
   4    -42.0567271 -0.617313E-07  0.242E-03    2.60       8.1  T
   5    -42.0567271 -0.383663E-07  0.134E-03    2.60      14.6  T
   6    -42.0567271 -0.787160E-08  0.862E-04    2.60      22.8  T
   7    -42.0567271 -0.725503E-08  0.215E-04    2.60      91.1  T
     SCC iter.                  ...        0 min,  0.031 sec
     gradient                   ...        0 min,  0.004 sec
 * total energy  :   -41.5108839 Eh     change       -0.6855718E-05 Eh
   gradient norm :     0.0005592 Eh/α   predicted    -0.2818336E-05 ( -58.89%)
   displ. norm   :     0.0496401 α      lambda       -0.3524534E-05
   maximum displ.:     0.0416721 α      in ANC's #2, #8, #6, ...

........................................................................
.............................. CYCLE   37 ..............................
........................................................................
   1    -42.0565013 -0.420565E+02  0.152E-02    2.60       0.0  T
   2    -42.0565014 -0.679892E-07  0.888E-03    2.60       2.2  T
   3    -42.0565014 -0.848511E-08  0.268E-03    2.60       7.3  T
   4    -42.0565014 -0.573463E-07  0.180E-03    2.60      10.9  T
   5    -42.0565014 -0.204863E-07  0.980E-04    2.60      20.0  T
   6    -42.0565015 -0.544703E-08  0.567E-04    2.60      34.6  T
     SCC iter.                  ...        0 min,  0.027 sec
     gradient                   ...        0 min,  0.004 sec
 * total energy  :   -41.5108883 Eh     change       -0.4392508E-05 Eh
   gradient norm :     0.0004581 Eh/α   predicted    -0.1766993E-05 ( -59.77%)
   displ. norm   :     0.0351478 α      lambda       -0.2343847E-05
   maximum displ.:     0.0292458 α      in ANC's #2, #3, #8, ...

   *** GEOMETRY OPTIMIZATION CONVERGED AFTER 37 ITERATIONS ***

------------------------------------------------------------------------
 total energy gain   :        -0.0103261 Eh       -6.4797 kcal/mol
 total RMSD          :         1.0071732 a0        0.5330 Å
 total power (kW/mol):        -0.7327332 (step)  -16.4331 (real)
------------------------------------------------------------------------

 ANCopt (total)                0 d,  0 h,  0 min,  1.650 sec
 optimizer setup                ...        0 min,  0.000 sec (  0.008%)
 model hessian                  ...        0 min,  0.009 sec (  0.555%)
 ANC generation                 ...        0 min,  0.005 sec (  0.277%)
 coordinate transformation      ...        0 min,  0.001 sec (  0.054%)
 single point calculation       ...        0 min,  1.620 sec ( 98.206%)
 optimization log               ...        0 min,  0.004 sec (  0.255%)
 hessian update                 ...        0 min,  0.001 sec (  0.082%)
 rational function              ...        0 min,  0.005 sec (  0.324%)

================
 final structure:
================
26
 xtb: 6.5.1 (fef0646)
N            1.01384290809491        0.29406235370098       -0.35300147078700
C            2.48242684483199        0.29656240441407       -0.23150426073162
C            3.03108386339834        1.72746229054081       -0.23403493165954
C            4.52041648964252        1.71111933824308       -0.18029793605461
C            5.34004831006031        1.98431771843184        0.87197441470314
C            6.70632537450081        1.82924936842844        0.57147047033519
C            6.93421128012192        1.42988991701934       -0.71864303910029
C            8.18092256588298        1.17623057341777       -1.36635941387022
C            8.40758254776332        0.78815070686973       -2.66054998938303
C            9.77511671208890        0.62946822397649       -2.95843399910049
C           10.57949835797297        0.89593091444108       -1.89751340475105
S            9.68401764943080        1.35001685048487       -0.50043758144001
S            5.43697302603684        1.24151675025409       -1.58072851427493
Cl           0.00982347481044       -2.55544181305272       -0.01474205547257
H            0.64786835576324       -0.69020939848567       -0.26932543598450
H            0.71841283565246        0.66276861552378       -1.26014319218937
H            0.58236479664174        0.84200220630914        0.39569042539057
H            2.90618174010692       -0.26546103517835       -1.06360420711022
H            2.75807823883541       -0.21203350154430        0.69172923943158
H            2.66053565578796        2.27542787109196        0.63209220513280
H            2.71455787266762        2.23808166483268       -1.14450897587227
H            4.98277995999097        2.29391822338577        1.83711016436635
H            7.50556910465120        2.00207102196603        1.27051841816488
H            7.61443578123667        0.62339163916302       -3.36831644217997
H           10.14348885214745        0.32903342767875       -3.92248030065281
H           11.64830740184753        0.85604366809413       -1.83863018688413

 Bond Distances (Angstroems)
 ---------------------------
N1-C2=1.4736         N1-H15=1.0534        N1-H16=1.0228        N1-H17=1.0232        C2-N1=1.4736         C2-C3=1.5325         
C2-H18=1.0899        C2-H19=1.0895        C3-C2=1.5325         C3-C4=1.4904         C3-H20=1.0898        C3-H21=1.0908        
C4-C3=1.4904         C4-C5=1.3615         C4-S13=1.7383        C5-C4=1.3615         C5-C6=1.4075         C5-H22=1.0747        
C6-C5=1.4075         C6-C7=1.3696         C6-H23=1.0758        C7-C6=1.3696         C7-C8=1.4276         C7-S13=1.7379        
C8-C7=1.4276         C8-C9=1.3700         C8-S12=1.7434        C9-C8=1.3700         C9-C10=1.4086        C9-H24=1.0757        
C10-C9=1.4086        C10-C11=1.3578       C10-H25=1.0749       C11-C10=1.3578       C11-S12=1.7204       C11-H26=1.0712       
S12-C8=1.7434        S12-C11=1.7204       S13-C4=1.7383        S13-C7=1.7379        H15-N1=1.0534        H16-N1=1.0228        
H17-N1=1.0232        H18-C2=1.0899        H19-C2=1.0895        H20-C3=1.0898        H21-C3=1.0908        H22-C5=1.0747        
H23-C6=1.0758        H24-C9=1.0757        H25-C10=1.0749       H26-C11=1.0712       
 C  H  Rav=1.0814 sigma=0.0078  Rmin=1.0712  Rmax=1.0908     9
 C  C  Rav=1.4139 sigma=0.0577  Rmin=1.3578  Rmax=1.5325     9
 N  H  Rav=1.0331 sigma=0.0143  Rmin=1.0228  Rmax=1.0534     3
 N  C  Rav=1.4736 sigma=0.0000  Rmin=1.4736  Rmax=1.4736     1
 S  C  Rav=1.7350 sigma=0.0087  Rmin=1.7204  Rmax=1.7434     4

 selected bond angles (degree)
 --------------------
H15-N1-C2=109.95               H16-N1-C2=111.12               H16-N1-H15=107.87              H17-N1-C2=111.04               
H17-N1-H15=107.20              H17-N1-H16=109.52              C3-C2-N1=110.99                H18-C2-N1=108.88               
H18-C2-C3=109.94               H19-C2-N1=108.74               H19-C2-C3=110.28               H19-C2-H18=107.93              
C4-C3-C2=110.33                H20-C3-C2=110.27               H20-C3-C4=108.46               H21-C3-C2=109.55               
H21-C3-C4=108.98               H21-C3-H20=109.23              C5-C4-C3=128.85                S13-C4-C3=120.05               
S13-C4-C5=111.07               C6-C5-C4=113.41                H22-C5-C4=123.49               H22-C5-C6=123.10               
C7-C6-C5=113.25                H23-C6-C5=124.38               H23-C6-C7=122.37               C8-C7-C6=128.64                
S13-C7-C6=110.82               S13-C7-C8=120.53               C9-C8-C7=128.56                S12-C8-C7=120.65               
S12-C8-C9=110.78               C10-C9-C8=113.10               H24-C9-C8=122.88               H24-C9-C10=124.02              
C11-C10-C9=112.82              H25-C10-C9=123.63              H25-C10-C11=123.55             

 selected dihedral angles (degree)
 ---------------------------------
C3-C2-N1-H15=184.67           C3-C2-N1-H16= 65.31           C3-C2-N1-H17=303.15           H18-C2-N1-H15= 63.52          
H18-C2-N1-H16=304.16          H18-C2-N1-H17=181.99          H19-C2-N1-H15=306.16          H19-C2-N1-H16=186.80          
H19-C2-N1-H17= 64.63          C4-C3-C2-N1=182.86            C4-C3-C2-H18=303.39           C4-C3-C2-H19= 62.29           
H20-C3-C2-N1= 63.08           H20-C3-C2-H18=183.61          H20-C3-C2-H19=302.50          H21-C3-C2-N1=302.84           
H21-C3-C2-H18= 63.37          H21-C3-C2-H19=182.26          C5-C4-C3-C2=255.43            C5-C4-C3-H20= 16.31           
C5-C4-C3-H21=135.12           S13-C4-C3-C2= 73.08           S13-C4-C3-H20=193.96          S13-C4-C3-H21=312.77          
C6-C5-C4-C3=178.14            C6-C5-C4-S13=  0.32           H22-C5-C4-C3=357.79           H22-C5-C4-S13=179.97          
C7-C6-C5-C4=359.78            C7-C6-C5-H22=180.12           H23-C6-C5-C4=179.78           H23-C6-C5-H22=  0.12          
C8-C7-C6-C5=179.98            C8-C7-C6-H23=  0.00           S13-C7-C6-C5=  0.00           S13-C7-C6-H23=180.02          
C9-C8-C7-C6=180.64            C9-C8-C7-S13=  0.60           S12-C8-C7-C6=  0.60           S12-C8-C7-S13=180.57          
C10-C9-C8-C7=180.02           C10-C9-C8-S12=  0.05          H24-C9-C8-C7=359.96           H24-C9-C8-S12=179.99          
C11-C10-C9-C8=359.98          C11-C10-C9-H24=180.03         H25-C10-C9-C8=179.95          H25-C10-C9-H24=  0.00         

 CMA Distance (Angstroems)
 ---------------------------
R(CMA):  7.4537
           -------------------------------------------------
          |                Final Singlepoint                |
           -------------------------------------------------

          ...................................................
          :                      SETUP                      :
          :.................................................:
          :  # basis functions                  86          :
          :  # atomic orbitals                  83          :
          :  # shells                           43          :
          :  # electrons                        76          :
          :  max. iterations                   250          :
          :  Hamiltonian                  GFN2-xTB          :
          :  restarted?                      false          :
          :  GBSA solvation                   true          :
          :  PC potential                    false          :
          :  electronic temp.          300.0000000     K    :
          :  accuracy                    1.0000000          :
          :  -> integral cutoff          0.2500000E+02      :
          :  -> integral neglect         0.1000000E-07      :
          :  -> SCF convergence          0.1000000E-05 Eh   :
          :  -> wf. convergence          0.1000000E-03 e    :
          :  Broyden damping             0.4000000          :
          ...................................................

 iter      E             dE          RMSdq      gap      omega  full diag
   1    -42.0565015 -0.420565E+02  0.170E-04    2.60       0.0  T
   2    -42.0565015 -0.166281E-09  0.130E-04    2.60     151.3  T
   3    -42.0565015 -0.245954E-09  0.681E-05    2.60     287.8  T

   *** convergence criteria satisfied after 3 iterations ***

         #    Occupation            Energy/Eh            Energy/eV
      -------------------------------------------------------------
         1        2.0000           -1.0061223             -27.3780
       ...           ...                  ...                  ...
        32        2.0000           -0.4164784             -11.3330
        33        2.0000           -0.4032452             -10.9729
        34        2.0000           -0.3997935             -10.8789
        35        2.0000           -0.3997713             -10.8783
        36        2.0000           -0.3985567             -10.8453
        37        2.0000           -0.3938723             -10.7178
        38        2.0000           -0.3655397              -9.9468 (HOMO)
        39                         -0.2698296              -7.3424 (LUMO)
        40                         -0.2171487              -5.9089
        41                         -0.2110753              -5.7437
        42                         -0.1975971              -5.3769
        43                         -0.1738676              -4.7312
       ...                                ...                  ...
        83                          0.7046156              19.1736
      -------------------------------------------------------------
                  HL-Gap            0.0957102 Eh            2.6044 eV
             Fermi-level           -0.3176846 Eh           -8.6446 eV

 SCC (total)                   0 d,  0 h,  0 min,  0.020 sec
 SCC setup                      ...        0 min,  0.000 sec (  0.977%)
 Dispersion                     ...        0 min,  0.000 sec (  1.295%)
 classical contributions        ...        0 min,  0.000 sec (  0.229%)
 integral evaluation            ...        0 min,  0.002 sec (  8.590%)
 iterations                     ...        0 min,  0.013 sec ( 66.618%)
 molecular gradient             ...        0 min,  0.004 sec ( 18.641%)
 printout                       ...        0 min,  0.001 sec (  2.826%)

         :::::::::::::::::::::::::::::::::::::::::::::::::::::
         ::                     SUMMARY                     ::
         :::::::::::::::::::::::::::::::::::::::::::::::::::::
         :: total energy             -41.510888252870 Eh    ::
         :: total w/o Gsasa/hb       -41.505197297179 Eh    ::
         :: gradient norm              0.000458892074 Eh/a0 ::
         :: HOMO-LUMO gap              2.604406727496 eV    ::
         ::.................................................::
         :: SCC energy               -42.056501454754 Eh    ::
         :: -> isotropic ES            0.123277860943 Eh    ::
         :: -> anisotropic ES         -0.031222712737 Eh    ::
         :: -> anisotropic XC          0.010218248794 Eh    ::
         :: -> dispersion             -0.025826084816 Eh    ::
         :: -> Gsolv                  -0.073728051435 Eh    ::
         ::    -> Gelec               -0.068037095744 Eh    ::
         ::    -> Gsasa                0.000816131039 Eh    ::
         ::    -> Ghb                 -0.007587846428 Eh    ::
         ::    -> Gshift               0.001080759698 Eh    ::
         :: repulsion energy           0.545795057558 Eh    ::
         :: add. restraining           0.000000000000 Eh    ::
         :: total charge               0.000000000000 e     ::
         :::::::::::::::::::::::::::::::::::::::::::::::::::::

           -------------------------------------------------
          |                Property Printout                |
           -------------------------------------------------

    * Orbital Energies and Occupations

         #    Occupation            Energy/Eh            Energy/eV
      -------------------------------------------------------------
         1        2.0000           -1.0061223             -27.3780
       ...           ...                  ...                  ...
        26        2.0000           -0.4626249             -12.5887
        27        2.0000           -0.4608360             -12.5400
        28        2.0000           -0.4542392             -12.3605
        29        2.0000           -0.4496158             -12.2347
        30        2.0000           -0.4430156             -12.0551
        31        2.0000           -0.4372675             -11.8987
        32        2.0000           -0.4164784             -11.3330
        33        2.0000           -0.4032452             -10.9729
        34        2.0000           -0.3997935             -10.8789
        35        2.0000           -0.3997713             -10.8783
        36        2.0000           -0.3985567             -10.8453
        37        2.0000           -0.3938723             -10.7178
        38        2.0000           -0.3655397              -9.9468 (HOMO)
        39                         -0.2698296              -7.3424 (LUMO)
        40                         -0.2171487              -5.9089
        41                         -0.2110753              -5.7437
        42                         -0.1975971              -5.3769
        43                         -0.1738676              -4.7312
        44                         -0.1461000              -3.9756
        45                         -0.1340825              -3.6486
        46                         -0.1020920              -2.7781
        47                         -0.0252620              -0.6874
        48                         -0.0086547              -0.2355
        49                          0.0062003               0.1687
       ...                                ...                  ...
        83                          0.7046156              19.1736
      -------------------------------------------------------------
                  HL-Gap            0.0957102 Eh            2.6044 eV
             Fermi-level           -0.3176846 Eh           -8.6446 eV

     #   Z          covCN         q      C6AA      α(0)
     1   7 N        3.483    -0.166    24.587     7.365
     2   6 C        3.735    -0.022    21.055     6.549
     3   6 C        3.827    -0.089    22.177     6.701
     4   6 C        2.989     0.028    27.364     8.581
     5   6 C        3.107    -0.062    29.384     8.881
     6   6 C        3.108    -0.057    29.255     8.862
     7   6 C        3.021     0.011    27.743     8.640
     8   6 C        3.025     0.018    27.587     8.615
     9   6 C        3.109    -0.058    29.287     8.866
    10   6 C        3.108    -0.049    29.061     8.832
    11   6 C        2.940    -0.026    28.643     8.778
    12  16 S        2.327    -0.057   143.403    20.155
    13  16 S        2.356    -0.053   143.241    20.144
    14  17 Cl       0.061    -0.945   124.790    17.001
    15   1 H        0.917     0.297     0.717     1.324
    16   1 H        0.859     0.302     0.708     1.318
    17   1 H        0.859     0.300     0.713     1.322
    18   1 H        0.925     0.102     1.765     2.077
    19   1 H        0.925     0.099     1.791     2.093
    20   1 H        0.925     0.089     1.890     2.150
    21   1 H        0.924     0.094     1.837     2.120
    22   1 H        0.926     0.057     2.238     2.340
    23   1 H        0.926     0.040     2.448     2.447
    24   1 H        0.926     0.047     2.356     2.401
    25   1 H        0.926     0.045     2.382     2.414
    26   1 H        0.926     0.053     2.289     2.366

 Mol. C6AA /au·bohr⁶  :      11566.665463
 Mol. C8AA /au·bohr⁸  :     355506.651415
 Mol. α(0) /au        :        172.340584


Wiberg/Mayer (AO) data.
largest (>0.10) Wiberg bond orders for each atom

 ---------------------------------------------------------------------------
     #   Z sym  total        # sym  WBO       # sym  WBO       # sym  WBO
 ---------------------------------------------------------------------------
     1   7 N    3.645 --     2 C    0.974    16 H    0.894    17 H    0.894
                            15 H    0.827
     2   6 C    3.930 --     3 C    0.989     1 N    0.974    19 H    0.968
                            18 H    0.966
     3   6 C    3.986 --     4 C    1.025     2 C    0.989    20 H    0.963
                            21 H    0.958
     4   6 C    3.932 --     5 C    1.581    13 S    1.152     3 C    1.025
     5   6 C    3.984 --     4 C    1.581     6 C    1.294    22 H    0.962
     6   6 C    3.986 --     7 C    1.518     5 C    1.294    23 H    0.961
     7   6 C    3.952 --     6 C    1.518     8 C    1.152    13 S    1.120
     8   6 C    3.950 --     9 C    1.519     7 C    1.152    12 S    1.122
                            11 C    0.101
     9   6 C    3.983 --     8 C    1.519    10 C    1.292    24 H    0.961
    10   6 C    3.987 --    11 C    1.613     9 C    1.292    25 H    0.964
    11   6 C    3.931 --    10 C    1.613    12 S    1.185    26 H    0.969
                             8 C    0.101
    12  16 S    2.593 --    11 C    1.185     8 C    1.122
    13  16 S    2.575 --     4 C    1.152     7 C    1.120
    14  17 Cl   0.107
    15   1 H    0.911 --     1 N    0.827
    16   1 H    0.909 --     1 N    0.894
    17   1 H    0.910 --     1 N    0.894
    18   1 H    0.990 --     2 C    0.966
    19   1 H    0.990 --     2 C    0.968
    20   1 H    0.992 --     3 C    0.963
    21   1 H    0.990 --     3 C    0.958
    22   1 H    0.996 --     5 C    0.962
    23   1 H    0.998 --     6 C    0.961
    24   1 H    0.998 --     9 C    0.961
    25   1 H    0.998 --    10 C    0.964
    26   1 H    0.997 --    11 C    0.969
 ---------------------------------------------------------------------------

Topologies differ in total number of bonds
Writing topology from bond orders to xtbtopo.mol

molecular dipole:
                 x           y           z       tot (Debye)
 q only:        1.370       5.168      -0.522
   full:        1.382       4.451      -0.485      11.910
molecular quadrupole (traceless):
                xx          xy          yy          xz          yz          zz
 q only:        5.991      -0.547     -20.313      -2.388       0.575      14.322
  q+dip:       10.328      -0.473     -21.016      -6.563       1.497      10.688
   full:       10.577      -0.276     -19.457      -6.820       0.620       8.879

           -------------------------------------------------
          |                Geometry Summary                 |
           -------------------------------------------------

      molecular mass/u    :      245.7918636
   center of mass at/Å    :        5.4799147       0.6404377      -0.7569174
  moments of inertia/u·Å² :        0.4665507E+03   0.3462335E+04   0.3645565E+04
rotational constants/cm⁻¹ :        0.3613247E-01   0.4868863E-02   0.4624148E-02

 * 25 selected distances

     #   Z          #   Z                                           value/Å
     1   7 N        2   6 C                                       1.4736034
     2   6 C        3   6 C                                       1.5324836
     4   6 C        5   6 C                                       1.3615106
     5   6 C        6   6 C                                       1.4075021
     6   6 C        7   6 C                                       1.3696033
     7   6 C        8   6 C                                       1.4276446
     8   6 C        9   6 C                                       1.3700038
     9   6 C       10   6 C                                       1.4085684
    10   6 C       11   6 C                                       1.3577868
     8   6 C       12  16 S                                       1.7433639 (max)
    11   6 C       12  16 S                                       1.7204363
     4   6 C       13  16 S                                       1.7383351
     7   6 C       13  16 S                                       1.7379294
     1   7 N       15   1 H                                       1.0534373
     1   7 N       16   1 H                                       1.0228047 (min)
     1   7 N       17   1 H                                       1.0232063
     2   6 C       18   1 H                                       1.0898757
     2   6 C       19   1 H                                       1.0895016
     3   6 C       20   1 H                                       1.0898388
     3   6 C       21   1 H                                       1.0908181
     5   6 C       22   1 H                                       1.0747001
     6   6 C       23   1 H                                       1.0757909
     9   6 C       24   1 H                                       1.0757141
    10   6 C       25   1 H                                       1.0748696
    11   6 C       26   1 H                                       1.0711728

 * 5 distinct bonds (by element types)

   Z      Z             #   av. dist./Å        max./Å        min./Å
   1 H    6 C           9     1.0813646     1.0908181     1.0711728
   6 C    6 C           8     1.4043879     1.5324836     1.3577868
   1 H    7 N           3     1.0331495     1.0534373     1.0228047
   6 C    7 N           1     1.4736034     1.4736034     1.4736034
   6 C   16 S           4     1.7350162     1.7433639     1.7204363


optimized geometry written to: xtbopt.xyz


           -------------------------------------------------
          | TOTAL ENERGY              -41.510888252870 Eh   |
          | GRADIENT NORM               0.000458892074 Eh/α |
          | HOMO-LUMO GAP               2.604406727496 eV   |
           -------------------------------------------------

------------------------------------------------------------------------
 * finished run on 2023/01/24 at 14:57:37.782     
------------------------------------------------------------------------
 total:
 * wall-time:     0 d,  0 h,  0 min,  1.777 sec
 *  cpu-time:     0 d,  0 h,  2 min, 58.874 sec
 * ratio c/w:   100.682 speedup
 SCF:
 * wall-time:     0 d,  0 h,  0 min,  0.087 sec
 *  cpu-time:     0 d,  0 h,  0 min, 12.260 sec
 * ratio c/w:   141.320 speedup
 ANC optimizer:
 * wall-time:     0 d,  0 h,  0 min,  1.671 sec
 *  cpu-time:     0 d,  0 h,  2 min, 44.206 sec
 * ratio c/w:    98.282 speedup

