26
 energy: -41.510888252870 gnorm: 0.000458892074 xtb: 6.5.1 (fef0646)
N            1.01384290809491        0.29406235370098       -0.35300147078700
C            2.48242684483199        0.29656240441407       -0.23150426073162
C            3.03108386339834        1.72746229054081       -0.23403493165954
C            4.52041648964252        1.71111933824308       -0.18029793605461
C            5.34004831006031        1.98431771843184        0.87197441470314
C            6.70632537450081        1.82924936842844        0.57147047033519
C            6.93421128012192        1.42988991701934       -0.71864303910029
C            8.18092256588298        1.17623057341777       -1.36635941387022
C            8.40758254776332        0.78815070686973       -2.66054998938303
C            9.77511671208890        0.62946822397649       -2.95843399910049
C           10.57949835797297        0.89593091444108       -1.89751340475105
S            9.68401764943080        1.35001685048487       -0.50043758144001
S            5.43697302603684        1.24151675025409       -1.58072851427493
Cl           0.00982347481044       -2.55544181305272       -0.01474205547257
H            0.64786835576324       -0.69020939848567       -0.26932543598450
H            0.71841283565246        0.66276861552378       -1.26014319218937
H            0.58236479664174        0.84200220630914        0.39569042539057
H            2.90618174010692       -0.26546103517835       -1.06360420711022
H            2.75807823883541       -0.21203350154430        0.69172923943158
H            2.66053565578796        2.27542787109196        0.63209220513280
H            2.71455787266762        2.23808166483268       -1.14450897587227
H            4.98277995999097        2.29391822338577        1.83711016436635
H            7.50556910465120        2.00207102196603        1.27051841816488
H            7.61443578123667        0.62339163916302       -3.36831644217997
H           10.14348885214745        0.32903342767875       -3.92248030065281
H           11.64830740184753        0.85604366809413       -1.83863018688413
