 Entering Gaussian System
 *********************************************
 Gaussian 98:
 frequency output generated by the xtb code
 *********************************************
                         Standard orientation:
 --------------------------------------------------------------------
  Center     Atomic     Atomic              Coordinates (Angstroms)
  Number     Number      Type              X           Y           Z
 --------------------------------------------------------------------
    1          7             0        0.711520    1.879416    0.012664
    2          6             0       -0.605334    1.167563    0.009830
    3          6             0       -0.770763    0.314232   -1.261778
    4          6             0       -2.118167   -0.428451   -1.268982
    5          6             0       -2.276337   -1.297768   -0.009070
    6          6             0       -2.109548   -0.453737    1.266838
    7          6             0       -0.762204    0.289076    1.265282
    8         17             0        3.060187   -0.706096   -0.006629
    9          1             0        0.819130    2.477545   -0.817187
   10          1             0        1.476866    1.186112    0.005023
   11          1             0        0.823056    2.463187    0.852163
   12          1             0       -1.409380    1.921068    0.019962
   13          1             0        0.050013   -0.409753   -1.306410
   14          1             0       -0.657323    0.940410   -2.155460
   15          1             0       -2.223113   -1.036062   -2.178351
   16          1             0       -2.935173    0.302213   -1.311110
   17          1             0       -1.520941   -2.093122   -0.019561
   18          1             0       -3.245590   -1.815483   -0.010926
   19          1             0       -2.208248   -1.079425    2.164550
   20          1             0       -2.926224    0.275858    1.329140
   21          1             0        0.058742   -0.435678    1.289801
   22          1             0       -0.642498    0.897367    2.170431
 --------------------------------------------------------------------
     1 basis functions        1 primitive gaussians
     1 alpha electrons        1 beta electrons

 Harmonic frequencies (cm**-1), IR intensities (km*mol⁻¹),
 Raman scattering activities (A**4/amu), Raman depolarization ratios,
 reduced masses (AMU), force constants (mDyne/A) and normal coordinates:
                      1                      2                      3
                        a                      a                      a 
 Frequencies --   -29.8079                47.1396                65.1238
 Red. masses --    22.1165                23.2762                13.5795
 Frc consts  --     0.0000                 0.0000                 0.0000
 IR Inten    --   100.1663                17.7576                15.0253
 Raman Activ --     0.0000                 0.0000                 0.0000
 Depolar     --     0.0000                 0.0000                 0.0000
 Atom AN      X      Y      Z        X      Y      Z        X      Y      Z
   1   7     0.36  -0.40  -0.01    -0.06   0.26   0.01     0.01  -0.02   0.26
   2   6     0.22  -0.15  -0.00     0.02   0.11   0.00     0.01  -0.01   0.07
   3   6     0.08  -0.12  -0.01     0.14   0.08   0.01     0.28  -0.19   0.15
   4   6    -0.01   0.04   0.00     0.24  -0.09  -0.00     0.28  -0.18  -0.05
   5   6    -0.10   0.05  -0.00     0.34  -0.11  -0.00    -0.01   0.00   0.04
   6   6     0.01   0.03   0.00     0.22  -0.08  -0.00    -0.30   0.19  -0.04
   7   6     0.10  -0.13  -0.00     0.13   0.09   0.00    -0.28   0.17   0.16
   8  17    -0.47   0.49   0.02    -0.70  -0.18  -0.01     0.00   0.03  -0.42
   9   1     0.12  -0.11  -0.00    -0.03   0.07   0.00     0.02   0.01   0.08
  10   1     0.07  -0.15  -0.01    -0.00   0.08   0.00     0.00  -0.01   0.06
  11   1     0.13  -0.11  -0.00    -0.03   0.07   0.00    -0.01  -0.02   0.08
  12   1     0.10  -0.01   0.00    -0.02   0.00  -0.00     0.00  -0.00  -0.06
  13   1    -0.00  -0.06  -0.01     0.07   0.05   0.01     0.09  -0.05   0.12
  14   1     0.04  -0.03  -0.00     0.02   0.02   0.00     0.14  -0.09   0.03
  15   1    -0.03   0.02  -0.00     0.09  -0.03  -0.00     0.14  -0.09   0.00
  16   1     0.02   0.04   0.01     0.04  -0.06  -0.00     0.09  -0.05  -0.10
  17   1    -0.05  -0.01  -0.00     0.13  -0.00   0.00    -0.01  -0.00   0.10
  18   1    -0.04   0.05   0.00     0.12  -0.07  -0.00    -0.01   0.00  -0.03
  19   1    -0.02   0.01  -0.00     0.09  -0.03  -0.00    -0.15   0.09   0.01
  20   1     0.03   0.04   0.00     0.04  -0.05  -0.00    -0.09   0.06  -0.10
  21   1     0.00  -0.07   0.00     0.06   0.06  -0.00    -0.09   0.04   0.13
  22   1     0.05  -0.04  -0.00     0.01   0.03   0.00    -0.14   0.08   0.03
                      4                      5                      6
                        a                      a                      a 
 Frequencies --   175.8958               257.1789               295.0596
 Red. masses --     8.4861                 6.3748                 1.8253
 Frc consts  --     0.0000                 0.0000                 0.0000
 IR Inten    --    15.3850                 0.1899                 2.8304
 Raman Activ --     0.0000                 0.0000                 0.0000
 Depolar     --     0.0000                 0.0000                 0.0000
 Atom AN      X      Y      Z        X      Y      Z        X      Y      Z
   1   7    -0.22   0.35   0.00    -0.00   0.00  -0.09     0.00  -0.00  -0.09
   2   6     0.06  -0.17  -0.00    -0.00   0.00  -0.08     0.00   0.00   0.14
   3   6     0.25  -0.27   0.05     0.17  -0.27   0.10    -0.00   0.09   0.09
   4   6     0.07   0.05  -0.05    -0.12   0.31   0.06     0.05   0.01  -0.02
   5   6    -0.33   0.18   0.00    -0.00   0.00  -0.15     0.00  -0.00  -0.04
   6   6     0.07   0.05   0.05     0.12  -0.31   0.05    -0.06  -0.00  -0.02
   7   6     0.25  -0.27  -0.06    -0.17   0.27   0.10    -0.00  -0.09   0.08
   8  17    -0.05   0.03   0.00    -0.00   0.00  -0.01    -0.00   0.00  -0.05
   9   1    -0.13   0.10  -0.00     0.02  -0.05  -0.06     0.17  -0.46  -0.33
  10   1     0.01   0.17   0.01    -0.00  -0.00   0.03     0.00  -0.01   0.46
  11   1    -0.13   0.11   0.00    -0.02   0.05  -0.06    -0.17   0.46  -0.32
  12   1    -0.05  -0.12  -0.00    -0.00   0.00  -0.11     0.00   0.00   0.05
  13   1     0.04  -0.12   0.09    -0.03  -0.17   0.15     0.01   0.04   0.00
  14   1     0.15  -0.12  -0.00     0.20  -0.16  -0.01    -0.02   0.05   0.04
  15   1     0.00  -0.01   0.00    -0.17   0.18  -0.03     0.05   0.00  -0.01
  16   1     0.08   0.08  -0.06     0.05   0.18   0.14     0.00  -0.01  -0.02
  17   1    -0.20  -0.05   0.00    -0.00   0.00  -0.14     0.00   0.00  -0.00
  18   1    -0.16   0.18   0.00    -0.00   0.00  -0.03     0.00  -0.00  -0.02
  19   1     0.00  -0.01  -0.00     0.17  -0.18  -0.03    -0.05   0.00  -0.01
  20   1     0.08   0.07   0.06    -0.04  -0.19   0.14    -0.00   0.01  -0.03
  21   1     0.04  -0.12  -0.09     0.03   0.17   0.16    -0.01  -0.04   0.00
  22   1     0.15  -0.12  -0.00    -0.19   0.16  -0.01     0.02  -0.05   0.04
                      7                      8                      9
                        a                      a                      a 
 Frequencies --   320.8826               340.5342               388.5352
 Red. masses --     8.3370                 6.2829                 9.9670
 Frc consts  --     0.0000                 0.0000                 0.0000
 IR Inten    --    14.6432                 3.8176                 5.6651
 Raman Activ --     0.0000                 0.0000                 0.0000
 Depolar     --     0.0000                 0.0000                 0.0000
 Atom AN      X      Y      Z        X      Y      Z        X      Y      Z
   1   7     0.00  -0.01   0.52    -0.10   0.07  -0.00    -0.31  -0.29  -0.00
   2   6     0.00   0.00  -0.33     0.09  -0.24  -0.00    -0.17  -0.29  -0.00
   3   6    -0.01  -0.08  -0.29     0.03  -0.17  -0.05     0.05   0.03  -0.24
   4   6    -0.09  -0.03   0.08    -0.17   0.23   0.14     0.10   0.08  -0.26
   5   6     0.00  -0.00   0.13     0.36  -0.03  -0.00     0.19   0.40   0.00
   6   6     0.09   0.03   0.08    -0.18   0.23  -0.13     0.10   0.08   0.26
   7   6     0.01   0.09  -0.29     0.03  -0.17   0.04     0.05   0.03   0.24
   8  17    -0.00   0.00  -0.03    -0.01   0.00   0.00     0.00  -0.00  -0.00
   9   1     0.23  -0.06   0.13    -0.08   0.03   0.00    -0.08  -0.08  -0.00
  10   1     0.00  -0.00   0.37     0.03   0.08  -0.00    -0.08  -0.08   0.00
  11   1    -0.22   0.06   0.13    -0.08   0.03   0.00    -0.08  -0.08  -0.00
  12   1     0.00   0.00  -0.14    -0.01  -0.10  -0.00    -0.08  -0.12  -0.00
  13   1    -0.01  -0.03  -0.10    -0.05  -0.11  -0.03     0.03   0.03  -0.13
  14   1    -0.05  -0.05  -0.10     0.05  -0.04  -0.00     0.01   0.10  -0.01
  15   1    -0.10  -0.02   0.04    -0.21   0.16  -0.01     0.04  -0.07  -0.01
  16   1    -0.01   0.01   0.07    -0.00   0.12   0.23     0.02   0.01  -0.16
  17   1     0.00   0.00   0.03     0.27   0.15   0.00     0.08   0.14   0.00
  18   1     0.00  -0.00   0.06     0.21  -0.20  -0.00     0.08   0.07   0.00
  19   1     0.10   0.02   0.04    -0.21   0.16   0.01     0.04  -0.07   0.01
  20   1     0.01  -0.01   0.06    -0.01   0.13  -0.22     0.02   0.01   0.16
  21   1     0.01   0.03  -0.10    -0.05  -0.11   0.03     0.03   0.02   0.13
  22   1     0.05   0.05  -0.10     0.05  -0.04   0.00     0.01   0.10   0.01
                     10                     11                     12
                        a                      a                      a 
 Frequencies --   434.3177               458.4128               552.9093
 Red. masses --     9.3725                 7.1911                 6.4978
 Frc consts  --     0.0000                 0.0000                 0.0000
 IR Inten    --     2.2716                14.8855                 2.8377
 Raman Activ --     0.0000                 0.0000                 0.0000
 Depolar     --     0.0000                 0.0000                 0.0000
 Atom AN      X      Y      Z        X      Y      Z        X      Y      Z
   1   7     0.00  -0.00   0.18    -0.19  -0.28  -0.00    -0.27  -0.22  -0.00
   2   6     0.00  -0.00   0.12    -0.36   0.29   0.00    -0.13  -0.06  -0.00
   3   6    -0.27  -0.19   0.18     0.06  -0.04   0.27     0.13   0.11  -0.05
   4   6    -0.31  -0.17  -0.27     0.06   0.09   0.02     0.21   0.07   0.25
   5   6    -0.00   0.00  -0.17     0.14   0.07   0.00    -0.10  -0.22  -0.00
   6   6     0.31   0.17  -0.27     0.06   0.09  -0.02     0.20   0.07  -0.25
   7   6     0.27   0.18   0.19     0.06  -0.04  -0.27     0.13   0.11   0.05
   8  17    -0.00   0.00  -0.01     0.02   0.00  -0.00     0.00  -0.00  -0.00
   9   1     0.05  -0.00   0.05     0.05  -0.09  -0.00    -0.04  -0.07  -0.00
  10   1     0.00  -0.00   0.09    -0.15  -0.19  -0.00    -0.10  -0.09  -0.00
  11   1    -0.05   0.00   0.05     0.06  -0.10  -0.00    -0.04  -0.07   0.00
  12   1     0.00  -0.00   0.05    -0.09   0.10   0.00    -0.07  -0.05  -0.00
  13   1    -0.12  -0.11   0.12    -0.01  -0.06   0.32     0.10   0.11  -0.11
  14   1     0.03  -0.08   0.05     0.20  -0.15   0.00    -0.09   0.10   0.02
  15   1     0.01  -0.07  -0.07     0.03   0.03  -0.00    -0.09   0.15  -0.00
  16   1    -0.12  -0.09  -0.14     0.02   0.03  -0.00     0.11   0.09   0.25
  17   1    -0.00   0.00  -0.09     0.08   0.06   0.00    -0.21  -0.23  -0.00
  18   1     0.00  -0.00   0.09     0.07  -0.03  -0.00    -0.15   0.17   0.00
  19   1    -0.01   0.07  -0.07     0.03   0.03   0.00    -0.09   0.15   0.00
  20   1     0.12   0.09  -0.14     0.02   0.03   0.00     0.11   0.10  -0.25
  21   1     0.12   0.11   0.12    -0.01  -0.05  -0.32     0.10   0.11   0.11
  22   1    -0.03   0.08   0.05     0.20  -0.15  -0.01    -0.09   0.10  -0.01
                     13                     14                     15
                        a                      a                      a 
 Frequencies --   811.2668               822.3349               880.8658
 Red. masses --     7.8341                 4.4664                 5.3698
 Frc consts  --     0.0000                 0.0000                 0.0000
 IR Inten    --     1.7397                 0.0579                 7.8654
 Raman Activ --     0.0000                 0.0000                 0.0000
 Depolar     --     0.0000                 0.0000                 0.0000
 Atom AN      X      Y      Z        X      Y      Z        X      Y      Z
   1   7    -0.14  -0.16  -0.00    -0.00  -0.00   0.04    -0.06   0.04  -0.00
   2   6     0.21  -0.23  -0.00     0.00  -0.00   0.18    -0.02   0.07  -0.00
   3   6    -0.06   0.03   0.37     0.04  -0.23   0.06     0.25   0.01   0.02
   4   6     0.06   0.08   0.27     0.02  -0.24  -0.11    -0.09   0.01  -0.06
   5   6    -0.06   0.14   0.00    -0.00   0.00  -0.14    -0.43  -0.20  -0.00
   6   6     0.06   0.09  -0.27    -0.02   0.24  -0.11    -0.09   0.01   0.07
   7   6    -0.07   0.04  -0.37    -0.04   0.23   0.07     0.25   0.01  -0.02
   8  17    -0.00  -0.00   0.00     0.00  -0.00   0.00     0.00  -0.00  -0.00
   9   1    -0.17  -0.01   0.00    -0.07  -0.02  -0.01     0.12  -0.02  -0.01
  10   1     0.10   0.10   0.00    -0.00   0.00  -0.03    -0.14  -0.13  -0.00
  11   1    -0.17  -0.01  -0.00     0.07   0.02  -0.01     0.11  -0.02   0.01
  12   1     0.06  -0.06  -0.00    -0.00  -0.00  -0.04    -0.08  -0.06  -0.00
  13   1    -0.01   0.02  -0.05     0.14   0.10  -0.21     0.15   0.10  -0.09
  14   1    -0.14   0.08   0.13    -0.23   0.11   0.11    -0.07   0.08   0.04
  15   1     0.24  -0.05   0.10    -0.25   0.12  -0.12    -0.00   0.02  -0.04
  16   1    -0.04  -0.05  -0.12     0.13   0.10   0.24     0.07   0.11  -0.11
  17   1     0.09   0.14   0.00     0.00   0.00   0.06     0.23   0.27   0.00
  18   1     0.05  -0.08  -0.00     0.00  -0.00   0.01     0.11  -0.48  -0.01
  19   1     0.23  -0.05  -0.10     0.25  -0.12  -0.13    -0.00   0.02   0.04
  20   1    -0.03  -0.05   0.12    -0.13  -0.10   0.24     0.07   0.10   0.11
  21   1    -0.01   0.02   0.05    -0.14  -0.09  -0.21     0.15   0.10   0.09
  22   1    -0.14   0.08  -0.13     0.23  -0.12   0.10    -0.07   0.08  -0.04
                     16                     17                     18
                        a                      a                      a 
 Frequencies --   890.4265               895.6503               937.0932
 Red. masses --     7.3304                 5.6680                 3.5945
 Frc consts  --     0.0000                 0.0000                 0.0000
 IR Inten    --     7.1708                 9.9976                18.4485
 Raman Activ --     0.0000                 0.0000                 0.0000
 Depolar     --     0.0000                 0.0000                 0.0000
 Atom AN      X      Y      Z        X      Y      Z        X      Y      Z
   1   7    -0.09  -0.18   0.00    -0.00  -0.00  -0.27     0.00  -0.00   0.09
   2   6     0.18  -0.12   0.00     0.00  -0.00  -0.24     0.00  -0.00   0.03
   3   6     0.04   0.22   0.06    -0.16  -0.07   0.24     0.11  -0.21   0.04
   4   6    -0.05   0.11  -0.29     0.15   0.05   0.10    -0.10   0.19   0.09
   5   6    -0.06  -0.41  -0.00     0.00  -0.01  -0.19     0.00   0.00  -0.02
   6   6    -0.05   0.11   0.29    -0.15  -0.05   0.11     0.10  -0.19   0.09
   7   6     0.03   0.22  -0.07     0.16   0.08   0.23    -0.11   0.21   0.05
   8  17    -0.00  -0.00   0.00    -0.00   0.00  -0.00     0.00  -0.00   0.00
   9   1    -0.22  -0.00   0.01     0.38   0.20   0.13    -0.14  -0.06  -0.04
  10   1     0.15   0.15  -0.00     0.00   0.00   0.15     0.00   0.00  -0.06
  11   1    -0.20   0.00  -0.01    -0.39  -0.20   0.12     0.14   0.07  -0.04
  12   1     0.10   0.02   0.00     0.00   0.00  -0.11    -0.00   0.00  -0.24
  13   1    -0.07  -0.04   0.09    -0.00   0.04  -0.04     0.04  -0.02  -0.28
  14   1     0.22   0.07   0.05    -0.17   0.02   0.08    -0.19   0.10   0.09
  15   1     0.06   0.15  -0.17     0.13   0.06  -0.01     0.16  -0.14   0.13
  16   1    -0.07  -0.03  -0.00     0.03  -0.00   0.00    -0.01   0.04  -0.30
  17   1    -0.05  -0.14   0.00    -0.00  -0.00  -0.05    -0.00   0.00  -0.29
  18   1    -0.03  -0.08   0.00    -0.00   0.00  -0.16     0.00  -0.00   0.07
  19   1     0.07   0.14   0.17    -0.13  -0.05  -0.01    -0.16   0.14   0.13
  20   1    -0.07  -0.03   0.00    -0.03  -0.00  -0.00     0.01  -0.04  -0.30
  21   1    -0.08  -0.04  -0.09    -0.00  -0.04  -0.05    -0.05   0.02  -0.28
  22   1     0.21   0.08  -0.05     0.18  -0.02   0.07     0.19  -0.11   0.09
                     19                     20                     21
                        a                      a                      a 
 Frequencies --   963.3300               973.0048               977.2676
 Red. masses --     7.5126                 3.7866                 6.2416
 Frc consts  --     0.0000                 0.0000                 0.0000
 IR Inten    --     7.4644                38.7413                18.5547
 Raman Activ --     0.0000                 0.0000                 0.0000
 Depolar     --     0.0000                 0.0000                 0.0000
 Atom AN      X      Y      Z        X      Y      Z        X      Y      Z
   1   7    -0.21  -0.08   0.00     0.00   0.27   0.00     0.00  -0.00   0.23
   2   6     0.23   0.14   0.00    -0.04  -0.25  -0.00    -0.00   0.00  -0.04
   3   6     0.10   0.12  -0.32    -0.01   0.02   0.10    -0.26  -0.11  -0.05
   4   6    -0.06   0.07   0.28    -0.03   0.14  -0.01     0.21  -0.00   0.18
   5   6    -0.11  -0.10  -0.00     0.11  -0.15  -0.00    -0.00   0.00  -0.31
   6   6    -0.06   0.07  -0.28    -0.03   0.14   0.02    -0.21  -0.00   0.18
   7   6     0.10   0.12   0.32    -0.01   0.02  -0.10     0.26   0.11  -0.05
   8  17     0.00   0.00   0.00     0.00   0.00  -0.00     0.00  -0.00   0.00
   9   1    -0.02  -0.03  -0.00     0.33  -0.02  -0.02    -0.26  -0.14  -0.07
  10   1    -0.09  -0.06  -0.00    -0.30  -0.26  -0.00     0.00   0.00  -0.10
  11   1    -0.02  -0.03   0.00     0.33  -0.02   0.02     0.26   0.14  -0.07
  12   1     0.03   0.00  -0.00    -0.19  -0.25  -0.00     0.00  -0.00   0.03
  13   1    -0.10  -0.12   0.03    -0.13  -0.13  -0.09    -0.11  -0.08   0.03
  14   1     0.17  -0.12  -0.18     0.06   0.10   0.10    -0.13  -0.17  -0.12
  15   1     0.14  -0.13   0.15     0.17   0.05  -0.03     0.11   0.05   0.00
  16   1    -0.13  -0.12  -0.09    -0.13  -0.10  -0.04    -0.01  -0.07   0.08
  17   1     0.02   0.02   0.00    -0.08  -0.14  -0.00     0.00  -0.00   0.03
  18   1    -0.00  -0.08  -0.00    -0.04   0.09   0.00    -0.00   0.00  -0.36
  19   1     0.14  -0.12  -0.16     0.17   0.05   0.03    -0.12  -0.05   0.00
  20   1    -0.13  -0.12   0.09    -0.13  -0.10   0.04     0.01   0.07   0.08
  21   1    -0.10  -0.12  -0.03    -0.12  -0.13   0.09     0.11   0.08   0.03
  22   1     0.17  -0.12   0.17     0.06   0.11  -0.10     0.13   0.17  -0.11
                     22                     23                     24
                        a                      a                      a 
 Frequencies --  1041.6328              1066.4113              1070.2171
 Red. masses --    10.0754                 7.0417                 1.6485
 Frc consts  --     0.0000                 0.0000                 0.0000
 IR Inten    --    26.0912                 4.6652                 1.3318
 Raman Activ --     0.0000                 0.0000                 0.0000
 Depolar     --     0.0000                 0.0000                 0.0000
 Atom AN      X      Y      Z        X      Y      Z        X      Y      Z
   1   7    -0.41  -0.04   0.00     0.02  -0.01  -0.00    -0.00   0.00  -0.03
   2   6     0.60   0.34   0.00    -0.04  -0.12  -0.00     0.00  -0.00   0.06
   3   6     0.01  -0.08   0.12     0.26   0.19   0.11    -0.02  -0.01  -0.05
   4   6    -0.08  -0.09  -0.15    -0.28  -0.21   0.07    -0.02  -0.07   0.09
   5   6     0.14   0.10   0.00     0.09   0.18   0.00    -0.00   0.00  -0.15
   6   6    -0.08  -0.10   0.15    -0.28  -0.21  -0.07     0.02   0.07   0.09
   7   6     0.01  -0.08  -0.12     0.26   0.19  -0.11     0.02   0.01  -0.05
   8  17     0.00  -0.00  -0.00     0.00  -0.00   0.00    -0.00  -0.00   0.00
   9   1     0.04  -0.06  -0.02     0.00   0.00   0.00     0.04   0.02   0.01
  10   1    -0.24  -0.17  -0.00     0.02   0.01   0.00    -0.00  -0.00   0.03
  11   1     0.04  -0.06   0.02     0.00   0.00  -0.00    -0.04  -0.02   0.01
  12   1     0.11   0.04   0.00    -0.04  -0.06   0.00     0.00  -0.00   0.39
  13   1    -0.00  -0.02  -0.10     0.08   0.07   0.05     0.19   0.20   0.20
  14   1    -0.11  -0.01   0.02     0.19   0.17   0.13    -0.13  -0.18  -0.15
  15   1    -0.09   0.02  -0.06    -0.21  -0.18   0.12    -0.12  -0.14   0.12
  16   1    -0.01  -0.00   0.05    -0.10  -0.09   0.08     0.18   0.17  -0.13
  17   1    -0.05  -0.05  -0.00    -0.05  -0.02  -0.00    -0.00   0.00  -0.38
  18   1    -0.01   0.12   0.00    -0.02   0.11   0.00     0.00  -0.00   0.07
  19   1    -0.09   0.02   0.06    -0.21  -0.18  -0.12     0.12   0.14   0.12
  20   1    -0.01  -0.00  -0.05    -0.10  -0.09  -0.08    -0.18  -0.17  -0.14
  21   1    -0.00  -0.02   0.10     0.08   0.07  -0.05    -0.19  -0.20   0.20
  22   1    -0.11  -0.01  -0.02     0.19   0.18  -0.13     0.13   0.19  -0.15
                     25                     26                     27
                        a                      a                      a 
 Frequencies --  1111.7783              1114.2663              1164.8376
 Red. masses --     8.7139                 4.3343                 7.7622
 Frc consts  --     0.0000                 0.0000                 0.0000
 IR Inten    --     0.5779                 8.3220                14.7950
 Raman Activ --     0.0000                 0.0000                 0.0000
 Depolar     --     0.0000                 0.0000                 0.0000
 Atom AN      X      Y      Z        X      Y      Z        X      Y      Z
   1   7     0.00  -0.00   0.01    -0.00   0.00  -0.13    -0.09   0.10   0.00
   2   6    -0.00   0.00  -0.18     0.00  -0.00   0.40     0.18  -0.26  -0.00
   3   6     0.24   0.18   0.10     0.01  -0.11  -0.19    -0.21   0.20  -0.00
   4   6    -0.22  -0.23   0.21     0.01  -0.02   0.09     0.24  -0.21   0.01
   5   6    -0.00   0.00  -0.41    -0.00   0.00  -0.13    -0.26   0.20   0.00
   6   6     0.23   0.23   0.21    -0.01   0.02   0.09     0.24  -0.21  -0.02
   7   6    -0.24  -0.18   0.10    -0.01   0.11  -0.18    -0.21   0.20   0.01
   8  17     0.00  -0.00   0.00    -0.00   0.00  -0.00     0.00   0.00  -0.00
   9   1    -0.03  -0.02  -0.01     0.13   0.07   0.04     0.11  -0.02  -0.02
  10   1    -0.00   0.00  -0.02    -0.00  -0.00   0.06    -0.11  -0.08  -0.00
  11   1     0.03   0.02  -0.01    -0.13  -0.07   0.04     0.11  -0.02   0.01
  12   1    -0.00   0.00  -0.21     0.00  -0.00   0.15     0.06  -0.06  -0.00
  13   1     0.08   0.07   0.04    -0.09  -0.12  -0.10    -0.14  -0.06   0.14
  14   1     0.04   0.01   0.00     0.18   0.14   0.09     0.17  -0.00  -0.01
  15   1    -0.01  -0.04   0.03    -0.17  -0.23   0.19    -0.11   0.04  -0.03
  16   1    -0.18  -0.19   0.13    -0.04  -0.05   0.01     0.13   0.03   0.18
  17   1    -0.00   0.00  -0.19    -0.00  -0.00   0.01     0.10   0.20   0.00
  18   1    -0.00   0.00  -0.12    -0.00   0.00  -0.45     0.05  -0.15  -0.00
  19   1     0.01   0.04   0.03     0.17   0.22   0.19    -0.11   0.04   0.04
  20   1     0.18   0.19   0.13     0.04   0.05   0.01     0.12   0.04  -0.18
  21   1    -0.08  -0.07   0.04     0.08   0.13  -0.10    -0.14  -0.06  -0.14
  22   1    -0.04  -0.01   0.00    -0.18  -0.14   0.09     0.17  -0.00   0.01
                     28                     29                     30
                        a                      a                      a 
 Frequencies --  1205.1128              1234.4561              1241.1014
 Red. masses --     4.4787                 3.1078                 3.5731
 Frc consts  --     0.0000                 0.0000                 0.0000
 IR Inten    --     4.1124                 4.0517                 0.9289
 Raman Activ --     0.0000                 0.0000                 0.0000
 Depolar     --     0.0000                 0.0000                 0.0000
 Atom AN      X      Y      Z        X      Y      Z        X      Y      Z
   1   7     0.00  -0.00   0.11    -0.08   0.05   0.00    -0.00   0.00   0.00
   2   6    -0.00   0.00  -0.35     0.06  -0.03  -0.00     0.00  -0.00  -0.06
   3   6    -0.16   0.12   0.18    -0.15  -0.03   0.01     0.13  -0.09   0.05
   4   6     0.04  -0.00  -0.11     0.05   0.13   0.00    -0.20   0.17  -0.10
   5   6     0.00  -0.00   0.12     0.10  -0.29  -0.00     0.00  -0.00   0.11
   6   6    -0.04   0.01  -0.11     0.05   0.13   0.00     0.20  -0.17  -0.10
   7   6     0.16  -0.12   0.17    -0.15  -0.03  -0.01    -0.13   0.09   0.06
   8  17     0.00  -0.00   0.00     0.00  -0.00  -0.00     0.00  -0.00   0.00
   9   1    -0.10  -0.06  -0.03     0.06  -0.00  -0.00     0.00   0.00   0.00
  10   1    -0.00   0.00  -0.06    -0.04  -0.02   0.00    -0.00  -0.00   0.00
  11   1     0.10   0.06  -0.03     0.06  -0.00   0.00     0.00  -0.00   0.00
  12   1    -0.00   0.00  -0.34     0.16   0.15   0.00     0.00  -0.00   0.19
  13   1     0.00   0.07   0.11    -0.03  -0.00   0.02     0.20   0.16   0.05
  14   1     0.08   0.11   0.11     0.12   0.14   0.12    -0.18  -0.10  -0.07
  15   1    -0.26  -0.20   0.14    -0.19  -0.27   0.22     0.02  -0.02   0.01
  16   1     0.15   0.15  -0.07     0.22   0.25  -0.24    -0.14  -0.06  -0.06
  17   1     0.00  -0.00   0.04    -0.03  -0.13  -0.00     0.00  -0.01   0.50
  18   1    -0.00   0.00  -0.30    -0.02   0.00   0.00    -0.00   0.00  -0.44
  19   1     0.26   0.20   0.14    -0.19  -0.26  -0.23    -0.02   0.02   0.01
  20   1    -0.15  -0.15  -0.07     0.22   0.24   0.24     0.14   0.06  -0.06
  21   1     0.00  -0.08   0.11    -0.03  -0.00  -0.02    -0.20  -0.16   0.05
  22   1    -0.08  -0.11   0.11     0.11   0.14  -0.12     0.18   0.10  -0.07
                     31                     32                     33
                        a                      a                      a 
 Frequencies --  1251.3704              1289.4248              1311.0767
 Red. masses --     4.1184                 2.8380                 4.0183
 Frc consts  --     0.0000                 0.0000                 0.0000
 IR Inten    --    13.1450                14.5229                 2.2945
 Raman Activ --     0.0000                 0.0000                 0.0000
 Depolar     --     0.0000                 0.0000                 0.0000
 Atom AN      X      Y      Z        X      Y      Z        X      Y      Z
   1   7     0.07  -0.09  -0.00     0.18  -0.10  -0.00     0.00  -0.00   0.08
   2   6    -0.15   0.37   0.00     0.13   0.20   0.00    -0.00   0.00  -0.43
   3   6     0.01  -0.15  -0.02    -0.03   0.12   0.08    -0.06  -0.17  -0.03
   4   6     0.14  -0.02   0.01     0.05   0.01  -0.06    -0.03  -0.03   0.08
   5   6    -0.14   0.06   0.00     0.02  -0.07  -0.00     0.00  -0.00   0.02
   6   6     0.14  -0.03  -0.01     0.05   0.01   0.06     0.03   0.03   0.08
   7   6     0.01  -0.15   0.01    -0.03   0.12  -0.08     0.06   0.17  -0.03
   8  17    -0.00   0.00  -0.00    -0.00  -0.00  -0.00     0.00  -0.00   0.00
   9   1    -0.10   0.05   0.03    -0.15   0.03   0.01    -0.07  -0.05  -0.02
  10   1     0.06   0.03   0.00     0.04  -0.03  -0.00    -0.00   0.00  -0.03
  11   1    -0.10   0.05  -0.03    -0.15   0.03  -0.01     0.07   0.05  -0.02
  12   1    -0.05   0.09   0.00    -0.55  -0.57  -0.00     0.00  -0.01   0.53
  13   1    -0.20  -0.24  -0.28    -0.09  -0.06  -0.02     0.10   0.08   0.02
  14   1     0.16   0.25   0.21    -0.07  -0.10  -0.08     0.21   0.27   0.24
  15   1    -0.03  -0.02   0.02    -0.14  -0.10   0.07     0.12   0.08  -0.05
  16   1    -0.04  -0.09   0.11     0.07   0.07  -0.05    -0.01  -0.01   0.02
  17   1     0.04   0.08   0.00    -0.01  -0.03   0.00    -0.00   0.00  -0.09
  18   1     0.02  -0.07  -0.00     0.00  -0.01  -0.00    -0.00   0.00  -0.02
  19   1    -0.02  -0.01  -0.02    -0.15  -0.10  -0.07    -0.12  -0.08  -0.05
  20   1    -0.04  -0.08  -0.11     0.07   0.07   0.05     0.01   0.01   0.02
  21   1    -0.20  -0.25   0.27    -0.09  -0.06   0.02    -0.10  -0.08   0.02
  22   1     0.16   0.25  -0.21    -0.06  -0.10   0.08    -0.20  -0.28   0.23
                     34                     35                     36
                        a                      a                      a 
 Frequencies --  1334.3141              1337.8253              1349.4828
 Red. masses --     4.2046                 4.0166                 4.5083
 Frc consts  --     0.0000                 0.0000                 0.0000
 IR Inten    --     9.9132                 0.1373                 5.6256
 Raman Activ --     0.0000                 0.0000                 0.0000
 Depolar     --     0.0000                 0.0000                 0.0000
 Atom AN      X      Y      Z        X      Y      Z        X      Y      Z
   1   7     0.00  -0.00   0.05    -0.00   0.00   0.01     0.02  -0.05  -0.00
   2   6    -0.00   0.00  -0.25    -0.00   0.00  -0.12     0.04   0.10   0.00
   3   6     0.10   0.05   0.16     0.14   0.16   0.09    -0.05  -0.00  -0.09
   4   6     0.12   0.12  -0.07    -0.17  -0.20   0.09    -0.20  -0.23   0.19
   5   6    -0.00   0.00  -0.29     0.00   0.00   0.03     0.14   0.07  -0.00
   6   6    -0.12  -0.11  -0.08     0.17   0.20   0.09    -0.20  -0.23  -0.19
   7   6    -0.10  -0.05   0.16    -0.14  -0.16   0.09    -0.05  -0.00   0.09
   8  17     0.00  -0.00   0.00    -0.00  -0.00   0.00     0.00  -0.00  -0.00
   9   1     0.01  -0.03  -0.01     0.03  -0.01  -0.01    -0.03   0.06   0.04
  10   1    -0.00   0.00  -0.06     0.00   0.00  -0.05    -0.01  -0.02   0.00
  11   1    -0.01   0.03  -0.01    -0.03   0.01  -0.00    -0.03   0.06  -0.04
  12   1     0.00  -0.00   0.35     0.00  -0.00   0.23    -0.10  -0.09  -0.00
  13   1    -0.13  -0.15  -0.13    -0.21  -0.22  -0.18    -0.01  -0.00  -0.01
  14   1    -0.11  -0.03  -0.01    -0.03  -0.05  -0.05     0.16   0.10   0.07
  15   1    -0.17  -0.22   0.18     0.06   0.11  -0.10     0.22   0.23  -0.18
  16   1    -0.06  -0.08   0.08     0.23   0.24  -0.18     0.24   0.25  -0.18
  17   1     0.00  -0.00   0.24     0.00  -0.00   0.12    -0.01  -0.02   0.00
  18   1     0.00  -0.00   0.37    -0.00   0.00  -0.24    -0.01   0.10   0.00
  19   1     0.17   0.22   0.18    -0.06  -0.11  -0.10     0.22   0.23   0.18
  20   1     0.06   0.07   0.08    -0.23  -0.24  -0.19     0.24   0.24   0.18
  21   1     0.13   0.15  -0.13     0.21   0.22  -0.18    -0.01  -0.00   0.01
  22   1     0.10   0.03  -0.01     0.03   0.05  -0.05     0.16   0.10  -0.06
                     37                     38                     39
                        a                      a                      a 
 Frequencies --  1354.2011              1355.0567              1389.7499
 Red. masses --     4.6042                 4.4238                 2.8779
 Frc consts  --     0.0000                 0.0000                 0.0000
 IR Inten    --     0.8814                31.8728               234.1963
 Raman Activ --     0.0000                 0.0000                 0.0000
 Depolar     --     0.0000                 0.0000                 0.0000
 Atom AN      X      Y      Z        X      Y      Z        X      Y      Z
   1   7    -0.00  -0.00  -0.01    -0.04  -0.08  -0.00     0.26   0.25   0.00
   2   6     0.00   0.00   0.10     0.21   0.12  -0.00     0.02  -0.00   0.00
   3   6    -0.10  -0.03  -0.11    -0.21  -0.21  -0.13    -0.04  -0.05  -0.04
   4   6    -0.09  -0.01   0.18     0.06   0.10   0.01     0.00   0.01   0.01
   5   6    -0.00   0.00  -0.44    -0.06  -0.01   0.01    -0.01   0.00  -0.00
   6   6     0.09   0.01   0.18     0.06   0.11  -0.01     0.00   0.01  -0.01
   7   6     0.09   0.03  -0.11    -0.21  -0.21   0.13    -0.04  -0.05   0.04
   8  17     0.00  -0.00  -0.00     0.00  -0.00  -0.00     0.00   0.00   0.00
   9   1    -0.01   0.01   0.00     0.05   0.09   0.08    -0.37  -0.30  -0.29
  10   1     0.00  -0.00   0.02     0.04   0.02   0.00    -0.29  -0.32  -0.00
  11   1     0.01  -0.01   0.00     0.05   0.09  -0.08    -0.37  -0.31   0.29
  12   1    -0.00  -0.00  -0.18    -0.18  -0.22   0.00     0.03   0.03  -0.00
  13   1     0.07   0.09   0.10     0.25   0.27   0.18     0.06   0.06   0.04
  14   1     0.11   0.09   0.06     0.17   0.16   0.14     0.06   0.05   0.04
  15   1     0.06   0.00   0.03     0.03   0.00   0.02     0.02   0.01  -0.00
  16   1     0.12   0.15  -0.15    -0.12  -0.12   0.07    -0.02  -0.02   0.01
  17   1     0.00  -0.00   0.57     0.02   0.04  -0.01     0.00   0.01   0.00
  18   1     0.00  -0.00   0.30    -0.01  -0.01  -0.01    -0.00   0.00   0.00
  19   1    -0.07  -0.01   0.03     0.03   0.00  -0.02     0.02   0.01   0.00
  20   1    -0.13  -0.15  -0.16    -0.12  -0.12  -0.07    -0.02  -0.02  -0.01
  21   1    -0.06  -0.08   0.10     0.26   0.28  -0.19     0.06   0.06  -0.04
  22   1    -0.11  -0.09   0.05     0.18   0.17  -0.14     0.06   0.05  -0.04
                     40                     41                     42
                        a                      a                      a 
 Frequencies --  1402.2817              1429.2791              1498.7522
 Red. masses --     1.5924                 1.6819                 1.9021
 Frc consts  --     0.0000                 0.0000                 0.0000
 IR Inten    --    88.5812                71.9820                 1.2750
 Raman Activ --     0.0000                 0.0000                 0.0000
 Depolar     --     0.0000                 0.0000                 0.0000
 Atom AN      X      Y      Z        X      Y      Z        X      Y      Z
   1   7    -0.16   0.07   0.00    -0.00  -0.00   0.21     0.00   0.00  -0.02
   2   6    -0.00   0.11   0.00     0.00  -0.00   0.06    -0.00   0.00  -0.02
   3   6    -0.01  -0.02  -0.02    -0.00  -0.02  -0.04     0.13  -0.01  -0.12
   4   6    -0.00  -0.02   0.02    -0.00   0.01   0.01     0.07  -0.01   0.06
   5   6     0.00   0.00  -0.00    -0.00  -0.00   0.00     0.00  -0.00   0.02
   6   6    -0.00  -0.02  -0.02     0.00  -0.01   0.01    -0.06   0.01   0.06
   7   6    -0.01  -0.02   0.02     0.00   0.02  -0.04    -0.13   0.01  -0.12
   8  17    -0.00  -0.00   0.00     0.00  -0.00   0.00     0.00   0.00  -0.00
   9   1     0.21  -0.42  -0.28     0.37  -0.20  -0.07    -0.03   0.02   0.01
  10   1     0.37   0.43   0.00    -0.00   0.01  -0.75     0.00  -0.00   0.07
  11   1     0.21  -0.43   0.27    -0.37   0.21  -0.07     0.03  -0.02   0.01
  12   1    -0.13  -0.10  -0.00    -0.00   0.00  -0.04    -0.00   0.00  -0.00
  13   1    -0.01  -0.02   0.00     0.01   0.01   0.06    -0.14  -0.18   0.37
  14   1     0.02   0.04   0.02    -0.02   0.03   0.01    -0.33   0.23   0.12
  15   1     0.01   0.02  -0.01     0.01   0.01  -0.01    -0.17   0.12  -0.06
  16   1     0.01   0.01  -0.01    -0.01  -0.01   0.00    -0.06  -0.08  -0.18
  17   1     0.00   0.00   0.00     0.00   0.00  -0.01     0.00   0.00  -0.01
  18   1    -0.00   0.01   0.00    -0.00   0.00   0.00    -0.00   0.00  -0.00
  19   1     0.01   0.02   0.01    -0.01  -0.01  -0.01     0.17  -0.11  -0.07
  20   1     0.01   0.01   0.01     0.01   0.01   0.00     0.06   0.09  -0.18
  21   1    -0.01  -0.02  -0.00    -0.01  -0.01   0.06     0.14   0.17   0.38
  22   1     0.01   0.04  -0.02     0.03  -0.03   0.01     0.33  -0.23   0.11
                     43                     44                     45
                        a                      a                      a 
 Frequencies --  1505.9997              1506.7298              1509.6234
 Red. masses --     1.9553                 1.9939                 1.8982
 Frc consts  --     0.0000                 0.0000                 0.0000
 IR Inten    --     0.7700                 1.1291                 0.3760
 Raman Activ --     0.0000                 0.0000                 0.0000
 Depolar     --     0.0000                 0.0000                 0.0000
 Atom AN      X      Y      Z        X      Y      Z        X      Y      Z
   1   7    -0.00   0.01  -0.00     0.00   0.00  -0.01     0.00   0.00   0.00
   2   6    -0.03  -0.02   0.00     0.00   0.00   0.02     0.02  -0.00  -0.00
   3   6    -0.08   0.02   0.12     0.06   0.00  -0.08     0.07  -0.01  -0.07
   4   6     0.02  -0.00   0.01    -0.14   0.01  -0.13     0.11  -0.03   0.12
   5   6    -0.03  -0.19  -0.00     0.00   0.00   0.01    -0.00  -0.08  -0.00
   6   6     0.03  -0.00  -0.02     0.13  -0.00  -0.13     0.11  -0.02  -0.12
   7   6    -0.09   0.02  -0.12    -0.06  -0.00  -0.07     0.07  -0.01   0.07
   8  17    -0.00  -0.00  -0.00     0.00   0.00  -0.00     0.00   0.00   0.00
   9   1     0.01  -0.01  -0.01    -0.01   0.01   0.00    -0.01   0.01   0.00
  10   1     0.01   0.01   0.00    -0.00  -0.00   0.03    -0.01  -0.02  -0.00
  11   1     0.01  -0.01   0.01     0.01  -0.01   0.00    -0.01   0.01  -0.00
  12   1     0.02   0.02  -0.00    -0.00  -0.00  -0.02     0.01   0.01   0.00
  13   1     0.09   0.13  -0.31    -0.07  -0.09   0.19    -0.07  -0.09   0.20
  14   1     0.25  -0.19  -0.10    -0.17   0.11   0.05    -0.17   0.13   0.07
  15   1    -0.07   0.03  -0.01     0.35  -0.22   0.11    -0.31   0.21  -0.11
  16   1    -0.03  -0.03  -0.06     0.14   0.18   0.37    -0.12  -0.15  -0.34
  17   1     0.33   0.31   0.00    -0.01  -0.00  -0.01     0.16   0.15   0.00
  18   1    -0.21   0.40   0.00     0.00  -0.01  -0.03    -0.10   0.19   0.00
  19   1    -0.08   0.03   0.02    -0.35   0.22   0.11    -0.31   0.21   0.12
  20   1    -0.03  -0.04   0.07    -0.14  -0.18   0.36    -0.11  -0.16   0.34
  21   1     0.10   0.12   0.32     0.07   0.08   0.18    -0.07  -0.09  -0.20
  22   1     0.26  -0.20   0.10     0.16  -0.11   0.04    -0.17   0.13  -0.07
                     46                     47                     48
                        a                      a                      a 
 Frequencies --  1520.7091              2885.6023              2898.7192
 Red. masses --     1.9902                 1.7533                 1.9157
 Frc consts  --     0.0000                 0.0000                 0.0000
 IR Inten    --     0.0330                20.4704                73.2744
 Raman Activ --     0.0000                 0.0000                 0.0000
 Depolar     --     0.0000                 0.0000                 0.0000
 Atom AN      X      Y      Z        X      Y      Z        X      Y      Z
   1   7    -0.00   0.01  -0.00    -0.00  -0.00  -0.00    -0.00   0.00  -0.00
   2   6    -0.02  -0.01   0.00    -0.19   0.18   0.00    -0.01   0.01   0.00
   3   6    -0.07   0.00   0.08     0.01  -0.01   0.01    -0.00   0.01  -0.00
   4   6     0.07  -0.00   0.09     0.01  -0.01  -0.01    -0.02   0.04   0.02
   5   6     0.04   0.20   0.00    -0.01   0.00   0.00     0.28   0.01  -0.00
   6   6     0.07  -0.00  -0.09     0.01  -0.01   0.01    -0.02   0.04  -0.02
   7   6    -0.07   0.00  -0.08     0.01  -0.01  -0.01    -0.00   0.01   0.01
   8  17    -0.00  -0.00  -0.00    -0.00   0.00   0.00     0.00   0.00   0.00
   9   1     0.01  -0.01  -0.00    -0.00  -0.00  -0.00    -0.00  -0.00  -0.00
  10   1     0.00   0.01   0.00    -0.02   0.02   0.00     0.00  -0.00  -0.00
  11   1     0.01  -0.01   0.00    -0.00  -0.00   0.00    -0.00  -0.00   0.00
  12   1     0.02   0.02   0.00     0.70  -0.65  -0.01     0.04  -0.04  -0.00
  13   1     0.08   0.10  -0.21    -0.05   0.04   0.00     0.00  -0.00  -0.00
  14   1     0.18  -0.13  -0.06     0.01   0.03  -0.04    -0.00  -0.01   0.02
  15   1    -0.20   0.15  -0.07     0.00   0.02   0.03    -0.01  -0.04  -0.06
  16   1    -0.08  -0.10  -0.23    -0.02   0.02  -0.00     0.11  -0.10   0.01
  17   1    -0.33  -0.31  -0.00     0.02  -0.02  -0.00    -0.31   0.36   0.00
  18   1     0.21  -0.39  -0.00     0.03   0.01   0.00    -0.70  -0.38  -0.00
  19   1    -0.20   0.15   0.07     0.00   0.02  -0.03    -0.01  -0.04   0.07
  20   1    -0.08  -0.10   0.23    -0.02   0.02   0.00     0.11  -0.10  -0.01
  21   1     0.08   0.10   0.21    -0.05   0.04  -0.00     0.00  -0.00   0.00
  22   1     0.18  -0.13   0.06     0.01   0.03   0.04    -0.00  -0.01  -0.02
                     49                     50                     51
                        a                      a                      a 
 Frequencies --  2900.5774              2903.0916              2922.2073
 Red. masses --     1.9508                 1.9056                 1.8733
 Frc consts  --     0.0000                 0.0000                 0.0000
 IR Inten    --    58.8587                66.0675                48.3786
 Raman Activ --     0.0000                 0.0000                 0.0000
 Depolar     --     0.0000                 0.0000                 0.0000
 Atom AN      X      Y      Z        X      Y      Z        X      Y      Z
   1   7     0.00  -0.00  -0.00    -0.00   0.00  -0.00    -0.00   0.00  -0.00
   2   6    -0.00   0.00   0.00     0.01  -0.01  -0.00     0.00  -0.00   0.01
   3   6    -0.00  -0.00   0.00    -0.01   0.01  -0.01     0.03  -0.14   0.13
   4   6     0.06  -0.15  -0.12     0.06  -0.15  -0.13    -0.03   0.01  -0.01
   5   6    -0.00  -0.00  -0.01     0.06   0.02  -0.00    -0.00   0.00  -0.00
   6   6    -0.06   0.16  -0.12     0.05  -0.14   0.12     0.03  -0.01  -0.01
   7   6     0.00   0.00   0.00    -0.01   0.01   0.01    -0.03   0.14   0.14
   8  17    -0.00  -0.00   0.00     0.00   0.00   0.00     0.00  -0.00   0.00
   9   1     0.00  -0.00   0.00    -0.00  -0.00   0.00     0.00   0.00   0.00
  10   1    -0.00   0.00  -0.00     0.00  -0.00  -0.00     0.00  -0.00   0.00
  11   1    -0.00   0.00   0.00    -0.00  -0.00  -0.00    -0.00  -0.00   0.00
  12   1     0.00  -0.00   0.00    -0.04   0.04   0.00    -0.00   0.00  -0.00
  13   1     0.02  -0.02  -0.00     0.04  -0.03  -0.00    -0.18   0.15   0.03
  14   1     0.00   0.01  -0.02    -0.00  -0.01   0.01     0.06   0.35  -0.51
  15   1     0.05   0.31   0.46     0.05   0.32   0.48     0.00   0.05   0.06
  16   1    -0.27   0.23  -0.03    -0.26   0.22  -0.03     0.10  -0.09  -0.00
  17   1     0.00  -0.00   0.00     0.02  -0.01  -0.00     0.00  -0.00  -0.00
  18   1     0.01   0.01  -0.00    -0.22  -0.11  -0.00     0.00  -0.00   0.00
  19   1    -0.05  -0.34   0.48     0.05   0.31  -0.45    -0.00  -0.05   0.06
  20   1     0.28  -0.24  -0.03    -0.24   0.20   0.03    -0.10   0.09   0.00
  21   1    -0.03   0.02   0.00     0.04  -0.03   0.00     0.18  -0.15   0.02
  22   1    -0.00  -0.01  -0.02    -0.00  -0.01  -0.01    -0.06  -0.34  -0.51
                     52                     53                     54
                        a                      a                      a 
 Frequencies --  2924.8724              2938.5942              2939.7767
 Red. masses --     1.8386                 1.5413                 1.5860
 Frc consts  --     0.0000                 0.0000                 0.0000
 IR Inten    --    42.8939                95.7567               152.7005
 Raman Activ --     0.0000                 0.0000                 0.0000
 Depolar     --     0.0000                 0.0000                 0.0000
 Atom AN      X      Y      Z        X      Y      Z        X      Y      Z
   1   7    -0.00  -0.00  -0.00    -0.00   0.00   0.00    -0.00   0.00  -0.00
   2   6    -0.02   0.03   0.00     0.00  -0.00  -0.00     0.00  -0.00  -0.00
   3   6    -0.03   0.13  -0.13    -0.01   0.03  -0.03    -0.00  -0.01   0.02
   4   6     0.03  -0.01   0.02    -0.11   0.04  -0.08     0.05  -0.04   0.01
   5   6     0.00  -0.01  -0.00     0.00  -0.00  -0.00     0.06  -0.20  -0.00
   6   6     0.03  -0.01  -0.02     0.12  -0.05  -0.08     0.05  -0.04  -0.01
   7   6    -0.03   0.13   0.14     0.01  -0.03  -0.03    -0.00  -0.01  -0.02
   8  17    -0.00   0.00  -0.00     0.00   0.00  -0.00     0.00  -0.00  -0.00
   9   1    -0.00  -0.00   0.00     0.00   0.00  -0.00     0.00  -0.00   0.00
  10   1    -0.00   0.00   0.00     0.00  -0.00   0.00     0.00  -0.00  -0.00
  11   1    -0.00  -0.00  -0.00    -0.00  -0.00  -0.00     0.00  -0.00  -0.00
  12   1     0.07  -0.06  -0.00    -0.00   0.00  -0.00    -0.01   0.01   0.00
  13   1     0.16  -0.13  -0.03     0.03  -0.02  -0.00     0.01  -0.01   0.00
  14   1    -0.06  -0.35   0.50    -0.01  -0.08   0.11     0.01   0.05  -0.07
  15   1    -0.00  -0.07  -0.09     0.01   0.22   0.29     0.00  -0.03  -0.03
  16   1    -0.11   0.10   0.00     0.40  -0.38  -0.00    -0.18   0.16  -0.00
  17   1    -0.02   0.02   0.00    -0.00   0.00  -0.00    -0.58   0.56   0.01
  18   1     0.02   0.01   0.00     0.00   0.00  -0.00     0.38   0.15   0.00
  19   1    -0.00  -0.07   0.09    -0.01  -0.23   0.29     0.00  -0.02   0.02
  20   1    -0.11   0.10   0.00    -0.42   0.39   0.01    -0.17   0.15   0.01
  21   1     0.16  -0.13   0.02    -0.03   0.02  -0.00     0.01  -0.01  -0.00
  22   1    -0.06  -0.34  -0.51     0.01   0.08   0.12     0.01   0.05   0.07
                     55                     56                     57
                        a                      a                      a 
 Frequencies --  2941.2740              2968.5937              2971.1295
 Red. masses --     1.5304                 1.5867                 1.6068
 Frc consts  --     0.0000                 0.0000                 0.0000
 IR Inten    --    91.9866                29.8795               102.0711
 Raman Activ --     0.0000                 0.0000                 0.0000
 Depolar     --     0.0000                 0.0000                 0.0000
 Atom AN      X      Y      Z        X      Y      Z        X      Y      Z
   1   7    -0.00   0.00   0.00    -0.00   0.00   0.00    -0.00   0.00  -0.00
   2   6     0.00  -0.01  -0.00     0.00  -0.00  -0.01     0.02  -0.02  -0.00
   3   6     0.01  -0.03   0.03     0.13  -0.08  -0.06     0.13  -0.08  -0.05
   4   6     0.11  -0.04   0.08     0.01  -0.01  -0.01     0.01  -0.01  -0.01
   5   6     0.02   0.07   0.00     0.00  -0.00   0.00     0.01  -0.01  -0.00
   6   6     0.10  -0.03  -0.08    -0.01   0.01  -0.00     0.01  -0.01   0.01
   7   6     0.01  -0.03  -0.03    -0.13   0.08  -0.05     0.13  -0.09   0.05
   8  17     0.00  -0.00  -0.00     0.00  -0.00   0.00     0.00  -0.00  -0.00
   9   1     0.00   0.00  -0.00     0.00   0.00  -0.00    -0.00  -0.00   0.00
  10   1     0.00  -0.00  -0.00     0.00  -0.00  -0.00     0.01  -0.01  -0.00
  11   1     0.00   0.00   0.00    -0.00  -0.00  -0.00    -0.00  -0.00  -0.00
  12   1    -0.02   0.02   0.00    -0.00   0.00  -0.00    -0.04   0.04   0.00
  13   1    -0.03   0.02   0.01    -0.48   0.44   0.01    -0.46   0.43   0.01
  14   1     0.01   0.09  -0.13    -0.00  -0.16   0.20     0.00  -0.14   0.17
  15   1    -0.01  -0.22  -0.29     0.00   0.01   0.02     0.00   0.01   0.02
  16   1    -0.38   0.36   0.00    -0.02   0.02  -0.00    -0.03   0.03  -0.00
  17   1     0.17  -0.16  -0.00    -0.00   0.00  -0.00    -0.03   0.03   0.00
  18   1    -0.24  -0.11  -0.00     0.00   0.00  -0.00     0.00   0.00  -0.00
  19   1    -0.01  -0.22   0.28    -0.00  -0.01   0.02     0.00   0.01  -0.02
  20   1    -0.37   0.34   0.01     0.02  -0.02  -0.00    -0.03   0.03   0.00
  21   1    -0.03   0.02  -0.01     0.46  -0.43  -0.00    -0.48   0.45   0.00
  22   1     0.01   0.08   0.12     0.00   0.15   0.20     0.00  -0.14  -0.18
                     58                     59                     60
                        a                      a                      a 
 Frequencies --  3148.8163              3233.4320              3245.7930
 Red. masses --     1.9344                 2.0610                 1.4175
 Frc consts  --     0.0000                 0.0000                 0.0000
 IR Inten    --   510.0396               157.5681                70.3045
 Raman Activ --     0.0000                 0.0000                 0.0000
 Depolar     --     0.0000                 0.0000                 0.0000
 Atom AN      X      Y      Z        X      Y      Z        X      Y      Z
   1   7     0.17  -0.20  -0.00     0.00   0.00   0.28     0.06   0.17  -0.00
   2   6     0.01  -0.00  -0.00     0.00   0.00   0.00     0.01   0.00  -0.00
   3   6     0.00  -0.00  -0.00    -0.00   0.00  -0.00    -0.00  -0.00   0.00
   4   6     0.00  -0.00   0.00    -0.00  -0.00   0.00     0.00   0.00   0.00
   5   6     0.00   0.00  -0.00     0.00   0.00   0.00    -0.00   0.00   0.00
   6   6     0.00  -0.00  -0.00     0.00   0.00   0.00     0.00   0.00  -0.00
   7   6     0.00  -0.00   0.00     0.00  -0.00  -0.00    -0.00  -0.00  -0.00
   8  17    -0.00   0.00   0.00     0.00  -0.00  -0.00     0.00  -0.00  -0.00
   9   1     0.02   0.04  -0.09     0.06   0.39  -0.53    -0.06  -0.39   0.57
  10   1    -0.70   0.65   0.01    -0.00   0.00   0.03    -0.12   0.13   0.00
  11   1     0.02   0.04   0.09    -0.06  -0.40  -0.56    -0.06  -0.37  -0.56
  12   1    -0.02   0.02   0.00    -0.00  -0.00  -0.00    -0.00   0.00   0.00
  13   1    -0.00   0.01   0.00     0.00  -0.00   0.00     0.00  -0.00  -0.00
  14   1     0.00  -0.00   0.00    -0.00   0.00  -0.00     0.00   0.00  -0.00
  15   1    -0.00  -0.00  -0.00     0.00   0.00  -0.00    -0.00  -0.00  -0.00
  16   1    -0.00   0.00  -0.00    -0.00   0.00  -0.00    -0.00   0.00   0.00
  17   1    -0.00   0.00   0.00    -0.00   0.00  -0.00     0.00  -0.00  -0.00
  18   1    -0.00  -0.00  -0.00    -0.00  -0.00  -0.00    -0.00  -0.00  -0.00
  19   1    -0.00  -0.00   0.00    -0.00  -0.00  -0.00    -0.00  -0.00   0.00
  20   1    -0.00   0.00   0.00     0.00  -0.00  -0.00    -0.00   0.00  -0.00
  21   1    -0.00   0.01  -0.00    -0.00   0.00   0.00     0.00  -0.00   0.00
  22   1     0.00  -0.00  -0.00     0.00  -0.00  -0.00     0.00   0.00   0.00
