      -----------------------------------------------------------      
     |                   =====================                   |     
     |                           x T B                           |     
     |                   =====================                   |     
     |                         S. Grimme                         |     
     |          Mulliken Center for Theoretical Chemistry        |     
     |                    University of Bonn                     |     
      -----------------------------------------------------------      

   * xtb version 6.5.1 (fef0646) compiled by 'conda@b96dff2e9fd6' on 2023-01-04

   xtb is free software: you can redistribute it and/or modify it under
   the terms of the GNU Lesser General Public License as published by
   the Free Software Foundation, either version 3 of the License, or
   (at your option) any later version.
   
   xtb is distributed in the hope that it will be useful,
   but WITHOUT ANY WARRANTY; without even the implied warranty of
   MERCHANTABILITY or FITNESS FOR A PARTICULAR PURPOSE.  See the
   GNU Lesser General Public License for more details.
   
   Cite this work as:
   * C. Bannwarth, E. Caldeweyher, S. Ehlert, A. Hansen, P. Pracht,
     J. Seibert, S. Spicher, S. Grimme, WIREs Comput. Mol. Sci., 2020, 11,
     e01493. DOI: 10.1002/wcms.1493
   
   for GFN2-xTB:
   * C. Bannwarth, S. Ehlert and S. Grimme., J. Chem. Theory Comput., 2019,
     15, 1652-1671. DOI: 10.1021/acs.jctc.8b01176
   for GFN1-xTB:
   * S. Grimme, C. Bannwarth, P. Shushkov, J. Chem. Theory Comput., 2017,
     13, 1989-2009. DOI: 10.1021/acs.jctc.7b00118
   for GFN0-xTB:
   * P. Pracht, E. Caldeweyher, S. Ehlert, S. Grimme, ChemRxiv, 2019, preprint.
     DOI: 10.26434/chemrxiv.8326202.v1
   for GFN-FF:
   * S. Spicher and S. Grimme, Angew. Chem. Int. Ed., 2020, 59, 15665-15673.
     DOI: 10.1002/anie.202004239
   
   for ALPB and GBSA implicit solvation:
   * S. Ehlert, M. Stahn, S. Spicher, S. Grimme, J. Chem. Theory Comput.,
     2021, 17, 4250-4261. DOI: 10.1021/acs.jctc.1c00471
   
   for DFT-D4:
   * E. Caldeweyher, C. Bannwarth and S. Grimme, J. Chem. Phys., 2017,
     147, 034112. DOI: 10.1063/1.4993215
   * E. Caldeweyher, S. Ehlert, A. Hansen, H. Neugebauer, S. Spicher,
     C. Bannwarth and S. Grimme, J. Chem. Phys., 2019, 150, 154122.
     DOI: 10.1063/1.5090222
   * E. Caldeweyher, J.-M. Mewes, S. Ehlert and S. Grimme, Phys. Chem. Chem. Phys.
     2020, 22, 8499-8512. DOI: 10.1039/D0CP00502A
   
   for sTDA-xTB:
   * S. Grimme and C. Bannwarth, J. Chem. Phys., 2016, 145, 054103.
     DOI: 10.1063/1.4959605
   
   in the mass-spec context:
   * V. Asgeirsson, C. Bauer and S. Grimme, Chem. Sci., 2017, 8, 4879.
     DOI: 10.1039/c7sc00601b
   * J. Koopman and S. Grimme, ACS Omega 2019, 4, 12, 15120-15133.
     DOI: 10.1021/acsomega.9b02011
   
   for metadynamics refer to:
   * S. Grimme, J. Chem. Theory Comput., 2019, 155, 2847-2862
     DOI: 10.1021/acs.jctc.9b00143
   
   for SPH calculations refer to:
   * S. Spicher and S. Grimme, J. Chem. Theory Comput., 2021, 17, 1701-1714
     DOI: 10.1021/acs.jctc.0c01306
   
   with help from (in alphabetical order)
   P. Atkinson, C. Bannwarth, F. Bohle, G. Brandenburg, E. Caldeweyher
   M. Checinski, S. Dohm, S. Ehlert, S. Ehrlich, I. Gerasimov, C. Hölzer
   A. Katbashev, J. Koopman, C. Lavigne, S. Lehtola, F. März, M. Müller,
   F. Musil, H. Neugebauer, J. Pisarek, C. Plett, P. Pracht, F. Pultar,
   J. Seibert, P. Shushkov, S. Spicher, M. Stahn, M. Steiner, T. Strunk,
   J. Stückrath, T. Rose, and J. Unsleber
   
 * started run on 2023/01/23 at 20:46:06.174     

           -------------------------------------------------
          |                Calculation Setup                |
           -------------------------------------------------

          program call               : xtb init.xyz --opt -c 1 -u 0 -P 16 --input xtb.inp
          hostname                   : gpg-woodward
          coordinate file            : init.xyz
          omp threads                :                    16

   ID    Z sym.   atoms
    1    7 N      1
    2    6 C      2-5
    3   53 I      6
    4    1 H      7-17

           -------------------------------------------------
          |                 G F N 2 - x T B                 |
           -------------------------------------------------

        Reference                      10.1021/acs.jctc.8b01176
      * Hamiltonian:
        H0-scaling (s, p, d)           1.850000    2.230000    2.230000
        zeta-weighting                 0.500000
      * Dispersion:
        s8                             2.700000
        a1                             0.520000
        a2                             5.000000
        s9                             5.000000
      * Repulsion:
        kExp                           1.500000    1.000000
        rExp                           1.000000
      * Coulomb:
        alpha                          2.000000
        third order                    shell-resolved
        anisotropic                    true
        a3                             3.000000
        a5                             4.000000
        cn-shift                       1.200000
        cn-exp                         4.000000
        max-rad                        5.000000


          ...................................................
          :                      SETUP                      :
          :.................................................:
          :  # basis functions                  41          :
          :  # atomic orbitals                  40          :
          :  # shells                           24          :
          :  # electrons                        38          :
          :  max. iterations                   250          :
          :  Hamiltonian                  GFN2-xTB          :
          :  restarted?                      false          :
          :  GBSA solvation                  false          :
          :  PC potential                    false          :
          :  electronic temp.          300.0000000     K    :
          :  accuracy                    1.0000000          :
          :  -> integral cutoff          0.2500000E+02      :
          :  -> integral neglect         0.1000000E-07      :
          :  -> SCF convergence          0.1000000E-05 Eh   :
          :  -> wf. convergence          0.1000000E-03 e    :
          :  Broyden damping             0.4000000          :
          ...................................................

 iter      E             dE          RMSdq      gap      omega  full diag
   1    -20.5686350 -0.205686E+02  0.551E+00    5.39       0.0  T
   2    -20.6871459 -0.118511E+00  0.492E+00    4.80       1.0  T
   3    -20.6923381 -0.519218E-02  0.268E+00    4.86       1.0  T
   4    -20.6926427 -0.304616E-03  0.127E+00    4.64       1.0  T
   5    -20.6940461 -0.140339E-02  0.364E-01    4.69       1.0  T
   6    -20.6941587 -0.112533E-03  0.163E-01    4.66       1.0  T
   7    -20.6941832 -0.245432E-04  0.933E-02    4.66       1.0  T
   8    -20.6941900 -0.684377E-05  0.827E-03    4.65       2.9  T
   9    -20.6941901 -0.991745E-07  0.419E-03    4.65       5.8  T
  10    -20.6941901 -0.121462E-07  0.165E-03    4.65      14.7  T
  11    -20.6941902 -0.162333E-08  0.542E-04    4.65      44.7  T
  12    -20.6941902 -0.489571E-09  0.284E-04    4.65      85.3  T

   *** convergence criteria satisfied after 12 iterations ***

         #    Occupation            Energy/Eh            Energy/eV
      -------------------------------------------------------------
         1        2.0000           -0.9111823             -24.7945
       ...           ...                  ...                  ...
        13        2.0000           -0.6415173             -17.4566
        14        2.0000           -0.6204993             -16.8846
        15        2.0000           -0.6064822             -16.5032
        16        2.0000           -0.5793893             -15.7660
        17        2.0000           -0.5767882             -15.6952
        18        2.0000           -0.4957059             -13.4888
        19        2.0000           -0.4935754             -13.4309 (HOMO)
        20                         -0.3225701              -8.7776 (LUMO)
        21                         -0.2731119              -7.4318
        22                         -0.1566335              -4.2622
        23                         -0.1239777              -3.3736
        24                         -0.1204507              -3.2776
       ...                                ...                  ...
        40                          0.2968599               8.0780
      -------------------------------------------------------------
                  HL-Gap            0.1710053 Eh            4.6533 eV
             Fermi-level           -0.4080728 Eh          -11.1042 eV

 SCC (total)                   0 d,  0 h,  0 min,  0.043 sec
 SCC setup                      ...        0 min,  0.001 sec (  1.782%)
 Dispersion                     ...        0 min,  0.001 sec (  1.340%)
 classical contributions        ...        0 min,  0.000 sec (  0.916%)
 integral evaluation            ...        0 min,  0.002 sec (  5.064%)
 iterations                     ...        0 min,  0.035 sec ( 80.222%)
 molecular gradient             ...        0 min,  0.004 sec (  9.929%)
 printout                       ...        0 min,  0.000 sec (  0.383%)

         :::::::::::::::::::::::::::::::::::::::::::::::::::::
         ::                     SUMMARY                     ::
         :::::::::::::::::::::::::::::::::::::::::::::::::::::
         :: total energy             -20.459619973632 Eh    ::
         :: gradient norm              0.028257436928 Eh/a0 ::
         :: HOMO-LUMO gap              4.653290370910 eV    ::
         ::.................................................::
         :: SCC energy               -20.694190151219 Eh    ::
         :: -> isotropic ES            0.117531128862 Eh    ::
         :: -> anisotropic ES         -0.006978457621 Eh    ::
         :: -> anisotropic XC          0.013606104158 Eh    ::
         :: -> dispersion             -0.009285246237 Eh    ::
         :: repulsion energy           0.234592850408 Eh    ::
         :: add. restraining           0.000000000000 Eh    ::
         :: total charge               1.000000000000 e     ::
         :::::::::::::::::::::::::::::::::::::::::::::::::::::

      ----------------------------------------------------------- 
     |                   =====================                   |
     |                        A N C O P T                        |
     |                   =====================                   |
     |               Approximate Normal Coordinate               |
     |                Rational Function Optimizer                |
      ----------------------------------------------------------- 

          ...................................................
          :                      SETUP                      :
          :.................................................:
          :   optimization level            normal          :
          :   max. optcycles                   200          :
          :   ANC micro-cycles                  20          :
          :   degrees of freedom                45          :
          :.................................................:
          :   RF solver                   davidson          :
          :   write xtbopt.log                true          :
          :   linear?                        false          :
          :   energy convergence         0.5000000E-05 Eh   :
          :   grad. convergence          0.1000000E-02 Eh/α :
          :   maximium RF displ.         1.0000000          :
          :   Hlow (freq-cutoff)         0.1000000E-01      :
          :   Hmax (freq-cutoff)         5.0000000          :
          :   S6 in model hess.         20.0000000          :
          ...................................................

generating ANC from model Hessian ...
Using Lindh-Hessian (1995)
 Shifting diagonal of input Hessian by    8.0927708184932012E-003
 Lowest  eigenvalues of input Hessian
    0.000000    0.000000    0.000000    0.000000    0.000000    0.000000
    0.010000    0.010705    0.011619    0.013543    0.014855    0.022703
    0.022945    0.026903    0.027239    0.046262    0.052382    0.056573
 Highest eigenvalues
    1.174643    1.186817    1.247893    1.397421    1.402342    1.451222


........................................................................
.............................. CYCLE    1 ..............................
........................................................................
   1    -20.6941902 -0.206942E+02  0.566E-05    4.65       0.0  T
   2    -20.6941902 -0.415668E-11  0.408E-05    4.65     595.0  T
   3    -20.6941902 -0.973444E-12  0.228E-05    4.65    1061.5  T
     SCC iter.                  ...        0 min,  0.009 sec
     gradient                   ...        0 min,  0.003 sec
 * total energy  :   -20.4596200 Eh     change       -0.6300382E-10 Eh
   gradient norm :     0.0282572 Eh/α   predicted     0.0000000E+00 (-100.00%)
   displ. norm   :     0.1912885 α      lambda       -0.2724605E-02
   maximum displ.:     0.1381560 α      in ANC's #5, #18, #17, ...

........................................................................
.............................. CYCLE    2 ..............................
........................................................................
   1    -20.6974075 -0.206974E+02  0.265E-01    4.45       0.0  T
   2    -20.6974181 -0.106162E-04  0.149E-01    4.45       1.0  T
   3    -20.6974222 -0.410193E-05  0.422E-02    4.46       1.0  T
   4    -20.6974232 -0.989363E-06  0.253E-02    4.46       1.0  T
   5    -20.6974238 -0.606313E-06  0.146E-02    4.46       1.7  T
   6    -20.6974241 -0.240216E-06  0.539E-03    4.46       4.5  T
   7    -20.6974241 -0.147391E-07  0.373E-03    4.46       6.5  T
   8    -20.6974241 -0.151449E-07  0.367E-04    4.46      66.0  T
   9    -20.6974241 -0.705533E-10  0.218E-04    4.46     111.1  T
     SCC iter.                  ...        0 min,  0.023 sec
     gradient                   ...        0 min,  0.004 sec
 * total energy  :   -20.4610054 Eh     change       -0.1385386E-02 Eh
   gradient norm :     0.0113466 Eh/α   predicted    -0.1412151E-02 (   1.93%)
   displ. norm   :     0.1375478 α      lambda       -0.5371510E-03
   maximum displ.:     0.0971123 α      in ANC's #2, #5, #9, ...

........................................................................
.............................. CYCLE    3 ..............................
........................................................................
   1    -20.6989997 -0.206990E+02  0.207E-01    4.41       0.0  T
   2    -20.6990041 -0.441531E-05  0.104E-01    4.41       1.0  T
   3    -20.6990045 -0.342141E-06  0.188E-02    4.41       1.3  T
   4    -20.6990052 -0.703446E-06  0.106E-02    4.41       2.3  T
   5    -20.6990052 -0.602099E-07  0.460E-03    4.41       5.3  T
   6    -20.6990053 -0.216074E-07  0.310E-03    4.41       7.8  T
   7    -20.6990053 -0.848500E-08  0.102E-03    4.41      23.7  T
   8    -20.6990053 -0.564192E-09  0.687E-04    4.41      35.3  T
   9    -20.6990053 -0.623828E-09  0.173E-04    4.41     140.0  T
     SCC iter.                  ...        0 min,  0.019 sec
     gradient                   ...        0 min,  0.004 sec
 * total energy  :   -20.4611418 Eh     change       -0.1364556E-03 Eh
   gradient norm :     0.0050569 Eh/α   predicted    -0.2736571E-03 ( 100.55%)
   displ. norm   :     0.0536794 α      lambda       -0.1560797E-03
   maximum displ.:     0.0428700 α      in ANC's #5, #9, #17, ...

........................................................................
.............................. CYCLE    4 ..............................
........................................................................
   1    -20.6995568 -0.206996E+02  0.728E-02    4.45       0.0  T
   2    -20.6995573 -0.541780E-06  0.363E-02    4.45       1.0  T
   3    -20.6995574 -0.692991E-07  0.131E-02    4.45       1.9  T
   4    -20.6995576 -0.156658E-06  0.662E-03    4.45       3.7  T
   5    -20.6995576 -0.315940E-07  0.295E-03    4.45       8.2  T
   6    -20.6995576 -0.130945E-07  0.166E-03    4.45      14.6  T
   7    -20.6995576 -0.276595E-08  0.371E-04    4.45      65.4  T
   8    -20.6995576 -0.175735E-09  0.110E-04    4.45     220.5  T
     SCC iter.                  ...        0 min,  0.010 sec
     gradient                   ...        0 min,  0.002 sec
 * total energy  :   -20.4612267 Eh     change       -0.8492212E-04 Eh
   gradient norm :     0.0018934 Eh/α   predicted    -0.7826472E-04 (  -7.84%)
   displ. norm   :     0.0387283 α      lambda       -0.1392779E-04
   maximum displ.:     0.0280458 α      in ANC's #2, #5, #9, ...

........................................................................
.............................. CYCLE    5 ..............................
........................................................................
   1    -20.6995954 -0.206996E+02  0.338E-02    4.43       0.0  T
   2    -20.6995955 -0.136057E-06  0.195E-02    4.43       1.2  T
   3    -20.6995956 -0.385866E-07  0.520E-03    4.43       4.7  T
   4    -20.6995956 -0.328564E-07  0.392E-03    4.43       6.2  T
   5    -20.6995956 -0.139219E-07  0.168E-03    4.43      14.4  T
   6    -20.6995956 -0.336512E-08  0.709E-04    4.43      34.2  T
   7    -20.6995956 -0.376176E-09  0.203E-04    4.43     119.4  T
     SCC iter.                  ...        0 min,  0.005 sec
     gradient                   ...        0 min,  0.002 sec
 * total energy  :   -20.4612361 Eh     change       -0.9327558E-05 Eh
   gradient norm :     0.0007983 Eh/α   predicted    -0.6970808E-05 ( -25.27%)
   displ. norm   :     0.0367899 α      lambda       -0.7337650E-05
   maximum displ.:     0.0343037 α      in ANC's #2, #5, #14, ...

........................................................................
.............................. CYCLE    6 ..............................
........................................................................
   1    -20.6996907 -0.206997E+02  0.481E-02    4.45       0.0  T
   2    -20.6996909 -0.231575E-06  0.267E-02    4.45       1.0  T
   3    -20.6996909 -0.340344E-07  0.809E-03    4.45       3.0  T
   4    -20.6996910 -0.951083E-07  0.531E-03    4.45       4.6  T
   5    -20.6996910 -0.272054E-07  0.164E-03    4.45      14.8  T
   6    -20.6996910 -0.258474E-08  0.829E-04    4.45      29.3  T
   7    -20.6996910 -0.798401E-09  0.157E-04    4.45     154.9  T
     SCC iter.                  ...        0 min,  0.005 sec
     gradient                   ...        0 min,  0.002 sec
 * total energy  :   -20.4612387 Eh     change       -0.2586940E-05 Eh
   gradient norm :     0.0011191 Eh/α   predicted    -0.3671533E-05 (  41.93%)
   displ. norm   :     0.0074005 α      lambda       -0.2912705E-05
   maximum displ.:     0.0047438 α      in ANC's #9, #12, #17, ...

........................................................................
.............................. CYCLE    7 ..............................
........................................................................
   1    -20.6996136 -0.206996E+02  0.129E-02    4.44       0.0  T
   2    -20.6996136 -0.308241E-07  0.814E-03    4.44       3.0  T
   3    -20.6996136 -0.134941E-07  0.309E-03    4.44       7.9  T
   4    -20.6996136 -0.797117E-08  0.213E-03    4.44      11.4  T
   5    -20.6996136 -0.433420E-08  0.800E-04    4.44      30.3  T
   6    -20.6996136 -0.665189E-09  0.525E-04    4.44      46.2  T
     SCC iter.                  ...        0 min,  0.004 sec
     gradient                   ...        0 min,  0.002 sec
 * total energy  :   -20.4612409 Eh     change       -0.2272977E-05 Eh
   gradient norm :     0.0003529 Eh/α   predicted    -0.1457264E-05 ( -35.89%)
   displ. norm   :     0.0055862 α      lambda       -0.3776236E-06
   maximum displ.:     0.0043742 α      in ANC's #5, #2, #21, ...

   *** GEOMETRY OPTIMIZATION CONVERGED AFTER 7 ITERATIONS ***

------------------------------------------------------------------------
 total energy gain   :        -0.0016210 Eh       -1.0172 kcal/mol
 total RMSD          :         0.0540858 a0        0.0286 Å
 total power (kW/mol):        -0.6079726 (step)  -32.6875 (real)
------------------------------------------------------------------------

 ANCopt (total)                0 d,  0 h,  0 min,  0.130 sec
 optimizer setup                ...        0 min,  0.000 sec (  0.093%)
 model hessian                  ...        0 min,  0.017 sec ( 13.247%)
 ANC generation                 ...        0 min,  0.002 sec (  1.388%)
 coordinate transformation      ...        0 min,  0.000 sec (  0.076%)
 single point calculation       ...        0 min,  0.107 sec ( 82.446%)
 optimization log               ...        0 min,  0.001 sec (  0.515%)
 hessian update                 ...        0 min,  0.001 sec (  0.897%)
 rational function              ...        0 min,  0.001 sec (  0.847%)

================
 final structure:
================
17
 xtb: 6.5.1 (fef0646)
N            0.92257684619883       -0.06360982579158        0.10043717307193
C            2.42012089947924       -0.06065942307617        0.06690526611313
C            2.92871756904210        0.12347742603918       -1.35578413729270
C            4.46224903808565        0.12557140191539       -1.37536092946484
C            4.99364830508402        0.30936685135835       -2.78741933727032
I            7.15979400805021        0.30958854110733       -2.79191836630563
H            0.57040948223654       -0.18749415275133        1.05837974699985
H            0.56034942578145       -0.82743172699943       -0.48626952676105
H            0.56193276629363        0.82527411863694       -0.27195974741579
H            2.77576361482747       -1.00726506965199        0.47656553977582
H            2.77737210596260        0.74944313074365        0.70445331013648
H            2.56728276807043        1.06933025899983       -1.76467611209721
H            2.56672069506745       -0.68668727146417       -1.99221167460489
H            4.83352441990757       -0.81672048769021       -0.96900238512759
H            4.83400945397771        0.93214888855876       -0.74122985889709
H            4.68006327034348        1.25996928424944       -3.21186701146045
H            4.67978533159164       -0.50070194418399       -3.44118194939965

 Bond Distances (Angstroems)
 ---------------------------
N1-C2=1.4979         N1-H7=1.0281         N1-H8=1.0290         N1-H9=1.0290         C2-N1=1.4979         C2-C3=1.5220         
C2-H10=1.0910        C2-H11=1.0910        C3-C2=1.5220         C3-C4=1.5337         C3-H12=1.0920        C3-H13=1.0920        
C4-C3=1.5337         C4-C5=1.5199         C4-H14=1.0913        C4-H15=1.0913        C5-C4=1.5199         C5-I6=2.1662         
C5-H16=1.0873        C5-H17=1.0873        I6-C5=2.1662         H7-N1=1.0281         H8-N1=1.0290         H9-N1=1.0290         
H10-C2=1.0910        H11-C2=1.0910        H12-C3=1.0920        H13-C3=1.0920        H14-C4=1.0913        H15-C4=1.0913        
H16-C5=1.0873        H17-C5=1.0873        
 C  H  Rav=1.0904 sigma=0.0018  Rmin=1.0873  Rmax=1.0920     8
 C  C  Rav=1.5252 sigma=0.0060  Rmin=1.5199  Rmax=1.5337     3
 N  H  Rav=1.0287 sigma=0.0004  Rmin=1.0281  Rmax=1.0290     3
 N  C  Rav=1.4979 sigma=0.0000  Rmin=1.4979  Rmax=1.4979     1
 I  C  Rav=2.1662 sigma=0.0000  Rmin=2.1662  Rmax=2.1662     1

 selected bond angles (degree)
 --------------------
H7-N1-C2=111.32                H8-N1-C2=109.92                H8-N1-H7=108.74                H9-N1-C2=109.91                
H9-N1-H7=108.74                H9-N1-H8=108.15                C3-C2-N1=110.81                H10-C2-N1=108.41               
H10-C2-C3=110.30               H11-C2-N1=108.41               H11-C2-C3=110.30               H11-C2-H10=108.55              
C4-C3-C2=110.26                H12-C3-C2=110.13               H12-C3-C4=108.97               H13-C3-C2=110.14               
H13-C3-C4=108.97               H13-C3-H12=108.34              C5-C4-C3=111.20                H14-C4-C3=109.53               
H14-C4-C5=109.35               H15-C4-C3=109.53               H15-C4-C5=109.35               H15-C4-H14=107.81              
I6-C5-C4=110.58                H16-C5-C4=111.57               H16-C5-I6=106.71               H17-C5-C4=111.57               
H17-C5-I6=106.71               H17-C5-H16=109.48              

 selected dihedral angles (degree)
 ---------------------------------
C3-C2-N1-H7=180.01            C3-C2-N1-H8= 59.47            C3-C2-N1-H9=300.54            H10-C2-N1-H7= 58.83           
H10-C2-N1-H8=298.29           H10-C2-N1-H9=179.37           H11-C2-N1-H7=301.18           H11-C2-N1-H8=180.64           
H11-C2-N1-H9= 61.72           C4-C3-C2-N1=179.96            C4-C3-C2-H10=300.01           C4-C3-C2-H11= 59.91           
H12-C3-C2-N1= 59.68           H12-C3-C2-H10=179.73          H12-C3-C2-H11=299.63          H13-C3-C2-N1=300.25           
H13-C3-C2-H10= 60.30          H13-C3-C2-H11=180.20          C5-C4-C3-C2=180.04            C5-C4-C3-H12=301.02           
C5-C4-C3-H13= 59.05           H14-C4-C3-C2= 59.06           H14-C4-C3-H12=180.04          H14-C4-C3-H13=298.07          
H15-C4-C3-C2=301.02           H15-C4-C3-H12= 62.00          H15-C4-C3-H13=180.03          I6-C5-C4-C3=179.99            
I6-C5-C4-H14=301.07           I6-C5-C4-H15= 58.92           H16-C5-C4-C3= 61.39           H16-C5-C4-H14=182.47          
H16-C5-C4-H15=300.32          H17-C5-C4-C3=298.59           H17-C5-C4-H14= 59.67          H17-C5-C4-H15=177.51          
           -------------------------------------------------
          |                Final Singlepoint                |
           -------------------------------------------------

          ...................................................
          :                      SETUP                      :
          :.................................................:
          :  # basis functions                  41          :
          :  # atomic orbitals                  40          :
          :  # shells                           24          :
          :  # electrons                        38          :
          :  max. iterations                   250          :
          :  Hamiltonian                  GFN2-xTB          :
          :  restarted?                      false          :
          :  GBSA solvation                  false          :
          :  PC potential                    false          :
          :  electronic temp.          300.0000000     K    :
          :  accuracy                    1.0000000          :
          :  -> integral cutoff          0.2500000E+02      :
          :  -> integral neglect         0.1000000E-07      :
          :  -> SCF convergence          0.1000000E-05 Eh   :
          :  -> wf. convergence          0.1000000E-03 e    :
          :  Broyden damping             0.4000000          :
          ...................................................

 iter      E             dE          RMSdq      gap      omega  full diag
   1    -20.6996136 -0.206996E+02  0.147E-04    4.44       0.0  T
   2    -20.6996136 -0.856915E-11  0.464E-05    4.44     522.8  T
   3    -20.6996136 -0.124345E-11  0.489E-05    4.44     496.1  T

   *** convergence criteria satisfied after 3 iterations ***

         #    Occupation            Energy/Eh            Energy/eV
      -------------------------------------------------------------
         1        2.0000           -0.9083318             -24.7170
       ...           ...                  ...                  ...
        13        2.0000           -0.6412624             -17.4496
        14        2.0000           -0.6217923             -16.9198
        15        2.0000           -0.6076810             -16.5358
        16        2.0000           -0.5809117             -15.8074
        17        2.0000           -0.5725858             -15.5809
        18        2.0000           -0.4947348             -13.4624
        19        2.0000           -0.4925526             -13.4030 (HOMO)
        20                         -0.3293790              -8.9629 (LUMO)
        21                         -0.2772939              -7.5456
        22                         -0.1732459              -4.7143
        23                         -0.1170783              -3.1859
        24                         -0.1149184              -3.1271
       ...                                ...                  ...
        40                          0.2646196               7.2007
      -------------------------------------------------------------
                  HL-Gap            0.1631736 Eh            4.4402 eV
             Fermi-level           -0.4109658 Eh          -11.1829 eV

 SCC (total)                   0 d,  0 h,  0 min,  0.005 sec
 SCC setup                      ...        0 min,  0.000 sec (  2.200%)
 Dispersion                     ...        0 min,  0.000 sec (  2.662%)
 classical contributions        ...        0 min,  0.000 sec (  0.932%)
 integral evaluation            ...        0 min,  0.001 sec ( 15.144%)
 iterations                     ...        0 min,  0.002 sec ( 43.691%)
 molecular gradient             ...        0 min,  0.002 sec ( 32.013%)
 printout                       ...        0 min,  0.000 sec (  1.925%)

         :::::::::::::::::::::::::::::::::::::::::::::::::::::
         ::                     SUMMARY                     ::
         :::::::::::::::::::::::::::::::::::::::::::::::::::::
         :: total energy             -20.461240925598 Eh    ::
         :: gradient norm              0.000352401654 Eh/a0 ::
         :: HOMO-LUMO gap              4.440180489870 eV    ::
         ::.................................................::
         :: SCC energy               -20.699613615479 Eh    ::
         :: -> isotropic ES            0.117726868945 Eh    ::
         :: -> anisotropic ES         -0.008153064661 Eh    ::
         :: -> anisotropic XC          0.013956197092 Eh    ::
         :: -> dispersion             -0.009241713568 Eh    ::
         :: repulsion energy           0.238397365532 Eh    ::
         :: add. restraining           0.000000000000 Eh    ::
         :: total charge               1.000000000000 e     ::
         :::::::::::::::::::::::::::::::::::::::::::::::::::::

           -------------------------------------------------
          |                Property Printout                |
           -------------------------------------------------

    * Orbital Energies and Occupations

         #    Occupation            Energy/Eh            Energy/eV
      -------------------------------------------------------------
         1        2.0000           -0.9083318             -24.7170
       ...           ...                  ...                  ...
         7        2.0000           -0.7556275             -20.5617
         8        2.0000           -0.7409896             -20.1634
         9        2.0000           -0.7065178             -19.2253
        10        2.0000           -0.7040740             -19.1588
        11        2.0000           -0.6701255             -18.2350
        12        2.0000           -0.6576040             -17.8943
        13        2.0000           -0.6412624             -17.4496
        14        2.0000           -0.6217923             -16.9198
        15        2.0000           -0.6076810             -16.5358
        16        2.0000           -0.5809117             -15.8074
        17        2.0000           -0.5725858             -15.5809
        18        2.0000           -0.4947348             -13.4624
        19        2.0000           -0.4925526             -13.4030 (HOMO)
        20                         -0.3293790              -8.9629 (LUMO)
        21                         -0.2772939              -7.5456
        22                         -0.1732459              -4.7143
        23                         -0.1170783              -3.1859
        24                         -0.1149184              -3.1271
        25                         -0.0805993              -2.1932
        26                         -0.0707999              -1.9266
        27                         -0.0706946              -1.9237
        28                         -0.0646497              -1.7592
        29                         -0.0501061              -1.3635
        30                         -0.0283928              -0.7726
       ...                                ...                  ...
        40                          0.2646196               7.2007
      -------------------------------------------------------------
                  HL-Gap            0.1631736 Eh            4.4402 eV
             Fermi-level           -0.4109658 Eh          -11.1829 eV

     #   Z          covCN         q      C6AA      α(0)
     1   7 N        3.482    -0.127    23.751     7.238
     2   6 C        3.732    -0.034    21.276     6.584
     3   6 C        3.803    -0.082    22.057     6.686
     4   6 C        3.928    -0.067    21.713     6.622
     5   6 C        3.782    -0.013    20.832     6.502
     6  53 I        1.094    -0.111   380.172    33.659
     7   1 H        0.859     0.273     0.798     1.400
     8   1 H        0.859     0.274     0.797     1.398
     9   1 H        0.859     0.274     0.797     1.398
    10   1 H        0.924     0.111     1.688     2.032
    11   1 H        0.924     0.111     1.688     2.032
    12   1 H        0.924     0.065     2.144     2.290
    13   1 H        0.924     0.065     2.144     2.290
    14   1 H        0.924     0.066     2.135     2.285
    15   1 H        0.924     0.066     2.135     2.285
    16   1 H        0.932     0.065     2.136     2.285
    17   1 H        0.932     0.065     2.136     2.285

 Mol. C6AA /au·bohr⁶  :       3224.274681
 Mol. C8AA /au·bohr⁸  :     127543.120545
 Mol. α(0) /au        :         89.272331


Wiberg/Mayer (AO) data.
largest (>0.10) Wiberg bond orders for each atom

 ---------------------------------------------------------------------------
     #   Z sym  total        # sym  WBO       # sym  WBO       # sym  WBO
 ---------------------------------------------------------------------------
     1   7 N    3.675 --     2 C    0.923     7 H    0.911     8 H    0.909
                             9 H    0.909
     2   6 C    3.884 --     3 C    1.009    10 H    0.966    11 H    0.966
                             1 N    0.923
     3   6 C    3.982 --     2 C    1.009     4 C    0.990    13 H    0.972
                            12 H    0.972
     4   6 C    3.988 --     5 C    1.021     3 C    0.990    14 H    0.975
                            15 H    0.975
     5   6 C    3.975 --     4 C    1.021     6 I    0.980    17 H    0.980
                            16 H    0.980
     6  53 I    1.014 --     5 C    0.980
     7   1 H    0.925 --     1 N    0.911
     8   1 H    0.925 --     1 N    0.909
     9   1 H    0.925 --     1 N    0.909
    10   1 H    0.988 --     2 C    0.966
    11   1 H    0.988 --     2 C    0.966
    12   1 H    0.996 --     3 C    0.972
    13   1 H    0.996 --     3 C    0.972
    14   1 H    0.996 --     4 C    0.975
    15   1 H    0.996 --     4 C    0.975
    16   1 H    0.996 --     5 C    0.980
    17   1 H    0.996 --     5 C    0.980
 ---------------------------------------------------------------------------

Topologies differ in total number of bonds
Writing topology from bond orders to xtbtopo.mol

molecular dipole:
                 x           y           z       tot (Debye)
 q only:        1.998      -0.086      -0.080
   full:        1.239      -0.082      -0.109       3.167
molecular quadrupole (traceless):
                xx          xy          yy          xz          yz          zz
 q only:       -2.395      -0.524       0.237       1.807      -0.242       2.158
  q+dip:      -20.170      -0.822       9.647       5.005      -0.100      10.523
   full:      -17.278      -0.771       7.628       4.599      -0.251       9.649

           -------------------------------------------------
          |                Geometry Summary                 |
           -------------------------------------------------

      molecular mass/u    :      200.0414670
   center of mass at/Å    :        5.6538509       0.2259128      -2.1450657
  moments of inertia/u·Å² :        0.3738311E+02   0.1178060E+04   0.1200008E+04
rotational constants/cm⁻¹ :        0.4509425E+00   0.1430965E-01   0.1404794E-01

 * 16 selected distances

     #   Z          #   Z                                           value/Å
     1   7 N        2   6 C                                       1.4979225
     2   6 C        3   6 C                                       1.5220455
     3   6 C        4   6 C                                       1.5336580
     4   6 C        5   6 C                                       1.5198932
     5   6 C        6  53 I                                       2.1661506 (max)
     1   7 N        7   1 H                                       1.0281164 (min)
     1   7 N        8   1 H                                       1.0290080
     1   7 N        9   1 H                                       1.0290085
     2   6 C       10   1 H                                       1.0910388
     2   6 C       11   1 H                                       1.0910373
     3   6 C       12   1 H                                       1.0920007
     3   6 C       13   1 H                                       1.0919930
     4   6 C       14   1 H                                       1.0912776
     4   6 C       15   1 H                                       1.0912816
     5   6 C       16   1 H                                       1.0872611
     5   6 C       17   1 H                                       1.0872567

 * 5 distinct bonds (by element types)

   Z      Z             #   av. dist./Å        max./Å        min./Å
   1 H    6 C           8     1.0903934     1.0920007     1.0872567
   6 C    6 C           3     1.5251989     1.5336580     1.5198932
   1 H    7 N           3     1.0287110     1.0290085     1.0281164
   6 C    7 N           1     1.4979225     1.4979225     1.4979225
   6 C   53 I           1     2.1661506     2.1661506     2.1661506


optimized geometry written to: xtbopt.xyz


           -------------------------------------------------
          | TOTAL ENERGY              -20.461240925598 Eh   |
          | GRADIENT NORM               0.000352401654 Eh/α |
          | HOMO-LUMO GAP               4.440180489870 eV   |
           -------------------------------------------------

------------------------------------------------------------------------
 * finished run on 2023/01/23 at 20:46:06.382     
------------------------------------------------------------------------
 total:
 * wall-time:     0 d,  0 h,  0 min,  0.208 sec
 *  cpu-time:     0 d,  0 h,  0 min, 20.809 sec
 * ratio c/w:   100.123 speedup
 SCF:
 * wall-time:     0 d,  0 h,  0 min,  0.043 sec
 *  cpu-time:     0 d,  0 h,  0 min,  5.587 sec
 * ratio c/w:   129.075 speedup
 ANC optimizer:
 * wall-time:     0 d,  0 h,  0 min,  0.136 sec
 *  cpu-time:     0 d,  0 h,  0 min, 11.693 sec
 * ratio c/w:    86.042 speedup

