 Entering Gaussian System
 *********************************************
 Gaussian 98:
 frequency output generated by the xtb code
 *********************************************
                         Standard orientation:
 --------------------------------------------------------------------
  Center     Atomic     Atomic              Coordinates (Angstroms)
  Number     Number      Type              X           Y           Z
 --------------------------------------------------------------------
    1          7             0       -0.641577    0.186074    0.608372
    2          6             0       -0.503713    1.406132   -0.231421
    3          6             0        0.922819    1.954335   -0.249677
    4          6             0        1.929102    1.057688   -0.979839
    5          6             0        2.340539   -0.152423   -0.182848
    6          8             0        3.357423    0.031694    0.689728
    7          8             0        1.758113   -1.207590   -0.317924
    8         17             0       -3.816366   -1.261060    0.167056
    9          1             0       -1.564960   -0.267381    0.499026
   10          1             0       -0.498772    0.398065    1.603381
   11          1             0        0.092269   -0.481990    0.322941
   12          1             0       -1.205948    2.168297    0.128070
   13          1             0       -0.817028    1.179062   -1.257119
   14          1             0        1.266704    2.110855    0.778192
   15          1             0        0.919673    2.949654   -0.711778
   16          1             0        2.837675    1.621133   -1.216483
   17          1             0        1.516877    0.729169   -1.937797
   18          1             0        3.531290   -0.802807    1.147499
 --------------------------------------------------------------------
     1 basis functions        1 primitive gaussians
     1 alpha electrons        1 beta electrons

 Harmonic frequencies (cm**-1), IR intensities (km*mol⁻¹),
 Raman scattering activities (A**4/amu), Raman depolarization ratios,
 reduced masses (AMU), force constants (mDyne/A) and normal coordinates:
                      1                      2                      3
                        a                      a                      a 
 Frequencies --  -143.7505                47.3860                84.4289
 Red. masses --    25.5805                16.1834                15.9380
 Frc consts  --     0.0000                 0.0000                 0.0000
 IR Inten    --     7.8198                 7.3116                 5.9389
 Raman Activ --     0.0000                 0.0000                 0.0000
 Depolar     --     0.0000                 0.0000                 0.0000
 Atom AN      X      Y      Z        X      Y      Z        X      Y      Z
   1   7    -0.41  -0.10  -0.09    -0.03  -0.12  -0.10     0.03   0.16  -0.13
   2   6    -0.18  -0.08  -0.04    -0.03  -0.04   0.02     0.09   0.07  -0.23
   3   6    -0.16  -0.11   0.07    -0.03  -0.02   0.04     0.07   0.13  -0.06
   4   6    -0.12  -0.04   0.04     0.01   0.04   0.01     0.23   0.18   0.10
   5   6    -0.06  -0.05   0.01    -0.02   0.06   0.06    -0.13   0.00   0.02
   6   8    -0.12   0.01   0.03     0.37  -0.14  -0.38    -0.24  -0.36   0.21
   7   8     0.07  -0.09  -0.08    -0.50   0.25   0.54    -0.40   0.17  -0.20
   8  17     0.70   0.33   0.05     0.15   0.00  -0.11     0.23  -0.23   0.21
   9   1    -0.13  -0.02  -0.06    -0.02  -0.02  -0.02     0.00   0.05  -0.00
  10   1    -0.15  -0.03  -0.02     0.01  -0.06  -0.02     0.03   0.07  -0.04
  11   1    -0.11  -0.04   0.01    -0.01  -0.03  -0.06    -0.01   0.02  -0.03
  12   1    -0.05  -0.02  -0.02    -0.00  -0.02   0.03     0.00   0.02  -0.12
  13   1    -0.03  -0.01  -0.02    -0.02   0.02   0.00     0.07  -0.02  -0.07
  14   1    -0.06  -0.05   0.03    -0.01  -0.02   0.01    -0.02   0.05  -0.00
  15   1    -0.04  -0.02   0.04    -0.02  -0.00   0.02     0.03   0.03  -0.03
  16   1    -0.04  -0.00   0.02    -0.00   0.02   0.01     0.10   0.04   0.14
  17   1    -0.03  -0.01   0.01     0.00   0.01   0.00     0.14   0.11  -0.02
  18   1    -0.01   0.01   0.01     0.06  -0.03  -0.08    -0.13  -0.12   0.03
                      4                      5                      6
                        a                      a                      a 
 Frequencies --    93.2490               133.8023               139.9409
 Red. masses --    15.1440                 9.4630                13.6872
 Frc consts  --     0.0000                 0.0000                 0.0000
 IR Inten    --    16.4214                16.5831                15.5818
 Raman Activ --     0.0000                 0.0000                 0.0000
 Depolar     --     0.0000                 0.0000                 0.0000
 Atom AN      X      Y      Z        X      Y      Z        X      Y      Z
   1   7    -0.03  -0.35  -0.26     0.18  -0.27  -0.54     0.40  -0.27   0.32
   2   6    -0.05  -0.33  -0.25     0.06   0.19   0.13     0.03  -0.33   0.12
   3   6    -0.14  -0.08   0.04     0.12   0.05   0.05    -0.09  -0.03  -0.17
   4   6     0.19   0.20   0.16    -0.09  -0.08  -0.08    -0.01   0.04  -0.14
   5   6     0.16   0.12   0.04    -0.07   0.01   0.04    -0.12   0.07  -0.05
   6   8     0.18   0.01   0.08    -0.21   0.14   0.16    -0.28   0.10   0.10
   7   8     0.17   0.16  -0.10    -0.04  -0.03   0.09    -0.22   0.10  -0.02
   8  17    -0.30   0.22   0.21     0.03   0.01   0.14     0.17   0.24  -0.14
   9   1    -0.03  -0.06  -0.02     0.00   0.00  -0.08     0.10  -0.06   0.16
  10   1     0.03  -0.09  -0.08     0.20  -0.24  -0.13     0.20  -0.05   0.07
  11   1    -0.03  -0.11  -0.09    -0.03  -0.08  -0.33     0.08  -0.08   0.03
  12   1    -0.07  -0.13  -0.12     0.07   0.02   0.21    -0.02  -0.12   0.04
  13   1     0.05  -0.12  -0.09    -0.06   0.22   0.02    -0.02  -0.16   0.06
  14   1    -0.11  -0.03   0.04     0.07  -0.02   0.01     0.01   0.06  -0.07
  15   1    -0.07  -0.01   0.04     0.05   0.02   0.03    -0.10  -0.03  -0.10
  16   1     0.05   0.11   0.14    -0.03  -0.05  -0.09    -0.00   0.02  -0.01
  17   1     0.14   0.09  -0.00    -0.08  -0.05   0.01     0.02   0.01  -0.05
  18   1     0.04  -0.01  -0.01    -0.07   0.05   0.08    -0.11   0.03   0.05
                      7                      8                      9
                        a                      a                      a 
 Frequencies --   214.6014               305.8623               345.5355
 Red. masses --     9.9817                 8.8211                 2.7924
 Frc consts  --     0.0000                 0.0000                 0.0000
 IR Inten    --     2.4761                 1.9940                 8.4646
 Raman Activ --     0.0000                 0.0000                 0.0000
 Depolar     --     0.0000                 0.0000                 0.0000
 Atom AN      X      Y      Z        X      Y      Z        X      Y      Z
   1   7    -0.26  -0.07   0.07    -0.33  -0.12   0.09    -0.14   0.16   0.13
   2   6     0.25  -0.12   0.03    -0.08   0.07   0.34    -0.04   0.01  -0.04
   3   6     0.32  -0.26   0.20     0.01  -0.03  -0.38     0.01  -0.13   0.04
   4   6     0.21   0.01  -0.29     0.25   0.01  -0.14     0.10  -0.01   0.02
   5   6     0.03   0.07  -0.19     0.18   0.07   0.01     0.00  -0.06  -0.03
   6   8    -0.19   0.27   0.00     0.12  -0.16   0.17     0.01   0.11  -0.09
   7   8    -0.16   0.17   0.04     0.04   0.20  -0.08     0.02  -0.06   0.01
   8  17    -0.09  -0.05   0.03    -0.05  -0.04  -0.01     0.01  -0.05  -0.06
   9   1    -0.07  -0.00  -0.10    -0.12   0.02  -0.03    -0.22   0.31   0.43
  10   1    -0.21  -0.01   0.03    -0.08  -0.12   0.04     0.51   0.01  -0.03
  11   1    -0.05  -0.04   0.13    -0.12  -0.04  -0.03    -0.36  -0.18  -0.28
  12   1     0.09   0.00  -0.04     0.10   0.07   0.24     0.01   0.04  -0.03
  13   1     0.12  -0.03  -0.01    -0.19   0.12   0.13    -0.02  -0.03  -0.00
  14   1     0.12  -0.23   0.07     0.07   0.16  -0.16    -0.02  -0.08   0.03
  15   1     0.10  -0.01   0.20    -0.09  -0.07  -0.25     0.03  -0.02   0.06
  16   1     0.06   0.01  -0.08     0.05   0.05   0.00     0.04   0.02   0.09
  17   1     0.02   0.04  -0.08     0.14  -0.04  -0.06     0.08   0.05  -0.03
  18   1    -0.11   0.11   0.11    -0.05  -0.06   0.05     0.01   0.06   0.04
                     10                     11                     12
                        a                      a                      a 
 Frequencies --   397.3817               445.5960               545.5819
 Red. masses --     9.3699                 6.8996                11.8614
 Frc consts  --     0.0000                 0.0000                 0.0000
 IR Inten    --    23.7759                 4.3501                38.9170
 Raman Activ --     0.0000                 0.0000                 0.0000
 Depolar     --     0.0000                 0.0000                 0.0000
 Atom AN      X      Y      Z        X      Y      Z        X      Y      Z
   1   7    -0.07  -0.12  -0.02     0.20   0.14  -0.05     0.04   0.03  -0.01
   2   6     0.15  -0.01   0.11    -0.37   0.17  -0.00    -0.03   0.01  -0.01
   3   6     0.08   0.18  -0.08    -0.19  -0.35  -0.01     0.04  -0.21  -0.03
   4   6     0.21   0.10   0.24     0.22   0.02  -0.04     0.05  -0.28   0.21
   5   6    -0.24  -0.19   0.00     0.11  -0.11  -0.17    -0.02  -0.09   0.29
   6   8    -0.15   0.29  -0.31    -0.05   0.07  -0.01     0.18   0.34   0.06
   7   8    -0.01  -0.35   0.07    -0.03  -0.09   0.10    -0.38   0.17  -0.45
   8  17    -0.02  -0.01   0.01     0.02   0.03   0.01     0.01   0.01  -0.00
   9   1    -0.02  -0.01  -0.10     0.15  -0.15  -0.01     0.03  -0.03  -0.02
  10   1    -0.12  -0.07   0.02    -0.00   0.07  -0.01    -0.01   0.02  -0.00
  11   1    -0.01  -0.04   0.04     0.19   0.17   0.00     0.04   0.04  -0.00
  12   1     0.04  -0.01   0.04    -0.01   0.08   0.13     0.04   0.03   0.03
  13   1     0.04   0.02   0.03    -0.25   0.12   0.03    -0.05   0.02   0.01
  14   1     0.03   0.21  -0.05    -0.09  -0.24   0.04    -0.01  -0.03  -0.01
  15   1    -0.04  -0.01  -0.17     0.04  -0.04   0.13     0.05  -0.08  -0.04
  16   1     0.15  -0.01   0.32     0.06   0.11   0.23     0.00  -0.09   0.00
  17   1     0.21   0.20  -0.05     0.24   0.12  -0.13     0.01  -0.17   0.09
  18   1     0.11   0.14  -0.02    -0.08   0.07   0.12     0.35   0.13  -0.03
                     13                     14                     15
                        a                      a                      a 
 Frequencies --   599.7163               701.2823               804.9840
 Red. masses --     4.1708                 9.8143                 9.7774
 Frc consts  --     0.0000                 0.0000                 0.0000
 IR Inten    --   110.4426                66.6079               186.2592
 Raman Activ --     0.0000                 0.0000                 0.0000
 Depolar     --     0.0000                 0.0000                 0.0000
 Atom AN      X      Y      Z        X      Y      Z        X      Y      Z
   1   7     0.01   0.00   0.01     0.04  -0.01   0.02    -0.05  -0.14   0.10
   2   6     0.01  -0.00  -0.01     0.04  -0.01  -0.03    -0.11   0.05  -0.01
   3   6     0.05  -0.13  -0.09     0.05  -0.12  -0.11    -0.01   0.39  -0.12
   4   6     0.05   0.07  -0.16    -0.02  -0.01  -0.04     0.03   0.18  -0.35
   5   6    -0.24   0.19   0.14    -0.48   0.29   0.48    -0.08  -0.19   0.12
   6   8    -0.21  -0.04   0.09     0.13  -0.12  -0.26     0.32   0.04   0.24
   7   8     0.14   0.01   0.11     0.22   0.04  -0.13    -0.17  -0.26  -0.08
   8  17     0.00  -0.00   0.00    -0.01  -0.00  -0.00     0.00   0.00   0.00
   9   1     0.00   0.00   0.01     0.01  -0.00  -0.01    -0.01  -0.03   0.01
  10   1     0.01   0.01  -0.00    -0.03   0.02   0.00    -0.01  -0.08   0.03
  11   1    -0.01  -0.01   0.02     0.00  -0.02   0.03    -0.01  -0.02  -0.01
  12   1     0.06   0.02   0.06     0.07   0.02   0.06    -0.11  -0.05  -0.03
  13   1    -0.07   0.03   0.01    -0.07   0.03   0.01    -0.01  -0.06   0.01
  14   1     0.03  -0.18  -0.01     0.02  -0.17  -0.01     0.03  -0.23   0.01
  15   1     0.03   0.03   0.11     0.05   0.03   0.11     0.04   0.25   0.28
  16   1     0.04   0.01   0.04     0.05  -0.06   0.07     0.06  -0.01  -0.06
  17   1     0.10   0.01  -0.08     0.09  -0.06  -0.03     0.05   0.07  -0.12
  18   1     0.44  -0.27  -0.63    -0.33   0.06   0.24     0.17   0.08   0.14
                     16                     17                     18
                        a                      a                      a 
 Frequencies --   846.4496               865.5347               919.3689
 Red. masses --     3.1498                 7.9966                 5.7151
 Frc consts  --     0.0000                 0.0000                 0.0000
 IR Inten    --    23.0055               162.0904                88.4137
 Raman Activ --     0.0000                 0.0000                 0.0000
 Depolar     --     0.0000                 0.0000                 0.0000
 Atom AN      X      Y      Z        X      Y      Z        X      Y      Z
   1   7    -0.01   0.12  -0.00    -0.12  -0.17   0.13    -0.12   0.05  -0.17
   2   6    -0.08   0.14   0.26    -0.35   0.10  -0.06    -0.08  -0.11   0.07
   3   6    -0.03  -0.12   0.07     0.19   0.19   0.04     0.08  -0.15   0.28
   4   6    -0.07  -0.14  -0.15     0.43  -0.06   0.08     0.10   0.17  -0.26
   5   6    -0.05   0.07   0.06     0.02   0.04   0.07    -0.20   0.01   0.09
   6   8     0.05  -0.00   0.02    -0.23  -0.02  -0.21     0.17   0.01   0.10
   7   8     0.03   0.04  -0.02     0.08   0.05   0.03    -0.03  -0.16  -0.04
   8  17     0.00   0.00   0.00    -0.01   0.00  -0.00     0.00   0.01  -0.01
   9   1     0.05  -0.04  -0.13     0.06  -0.26   0.13     0.06  -0.24   0.24
  10   1     0.03  -0.34   0.07     0.09  -0.08   0.03     0.13   0.34  -0.14
  11   1     0.05   0.21  -0.29     0.08   0.14  -0.12     0.10   0.12   0.04
  12   1    -0.25   0.03  -0.37    -0.15   0.02  -0.11    -0.03  -0.04   0.03
  13   1     0.36  -0.28   0.02    -0.05  -0.08  -0.01     0.10   0.15  -0.06
  14   1     0.17   0.05  -0.06    -0.05   0.05   0.05     0.17   0.28  -0.03
  15   1    -0.03  -0.08  -0.08     0.14   0.05   0.02    -0.24  -0.16  -0.19
  16   1    -0.01   0.04   0.17     0.13  -0.17  -0.28     0.03   0.02  -0.12
  17   1     0.17   0.01  -0.14    -0.11  -0.17   0.17    -0.09   0.11  -0.04
  18   1    -0.03  -0.03  -0.03    -0.03   0.00  -0.04     0.04   0.00   0.02
                     19                     20                     21
                        a                      a                      a 
 Frequencies --   944.4834               990.1271              1044.7548
 Red. masses --     6.6609                 5.5899                 6.0878
 Frc consts  --     0.0000                 0.0000                 0.0000
 IR Inten    --     9.2364               123.3059               540.4268
 Raman Activ --     0.0000                 0.0000                 0.0000
 Depolar     --     0.0000                 0.0000                 0.0000
 Atom AN      X      Y      Z        X      Y      Z        X      Y      Z
   1   7    -0.13  -0.31   0.08     0.16   0.07  -0.19    -0.18   0.03  -0.07
   2   6    -0.05   0.17  -0.13    -0.18  -0.06   0.23     0.23  -0.08   0.13
   3   6     0.20   0.16  -0.03    -0.14   0.18   0.11    -0.09   0.05  -0.20
   4   6    -0.30  -0.30   0.05     0.19  -0.24  -0.12    -0.12   0.14   0.10
   5   6     0.05   0.08  -0.14     0.09  -0.02   0.08     0.22  -0.12   0.16
   6   8     0.07   0.04   0.07    -0.14  -0.04  -0.12    -0.25  -0.12  -0.18
   7   8     0.01   0.15  -0.01     0.04   0.11  -0.01     0.03   0.05   0.02
   8  17    -0.00   0.00  -0.01    -0.00  -0.01  -0.00    -0.00   0.00  -0.00
   9   1     0.01  -0.25   0.26    -0.08   0.27  -0.04     0.06  -0.26   0.17
  10   1     0.08   0.20  -0.05    -0.09   0.26  -0.08     0.12   0.13  -0.07
  11   1     0.05  -0.03   0.12    -0.09  -0.23   0.23     0.10   0.18  -0.07
  12   1    -0.07  -0.03   0.00    -0.32  -0.27   0.07     0.11   0.04  -0.02
  13   1     0.07   0.15  -0.08     0.17   0.08  -0.03     0.13   0.03   0.00
  14   1     0.16  -0.01  -0.03     0.13  -0.01  -0.02     0.18  -0.18  -0.08
  15   1     0.21   0.04  -0.03    -0.06   0.06   0.07    -0.16   0.12   0.18
  16   1     0.01  -0.07   0.36     0.05  -0.03   0.02    -0.15   0.21  -0.00
  17   1     0.17   0.08  -0.15     0.19  -0.21  -0.04     0.15  -0.24   0.04
  18   1    -0.11  -0.07  -0.08     0.04   0.02   0.01     0.19   0.13   0.15
                     22                     23                     24
                        a                      a                      a 
 Frequencies --  1060.9441              1110.9201              1121.2669
 Red. masses --     8.5158                 7.1055                 7.3287
 Frc consts  --     0.0000                 0.0000                 0.0000
 IR Inten    --   107.6921               306.8010               572.5633
 Raman Activ --     0.0000                 0.0000                 0.0000
 Depolar     --     0.0000                 0.0000                 0.0000
 Atom AN      X      Y      Z        X      Y      Z        X      Y      Z
   1   7     0.11  -0.34   0.21    -0.08  -0.07   0.07     0.02  -0.05  -0.10
   2   6     0.04   0.52  -0.23     0.32   0.15  -0.04    -0.09   0.09   0.20
   3   6    -0.11  -0.23   0.07    -0.44   0.10   0.09     0.11  -0.17  -0.30
   4   6     0.04   0.16  -0.10     0.23  -0.21  -0.05     0.05   0.25   0.33
   5   6     0.01  -0.05   0.14    -0.06   0.05  -0.09    -0.12   0.04  -0.16
   6   8    -0.09  -0.09  -0.07     0.13   0.16   0.06     0.16   0.16   0.09
   7   8     0.01  -0.02   0.00    -0.07  -0.10  -0.03    -0.09  -0.21  -0.00
   8  17     0.00  -0.00  -0.00     0.00   0.00  -0.00     0.00   0.00  -0.00
   9   1    -0.04   0.08   0.01     0.02  -0.10   0.05    -0.03   0.04   0.04
  10   1    -0.06  -0.05   0.06     0.05  -0.02   0.01    -0.01   0.13  -0.05
  11   1    -0.05  -0.20   0.14     0.03   0.05  -0.02    -0.00  -0.08   0.10
  12   1    -0.08   0.06  -0.09     0.14   0.08  -0.00    -0.17  -0.06  -0.08
  13   1     0.18   0.16  -0.12     0.14   0.13  -0.04     0.16  -0.05   0.01
  14   1    -0.01   0.09  -0.02    -0.18  -0.00   0.05     0.19  -0.19  -0.11
  15   1    -0.01  -0.12  -0.12    -0.27   0.07   0.11     0.12   0.00   0.03
  16   1    -0.14   0.25  -0.09     0.06  -0.07  -0.05    -0.12   0.18  -0.14
  17   1     0.02  -0.07   0.01     0.13  -0.25   0.02    -0.07  -0.16   0.19
  18   1     0.17   0.09   0.12    -0.30  -0.16  -0.22    -0.28  -0.14  -0.18
                     25                     26                     27
                        a                      a                      a 
 Frequencies --  1186.2381              1212.8129              1236.3859
 Red. masses --     4.7965                 2.8141                 7.3372
 Frc consts  --     0.0000                 0.0000                 0.0000
 IR Inten    --    30.2500                 8.7585               180.4618
 Raman Activ --     0.0000                 0.0000                 0.0000
 Depolar     --     0.0000                 0.0000                 0.0000
 Atom AN      X      Y      Z        X      Y      Z        X      Y      Z
   1   7    -0.01  -0.10  -0.14    -0.07  -0.01  -0.14     0.03  -0.05  -0.01
   2   6     0.14   0.20   0.28     0.14  -0.02   0.20    -0.02   0.07   0.02
   3   6    -0.20  -0.14  -0.23    -0.04   0.09   0.02     0.05  -0.04  -0.07
   4   6     0.02   0.00   0.05     0.06  -0.09  -0.17    -0.05   0.03  -0.09
   5   6    -0.05   0.04  -0.10    -0.00  -0.00   0.13     0.41  -0.24   0.49
   6   8    -0.01  -0.10   0.03    -0.01   0.02  -0.03    -0.10   0.15  -0.14
   7   8     0.07   0.12   0.02    -0.02  -0.06  -0.02    -0.07  -0.00  -0.07
   8  17    -0.00  -0.00  -0.00    -0.00   0.00  -0.00    -0.00  -0.00  -0.00
   9   1    -0.02  -0.05   0.12    -0.01  -0.07   0.09    -0.02   0.03   0.01
  10   1     0.02   0.17  -0.08     0.03   0.14  -0.07    -0.03   0.06  -0.01
  11   1     0.03  -0.05   0.11     0.04   0.01   0.05    -0.01  -0.03   0.01
  12   1    -0.05   0.07  -0.14     0.00  -0.01  -0.01    -0.01   0.03  -0.04
  13   1     0.21  -0.11   0.06    -0.03  -0.20   0.12     0.00  -0.04   0.01
  14   1    -0.26  -0.12   0.03    -0.47   0.09   0.16     0.01  -0.01  -0.02
  15   1     0.02   0.01   0.04     0.51  -0.04  -0.13    -0.16   0.03   0.06
  16   1     0.25  -0.40  -0.01    -0.23   0.38  -0.02     0.02  -0.03  -0.00
  17   1    -0.25   0.29   0.02     0.05  -0.00  -0.07    -0.18   0.38  -0.07
  18   1     0.19   0.09   0.14    -0.04  -0.02  -0.04    -0.35  -0.18  -0.27
                     28                     29                     30
                        a                      a                      a 
 Frequencies --  1250.1419              1317.5551              1328.0593
 Red. masses --     2.6076                 4.2657                 4.4703
 Frc consts  --     0.0000                 0.0000                 0.0000
 IR Inten    --    15.6246                28.2140                51.1678
 Raman Activ --     0.0000                 0.0000                 0.0000
 Depolar     --     0.0000                 0.0000                 0.0000
 Atom AN      X      Y      Z        X      Y      Z        X      Y      Z
   1   7     0.10  -0.17  -0.17     0.05  -0.08   0.05    -0.06   0.08  -0.07
   2   6    -0.12   0.12   0.04    -0.17  -0.20   0.09     0.17   0.22  -0.06
   3   6     0.06   0.07   0.15    -0.09  -0.01   0.06     0.17  -0.15   0.05
   4   6    -0.02  -0.02  -0.02    -0.19   0.34  -0.08    -0.23   0.30  -0.06
   5   6    -0.02   0.01  -0.05     0.14  -0.07   0.08     0.10  -0.06   0.02
   6   8     0.01  -0.00   0.01    -0.02   0.03  -0.02    -0.01   0.03  -0.01
   7   8    -0.00  -0.01   0.00    -0.04  -0.04  -0.01    -0.03  -0.02  -0.00
   8  17     0.00  -0.00  -0.00     0.00  -0.00   0.00    -0.00   0.00  -0.00
   9   1    -0.06   0.09   0.09    -0.05   0.14  -0.06     0.05  -0.13   0.07
  10   1    -0.07   0.17  -0.07    -0.02   0.08  -0.01     0.02  -0.07   0.00
  11   1     0.02  -0.13   0.15     0.05   0.05  -0.07    -0.04  -0.05   0.07
  12   1     0.27   0.43  -0.26     0.23   0.26  -0.10    -0.26  -0.31   0.16
  13   1    -0.28  -0.45   0.20     0.22   0.22  -0.11    -0.19  -0.26   0.13
  14   1     0.15   0.07  -0.01    -0.05   0.04   0.02    -0.21   0.08   0.08
  15   1    -0.21   0.03   0.05     0.36  -0.07  -0.12    -0.11  -0.06  -0.03
  16   1    -0.01   0.01   0.03     0.21  -0.32  -0.04     0.17  -0.26   0.02
  17   1     0.11  -0.15  -0.00     0.24  -0.25  -0.04     0.25  -0.31  -0.02
  18   1     0.01   0.00   0.01    -0.07  -0.03  -0.05    -0.05  -0.02  -0.03
                     31                     32                     33
                        a                      a                      a 
 Frequencies --  1347.8833              1376.5186              1400.5872
 Red. masses --     4.5707                 2.5305                 1.5964
 Frc consts  --     0.0000                 0.0000                 0.0000
 IR Inten    --    19.5848                98.8813                53.1957
 Raman Activ --     0.0000                 0.0000                 0.0000
 Depolar     --     0.0000                 0.0000                 0.0000
 Atom AN      X      Y      Z        X      Y      Z        X      Y      Z
   1   7     0.05  -0.06   0.03    -0.13  -0.27   0.07    -0.12  -0.02   0.16
   2   6    -0.20  -0.06   0.10     0.12   0.07  -0.06    -0.03   0.03   0.04
   3   6     0.47  -0.03  -0.16    -0.03  -0.03   0.02     0.04  -0.02  -0.01
   4   6    -0.09  -0.06   0.01     0.01  -0.00   0.01    -0.01  -0.00   0.01
   5   6    -0.04   0.03  -0.06     0.00   0.03  -0.00     0.00   0.00   0.00
   6   8     0.01  -0.01   0.02    -0.01  -0.01  -0.01    -0.00  -0.00  -0.00
   7   8     0.00  -0.01   0.01    -0.00  -0.02   0.00     0.00   0.00   0.00
   8  17     0.00  -0.00   0.00     0.00  -0.01   0.00    -0.00   0.00   0.01
   9   1    -0.06   0.14   0.01    -0.26   0.49  -0.13     0.15  -0.16  -0.69
  10   1    -0.06   0.04   0.01     0.17   0.19  -0.07     0.53   0.27  -0.11
  11   1     0.06   0.07  -0.05     0.43   0.48  -0.06    -0.15  -0.16   0.04
  12   1     0.01   0.09  -0.08    -0.12  -0.15   0.06    -0.00   0.05  -0.05
  13   1     0.20   0.19  -0.09    -0.14  -0.07   0.05    -0.02  -0.03   0.02
  14   1    -0.52   0.08   0.16     0.06   0.00  -0.02    -0.04   0.03   0.01
  15   1    -0.42   0.08   0.15     0.01  -0.01   0.01    -0.04   0.01   0.03
  16   1    -0.08   0.10   0.05     0.01  -0.02   0.00    -0.01   0.00  -0.01
  17   1     0.08  -0.08  -0.02    -0.01   0.01   0.00     0.02  -0.00  -0.01
  18   1     0.02   0.01   0.02     0.01   0.01   0.01    -0.00   0.00   0.01
                     34                     35                     36
                        a                      a                      a 
 Frequencies --  1439.4321              1465.5662              1483.8140
 Red. masses --     1.9133                 2.0588                 1.8406
 Frc consts  --     0.0000                 0.0000                 0.0000
 IR Inten    --    82.1812                 6.1242                 3.7406
 Raman Activ --     0.0000                 0.0000                 0.0000
 Depolar     --     0.0000                 0.0000                 0.0000
 Atom AN      X      Y      Z        X      Y      Z        X      Y      Z
   1   7     0.12  -0.11   0.17     0.01  -0.00   0.01     0.00  -0.01   0.02
   2   6     0.11   0.04   0.01     0.07  -0.05   0.05    -0.19   0.10  -0.13
   3   6    -0.01   0.01   0.02     0.00  -0.01  -0.01    -0.01  -0.04  -0.03
   4   6     0.00  -0.00   0.03     0.07   0.10  -0.26     0.04   0.01  -0.08
   5   6    -0.03   0.00  -0.04     0.04  -0.01   0.02     0.01   0.01  -0.01
   6   8     0.01  -0.00   0.02    -0.01   0.00  -0.00    -0.00  -0.00   0.00
   7   8     0.01   0.00   0.01    -0.01  -0.02  -0.00    -0.00  -0.01   0.00
   8  17    -0.00  -0.00   0.00    -0.00  -0.00   0.00     0.00   0.00   0.00
   9   1     0.05  -0.07  -0.05     0.01  -0.01  -0.01    -0.00   0.01  -0.03
  10   1    -0.40   0.48  -0.03    -0.01   0.02   0.00    -0.04   0.09  -0.01
  11   1    -0.24  -0.00  -0.65    -0.02  -0.01  -0.03    -0.02   0.03  -0.10
  12   1    -0.08  -0.07  -0.03    -0.09   0.00  -0.21     0.26  -0.02   0.57
  13   1    -0.11  -0.02   0.05    -0.15   0.16   0.02     0.45  -0.43  -0.05
  14   1    -0.01  -0.05   0.01    -0.01   0.02  -0.00     0.02   0.12  -0.03
  15   1    -0.02  -0.02  -0.04     0.04   0.01   0.01     0.03   0.05   0.11
  16   1    -0.01  -0.01  -0.05     0.13   0.08   0.61     0.03   0.03   0.20
  17   1     0.04   0.01  -0.02    -0.47  -0.31   0.29    -0.17  -0.09   0.10
  18   1     0.01   0.00  -0.00    -0.01  -0.01  -0.01     0.00   0.00   0.00
                     37                     38                     39
                        a                      a                      a 
 Frequencies --  1489.2820              1704.9484              2891.5102
 Red. masses --     1.9143                13.0358                 2.0733
 Frc consts  --     0.0000                 0.0000                 0.0000
 IR Inten    --     7.2739               490.0207               244.0246
 Raman Activ --     0.0000                 0.0000                 0.0000
 Depolar     --     0.0000                 0.0000                 0.0000
 Atom AN      X      Y      Z        X      Y      Z        X      Y      Z
   1   7     0.02   0.01   0.00    -0.02   0.02   0.01    -0.27  -0.09  -0.03
   2   6     0.04  -0.03   0.01     0.00   0.01  -0.00     0.00  -0.01   0.00
   3   6    -0.07  -0.24  -0.11     0.00  -0.01  -0.00     0.00   0.01   0.00
   4   6    -0.01  -0.02   0.02    -0.01  -0.07   0.03     0.00   0.00  -0.00
   5   6    -0.02  -0.01  -0.02     0.36   0.70   0.07    -0.01  -0.02   0.00
   6   8     0.01   0.00   0.01    -0.07  -0.06  -0.05    -0.00  -0.00  -0.00
   7   8     0.01   0.01   0.00    -0.25  -0.51  -0.06     0.01   0.01   0.00
   8  17    -0.00  -0.00   0.00     0.01   0.00   0.00     0.01   0.01   0.00
   9   1     0.00  -0.01   0.02     0.02   0.00   0.01     0.85   0.41   0.12
  10   1    -0.05   0.00   0.01    -0.02   0.00   0.00    -0.02  -0.00   0.01
  11   1    -0.02  -0.01  -0.03    -0.01  -0.06  -0.00     0.08  -0.10  -0.04
  12   1    -0.06  -0.02  -0.09    -0.01  -0.00  -0.00    -0.01   0.01   0.01
  13   1    -0.09   0.08   0.01    -0.01   0.00   0.00     0.00  -0.00  -0.01
  14   1     0.06   0.66  -0.13     0.01   0.01  -0.00    -0.01  -0.00  -0.02
  15   1     0.21   0.25   0.56    -0.00   0.00   0.01     0.00  -0.01   0.01
  16   1    -0.01  -0.02  -0.06     0.03  -0.05   0.02    -0.01  -0.01   0.00
  17   1     0.05   0.02  -0.03    -0.00   0.05  -0.01     0.00   0.00   0.00
  18   1     0.00  -0.00  -0.00     0.09   0.05   0.07    -0.00   0.00  -0.00
                     40                     41                     42
                        a                      a                      a 
 Frequencies --  2939.7852              2956.7474              2964.2816
 Red. masses --     1.9153                 1.9010                 1.8488
 Frc consts  --     0.0000                 0.0000                 0.0000
 IR Inten    --     7.7319                 0.9217                 2.2471
 Raman Activ --     0.0000                 0.0000                 0.0000
 Depolar     --     0.0000                 0.0000                 0.0000
 Atom AN      X      Y      Z        X      Y      Z        X      Y      Z
   1   7    -0.00   0.00  -0.00    -0.00  -0.00  -0.00     0.00  -0.00  -0.00
   2   6    -0.01   0.00  -0.01    -0.08   0.17   0.20    -0.03   0.05   0.05
   3   6     0.04  -0.19   0.21    -0.03  -0.04  -0.05     0.03   0.05   0.08
   4   6     0.02   0.00  -0.01     0.02   0.01   0.00    -0.20  -0.13  -0.06
   5   6     0.00   0.00  -0.00     0.00   0.00   0.00    -0.01  -0.01  -0.00
   6   8    -0.00  -0.00  -0.00    -0.00  -0.00  -0.00     0.00   0.00  -0.00
   7   8     0.00   0.00  -0.00    -0.00  -0.00  -0.00     0.00   0.00   0.00
   8  17     0.00   0.00  -0.00     0.00   0.00   0.00    -0.00   0.00   0.00
   9   1     0.01   0.00   0.00     0.02   0.01   0.00     0.00   0.00  -0.00
  10   1     0.00   0.00   0.00     0.00   0.00   0.01     0.00   0.00   0.00
  11   1     0.00  -0.00  -0.00    -0.02   0.02   0.01    -0.01   0.01   0.00
  12   1     0.03  -0.04  -0.02     0.46  -0.50  -0.23     0.14  -0.15  -0.07
  13   1     0.02   0.02   0.07    -0.17  -0.10  -0.50    -0.03  -0.01  -0.08
  14   1    -0.14  -0.08  -0.40     0.09   0.03   0.28    -0.13  -0.05  -0.40
  15   1     0.00   0.77  -0.36    -0.00   0.13  -0.08     0.01  -0.15   0.09
  16   1    -0.07  -0.04   0.01    -0.05  -0.03   0.01     0.57   0.37  -0.15
  17   1     0.02   0.01   0.03    -0.01  -0.01  -0.03     0.14   0.11   0.37
  18   1    -0.00   0.00  -0.00     0.00  -0.00  -0.00     0.00  -0.00   0.00
                     43                     44                     45
                        a                      a                      a 
 Frequencies --  2972.8869              2984.8497              2990.7619
 Red. masses --     1.6575                 1.5604                 1.5891
 Frc consts  --     0.0000                 0.0000                 0.0000
 IR Inten    --    14.7323                 3.1976                10.5813
 Raman Activ --     0.0000                 0.0000                 0.0000
 Depolar     --     0.0000                 0.0000                 0.0000
 Atom AN      X      Y      Z        X      Y      Z        X      Y      Z
   1   7    -0.01  -0.00   0.00     0.00   0.00   0.00    -0.00   0.00   0.00
   2   6     0.05  -0.06  -0.03     0.15  -0.05   0.15     0.01   0.00   0.02
   3   6    -0.06  -0.12  -0.11     0.02   0.01   0.05     0.01   0.01   0.05
   4   6    -0.12  -0.08   0.00     0.01   0.01  -0.02     0.01   0.02   0.22
   5   6    -0.01  -0.01  -0.00     0.00  -0.00   0.00     0.00  -0.00   0.01
   6   8     0.00   0.00   0.00    -0.00  -0.00  -0.00    -0.00   0.00  -0.00
   7   8     0.00   0.00   0.00     0.00   0.00  -0.00    -0.00   0.00  -0.00
   8  17     0.00   0.00   0.00    -0.00   0.00  -0.00     0.00   0.00  -0.00
   9   1     0.02   0.01   0.00    -0.02  -0.01  -0.00     0.00   0.00   0.00
  10   1    -0.00  -0.00   0.00     0.00   0.00   0.02     0.00   0.00   0.00
  11   1     0.01  -0.01  -0.01     0.01  -0.01  -0.00     0.01  -0.01  -0.00
  12   1    -0.20   0.22   0.11    -0.31   0.36   0.20    -0.00   0.01   0.01
  13   1     0.00  -0.01  -0.02    -0.20  -0.18  -0.74    -0.03  -0.02  -0.09
  14   1     0.20   0.07   0.60    -0.06  -0.02  -0.18    -0.06  -0.02  -0.17
  15   1    -0.01   0.35  -0.19     0.00  -0.01   0.01     0.00  -0.01   0.01
  16   1     0.42   0.27  -0.11    -0.09  -0.06   0.02     0.33   0.21  -0.05
  17   1     0.02   0.02   0.09     0.04   0.03   0.07    -0.35  -0.27  -0.74
  18   1     0.00  -0.00   0.00    -0.00   0.00  -0.00     0.00  -0.00   0.00
                     46                     47                     48
                        a                      a                      a 
 Frequencies --  3141.9476              3265.1049              3487.0918
 Red. masses --     1.8067                 1.7373                 1.8535
 Frc consts  --     0.0000                 0.0000                 0.0000
 IR Inten    --   214.8259                27.0070               165.5465
 Raman Activ --     0.0000                 0.0000                 0.0000
 Depolar     --     0.0000                 0.0000                 0.0000
 Atom AN      X      Y      Z        X      Y      Z        X      Y      Z
   1   7    -0.14   0.18   0.09    -0.04  -0.04  -0.23    -0.00  -0.00  -0.00
   2   6    -0.01   0.01   0.00    -0.00   0.00  -0.01     0.00   0.00  -0.00
   3   6    -0.00   0.00  -0.00     0.00   0.00   0.00     0.00   0.00   0.00
   4   6    -0.00   0.00  -0.00    -0.00   0.00  -0.00     0.00  -0.00  -0.00
   5   6    -0.02  -0.03  -0.00     0.00  -0.00   0.00    -0.01   0.00  -0.01
   6   8     0.00   0.00   0.00    -0.00   0.00  -0.00    -0.04   0.21  -0.11
   7   8     0.01   0.02  -0.00    -0.00   0.00   0.00    -0.00  -0.00  -0.00
   8  17     0.00   0.00   0.00     0.00   0.00   0.00    -0.00  -0.00  -0.00
   9   1    -0.14  -0.05  -0.01    -0.03  -0.02  -0.02     0.00   0.00  -0.00
  10   1    -0.02  -0.00  -0.05     0.13   0.22   0.93     0.00   0.00  -0.00
  11   1     0.68  -0.61  -0.27     0.04  -0.05  -0.04    -0.00   0.00   0.00
  12   1     0.02  -0.03  -0.01     0.00  -0.00   0.00    -0.00   0.00   0.00
  13   1    -0.00  -0.00  -0.00     0.01   0.01   0.02     0.00   0.00   0.00
  14   1     0.00   0.00   0.00     0.00   0.00  -0.00    -0.00  -0.00  -0.00
  15   1    -0.00  -0.00   0.00    -0.00  -0.00   0.00    -0.00  -0.00   0.00
  16   1    -0.00  -0.00   0.00    -0.00  -0.00   0.00    -0.00  -0.00   0.00
  17   1     0.00   0.00   0.01    -0.00   0.00   0.00    -0.00   0.00   0.00
  18   1    -0.00  -0.00   0.00     0.00  -0.00   0.00     0.19  -0.83   0.47
