 Entering Gaussian System
 *********************************************
 Gaussian 98:
 frequency output generated by the xtb code
 *********************************************
                         Standard orientation:
 --------------------------------------------------------------------
  Center     Atomic     Atomic              Coordinates (Angstroms)
  Number     Number      Type              X           Y           Z
 --------------------------------------------------------------------
    1          7             0        1.432147   -0.519708   -0.100174
    2          6             0        0.685195    0.729397    0.218386
    3          6             0       -0.764048    0.614954   -0.235448
    4          9             0       -1.241813   -0.575443    0.115745
    5          1             0        1.476963   -0.676230   -1.117354
    6          1             0        0.948484   -1.330445    0.315069
    7          1             0        2.397569   -0.498452    0.262603
    8          1             0        1.182408    1.599804   -0.236507
    9          1             0        0.713929    0.882749    1.308196
   10          1             0       -0.859071    0.688152   -1.329358
   11          1             0       -1.415532    1.383318    0.211083
 --------------------------------------------------------------------
     1 basis functions        1 primitive gaussians
     1 alpha electrons        1 beta electrons

 Harmonic frequencies (cm**-1), IR intensities (km*mol⁻¹),
 Raman scattering activities (A**4/amu), Raman depolarization ratios,
 reduced masses (AMU), force constants (mDyne/A) and normal coordinates:
                      1                      2                      3
                        a                      a                      a 
 Frequencies --  -115.7610               158.2731               271.7842
 Red. masses --     8.3962                 6.1668                 8.6008
 Frc consts  --     0.0000                 0.0000                 0.0000
 IR Inten    --    15.7119                18.5329                20.6298
 Raman Activ --     0.0000                 0.0000                 0.0000
 Depolar     --     0.0000                 0.0000                 0.0000
 Atom AN      X      Y      Z        X      Y      Z        X      Y      Z
   1   7     0.24   0.12  -0.20    -0.32  -0.07   0.00     0.41   0.01   0.10
   2   6    -0.08  -0.15   0.18    -0.02   0.12  -0.09     0.10  -0.05  -0.28
   3   6     0.10  -0.16  -0.29    -0.05   0.07  -0.02    -0.12  -0.00   0.25
   4   9    -0.28   0.17   0.33     0.42  -0.08   0.09    -0.42  -0.01  -0.11
   5   1     0.25   0.24  -0.08     0.29   0.17  -0.01     0.40   0.05   0.03
   6   1     0.01  -0.06  -0.29    -0.41  -0.01  -0.35     0.01  -0.02  -0.14
   7   1    -0.00  -0.01   0.12    -0.22  -0.27   0.38     0.01   0.00   0.30
   8   1    -0.02   0.04   0.23     0.04   0.01  -0.02    -0.04  -0.04  -0.21
   9   1    -0.14  -0.20   0.08    -0.02   0.04  -0.02     0.12   0.11  -0.10
  10   1     0.13  -0.20  -0.10    -0.05   0.02  -0.00    -0.16   0.12   0.09
  11   1     0.03   0.05  -0.26    -0.04  -0.02   0.02     0.05  -0.01   0.23
                      4                      5                      6
                        a                      a                      a 
 Frequencies --   504.4666               820.1313               897.0248
 Red. masses --     9.6231                 3.1780                 8.4127
 Frc consts  --     0.0000                 0.0000                 0.0000
 IR Inten    --     1.4652                26.5087                26.3155
 Raman Activ --     0.0000                 0.0000                 0.0000
 Depolar     --     0.0000                 0.0000                 0.0000
 Atom AN      X      Y      Z        X      Y      Z        X      Y      Z
   1   7     0.21  -0.17   0.05     0.03   0.14  -0.01     0.38  -0.29  -0.08
   2   6    -0.31  -0.30  -0.12     0.18   0.12  -0.20     0.12   0.35   0.16
   3   6    -0.34   0.28  -0.14     0.10  -0.09  -0.12    -0.45   0.17  -0.02
   4   9     0.37   0.18   0.08    -0.14  -0.11   0.06    -0.03  -0.08   0.00
   5   1     0.13  -0.11   0.03    -0.01  -0.27   0.04    -0.03  -0.11  -0.02
   6   1     0.21  -0.11   0.06    -0.26   0.30   0.20    -0.11   0.07   0.02
   7   1     0.04   0.18   0.05    -0.01  -0.16   0.04     0.13  -0.36  -0.09
   8   1     0.01  -0.05   0.14     0.10   0.23   0.38     0.06   0.09   0.08
   9   1    -0.22  -0.23  -0.01    -0.22  -0.35   0.01     0.07   0.03   0.05
  10   1    -0.24   0.15  -0.02    -0.24   0.12   0.01     0.06  -0.10  -0.04
  11   1    -0.04   0.04   0.11     0.17  -0.05   0.22    -0.32  -0.00  -0.21
                      7                      8                      9
                        a                      a                      a 
 Frequencies --   903.5261              1006.8896              1046.1719
 Red. masses --     3.0716                 5.5090                 9.7903
 Frc consts  --     0.0000                 0.0000                 0.0000
 IR Inten    --    35.6644                49.8053                14.7688
 Raman Activ --     0.0000                 0.0000                 0.0000
 Depolar     --     0.0000                 0.0000                 0.0000
 Atom AN      X      Y      Z        X      Y      Z        X      Y      Z
   1   7    -0.08  -0.01  -0.24     0.25   0.08   0.00    -0.05   0.44   0.10
   2   6    -0.12  -0.01  -0.03    -0.37  -0.22   0.06     0.36  -0.55  -0.05
   3   6     0.06   0.06   0.28     0.09  -0.14   0.03    -0.32   0.14   0.01
   4   9     0.04   0.02  -0.06     0.14   0.22  -0.05     0.03  -0.04  -0.01
   5   1     0.30  -0.47   0.02    -0.14  -0.05   0.00    -0.11   0.07   0.03
   6   1    -0.04   0.14   0.20    -0.27   0.24   0.04    -0.16   0.21   0.05
   7   1    -0.14   0.26   0.23     0.10  -0.40  -0.07     0.00  -0.07   0.00
   8   1    -0.18   0.10   0.03    -0.50   0.06  -0.18     0.12  -0.17  -0.04
   9   1     0.19  -0.19   0.02     0.04   0.08  -0.01     0.16  -0.09  -0.02
  10   1     0.33  -0.14   0.03     0.02   0.02   0.01     0.06  -0.10  -0.03
  11   1    -0.14   0.05  -0.22     0.14   0.04   0.06    -0.14   0.08  -0.16
                     10                     11                     12
                        a                      a                      a 
 Frequencies --  1130.4047              1188.4426              1229.8037
 Red. masses --     6.6835                10.2007                 4.2387
 Frc consts  --     0.0000                 0.0000                 0.0000
 IR Inten    --     1.4283                56.6836                23.4715
 Raman Activ --     0.0000                 0.0000                 0.0000
 Depolar     --     0.0000                 0.0000                 0.0000
 Atom AN      X      Y      Z        X      Y      Z        X      Y      Z
   1   7    -0.05   0.03  -0.20     0.09   0.04  -0.11     0.03   0.00   0.11
   2   6     0.13  -0.02   0.45    -0.19  -0.04   0.14    -0.09  -0.06  -0.20
   3   6    -0.11  -0.12  -0.44     0.17   0.51  -0.12     0.21   0.22  -0.13
   4   9    -0.01   0.06   0.10    -0.13  -0.50   0.12    -0.11  -0.16   0.19
   5   1     0.15  -0.22  -0.00     0.01  -0.11  -0.01    -0.07   0.09   0.01
   6   1    -0.01   0.08   0.10    -0.05   0.08   0.02    -0.02  -0.02  -0.05
   7   1    -0.08   0.12   0.11    -0.00  -0.04   0.03     0.04  -0.04  -0.05
   8   1    -0.05  -0.09  -0.15     0.09  -0.16  -0.10    -0.10   0.05  -0.00
   9   1     0.33   0.17   0.08    -0.07   0.17   0.01     0.07  -0.13  -0.04
  10   1    -0.17   0.28  -0.07     0.00   0.07  -0.02     0.43   0.50  -0.03
  11   1    -0.02  -0.21   0.22     0.30   0.37  -0.08    -0.37  -0.35   0.05
                     13                     14                     15
                        a                      a                      a 
 Frequencies --  1238.1178              1313.1408              1346.1543
 Red. masses --     3.0782                 4.1315                 3.9871
 Frc consts  --     0.0000                 0.0000                 0.0000
 IR Inten    --    37.7838                28.0650                 4.1774
 Raman Activ --     0.0000                 0.0000                 0.0000
 Depolar     --     0.0000                 0.0000                 0.0000
 Atom AN      X      Y      Z        X      Y      Z        X      Y      Z
   1   7     0.10   0.10  -0.19     0.02   0.14   0.08     0.04   0.08   0.08
   2   6    -0.17  -0.06   0.05    -0.33   0.17  -0.08    -0.27   0.02   0.00
   3   6     0.11  -0.13   0.15    -0.18  -0.26  -0.01     0.36   0.21  -0.01
   4   9     0.00   0.15  -0.02     0.05   0.05   0.00    -0.05  -0.00  -0.04
   5   1     0.02  -0.17  -0.02    -0.00  -0.09   0.03    -0.04  -0.06   0.03
   6   1    -0.08   0.15   0.07     0.07  -0.06  -0.08    -0.02  -0.02  -0.09
   7   1    -0.01  -0.08   0.06     0.04  -0.17  -0.05     0.03  -0.07  -0.04
   8   1     0.46  -0.35  -0.06     0.42  -0.21   0.05     0.15  -0.13  -0.02
   9   1    -0.46   0.30  -0.02     0.42  -0.23   0.01     0.37  -0.21   0.02
  10   1     0.10   0.02   0.04     0.27   0.17  -0.01    -0.47  -0.36   0.01
  11   1    -0.22  -0.24   0.04     0.27   0.17   0.05    -0.28  -0.25  -0.02
                     16                     17                     18
                        a                      a                      a 
 Frequencies --  1392.1479              1422.0632              1429.7287
 Red. masses --     2.9574                 1.6586                 1.6538
 Frc consts  --     0.0000                 0.0000                 0.0000
 IR Inten    --   192.0467                88.6844                97.7092
 Raman Activ --     0.0000                 0.0000                 0.0000
 Depolar     --     0.0000                 0.0000                 0.0000
 Atom AN      X      Y      Z        X      Y      Z        X      Y      Z
   1   7     0.20  -0.30  -0.01     0.09  -0.00  -0.20    -0.17  -0.09  -0.07
   2   6    -0.12   0.01  -0.02    -0.03   0.00  -0.05    -0.08  -0.01  -0.02
   3   6    -0.01  -0.06   0.00     0.03  -0.01   0.01     0.03   0.04  -0.01
   4   9     0.01   0.02  -0.01    -0.00  -0.00   0.00    -0.00  -0.01  -0.00
   5   1    -0.20   0.36  -0.07    -0.44   0.21  -0.07     0.50   0.46  -0.05
   6   1    -0.47   0.31   0.08     0.32  -0.02   0.30     0.14   0.19   0.57
   7   1    -0.01   0.53   0.04    -0.23  -0.20   0.63     0.06  -0.22  -0.20
   8   1     0.15  -0.05   0.08     0.00   0.04   0.06     0.05  -0.03   0.02
   9   1     0.16   0.01  -0.01     0.09  -0.01  -0.01     0.06  -0.01  -0.01
  10   1     0.01   0.01   0.00    -0.04   0.04   0.01     0.01  -0.05  -0.00
  11   1     0.04   0.02   0.00    -0.02   0.01  -0.05    -0.00  -0.03   0.04
                     19                     20                     21
                        a                      a                      a 
 Frequencies --  1460.3649              1466.3274              2898.7678
 Red. masses --     1.9251                 1.9613                 1.9428
 Frc consts  --     0.0000                 0.0000                 0.0000
 IR Inten    --    15.6118                 8.6071                 2.5409
 Raman Activ --     0.0000                 0.0000                 0.0000
 Depolar     --     0.0000                 0.0000                 0.0000
 Atom AN      X      Y      Z        X      Y      Z        X      Y      Z
   1   7     0.00   0.01  -0.00     0.03  -0.02  -0.01    -0.00   0.00   0.00
   2   6    -0.07  -0.14  -0.09     0.09   0.18   0.09     0.00  -0.01   0.04
   3   6    -0.09   0.18  -0.11    -0.10   0.14  -0.09     0.11  -0.14  -0.23
   4   9    -0.01  -0.01  -0.00    -0.01  -0.01  -0.00     0.00  -0.00  -0.01
   5   1    -0.03  -0.06   0.00    -0.08   0.06  -0.01    -0.00   0.00   0.00
   6   1     0.03  -0.04  -0.05    -0.02   0.03   0.03    -0.00  -0.00   0.00
   7   1    -0.01  -0.02   0.02    -0.03   0.04   0.08    -0.00   0.00   0.00
   8   1     0.03   0.18   0.39    -0.06  -0.19  -0.47     0.01   0.02  -0.01
   9   1     0.16   0.39  -0.07    -0.21  -0.46   0.08    -0.00  -0.02  -0.15
  10   1     0.30  -0.42  -0.07     0.26  -0.33  -0.05     0.06  -0.05   0.52
  11   1     0.11  -0.17   0.47     0.10  -0.12   0.40    -0.46   0.55   0.31
                     22                     23                     24
                        a                      a                      a 
 Frequencies --  2919.5827              2931.6828              2948.0392
 Red. masses --     1.5831                 1.9228                 1.5362
 Frc consts  --     0.0000                 0.0000                 0.0000
 IR Inten    --    10.0791                 1.3719                 0.7476
 Raman Activ --     0.0000                 0.0000                 0.0000
 Depolar     --     0.0000                 0.0000                 0.0000
 Atom AN      X      Y      Z        X      Y      Z        X      Y      Z
   1   7    -0.00  -0.00   0.00    -0.00   0.00  -0.00    -0.00   0.00  -0.00
   2   6     0.03   0.04  -0.12    -0.08  -0.12   0.23     0.08   0.17   0.11
   3   6     0.10  -0.10   0.11     0.03  -0.04   0.10     0.00   0.01   0.04
   4   9    -0.00  -0.01   0.00    -0.00  -0.00   0.00    -0.00  -0.00   0.00
   5   1     0.00  -0.00  -0.01     0.00   0.00   0.01    -0.00   0.00   0.02
   6   1     0.00   0.01  -0.00    -0.01  -0.01   0.01     0.01   0.01  -0.01
   7   1     0.00   0.00   0.00     0.00   0.00  -0.00     0.01   0.00   0.00
   8   1    -0.12  -0.21   0.10     0.29   0.51  -0.26    -0.29  -0.52   0.30
   9   1     0.01   0.05   0.34    -0.02  -0.09  -0.54    -0.00  -0.08  -0.70
  10   1    -0.04   0.03  -0.68    -0.03   0.03  -0.42    -0.01   0.01  -0.11
  11   1    -0.31   0.38   0.25    -0.09   0.11   0.08     0.02  -0.02  -0.01
                     25                     26                     27
                        a                      a                      a 
 Frequencies --  3201.2639              3208.8105              3231.7879
 Red. masses --     2.0490                 1.9351                 1.3852
 Frc consts  --     0.0000                 0.0000                 0.0000
 IR Inten    --   120.3065                95.9335                40.8129
 Raman Activ --     0.0000                 0.0000                 0.0000
 Depolar     --     0.0000                 0.0000                 0.0000
 Atom AN      X      Y      Z        X      Y      Z        X      Y      Z
   1   7    -0.23  -0.15   0.06     0.11  -0.06   0.24     0.04  -0.10  -0.13
   2   6    -0.00  -0.01   0.00     0.00  -0.00   0.01     0.00  -0.01  -0.01
   3   6    -0.00   0.00  -0.00    -0.00   0.00  -0.00     0.00   0.00   0.00
   4   9     0.00  -0.00   0.00    -0.00  -0.00   0.00    -0.00  -0.00   0.00
   5   1    -0.02  -0.03  -0.13     0.03  -0.07  -0.48    -0.03   0.10   0.82
   6   1     0.35   0.59  -0.32     0.22   0.35  -0.16     0.20   0.31  -0.18
   7   1     0.53   0.01   0.22    -0.66  -0.03  -0.24    -0.32  -0.02  -0.14
   8   1     0.01   0.01  -0.01     0.00   0.01  -0.00     0.00   0.01  -0.00
   9   1     0.00   0.00  -0.00    -0.00  -0.00  -0.02    -0.00   0.00   0.02
  10   1     0.00  -0.00   0.00    -0.00  -0.00  -0.00     0.00  -0.00  -0.00
  11   1     0.00  -0.00  -0.00     0.00  -0.00  -0.00    -0.00   0.00   0.00
