22
 energy: -51.801504777503 gnorm: 0.000358471612 xtb: 6.5.1 (fef0646)
N            1.24349615922574       -0.41122754275346        0.13795590971867
C            2.68783178812134       -0.25548226422837        0.01701308563021
C            3.12313736341028        1.00592137062583        0.77873701014589
C            4.60913730086424        1.19080817212791        0.72114404255489
C            5.23183003663198        1.67461447303265       -0.42629797123686
F            4.48331441517885        1.99024858181553       -1.48651929906930
C            6.61048817811693        1.83965914908163       -0.50344629634400
F            7.17373779971901        2.30583242059675       -1.61866025901092
C            7.40540670225077        1.51170665896560        0.59145516209446
F            8.72764520331263        1.66331818992920        0.52958786650113
C            6.80999382134502        1.02075560675768        1.74885923963033
F            7.56202923266558        0.69852156283843        2.80239555820869
C            5.42836847383389        0.86411685668188        1.79672684591813
F            4.87452409688087        0.38301455325983        2.91632622101909
Cl          -0.08148388084877        2.12420924203437       -0.63514594261025
H            0.90463726531528       -1.16527783420699       -0.44821380155045
H            0.51298318439211        0.95257657830198       -0.30125976284686
H            0.97791308272246       -0.60015985101490        1.09906331816640
H            2.92375555241639       -0.14014792675292       -1.04270572098088
H            3.23995198178644       -1.12444081613900        0.40402002147370
H            2.80729143776323        0.92360228511159        1.81880591070808
H            2.62419080489610        1.86386053393486        0.32717886187818
