 Entering Gaussian System
 *********************************************
 Gaussian 98:
 frequency output generated by the xtb code
 *********************************************
                         Standard orientation:
 --------------------------------------------------------------------
  Center     Atomic     Atomic              Coordinates (Angstroms)
  Number     Number      Type              X           Y           Z
 --------------------------------------------------------------------
    1          7             0       -4.335326   -0.970318   -0.176783
    2          6             0       -3.488528    0.121859    0.392532
    3          6             0       -2.125700    0.228741   -0.285573
    4          6             0       -1.247782    1.349787    0.289522
    5          6             0        0.110886    1.461179   -0.379983
    6         53             0        1.332449   -0.226657    0.023176
    7          1             0       -4.503249   -0.813449   -1.174343
    8          1             0       -5.242695   -1.019392    0.294980
    9          1             0       -3.872540   -1.877410   -0.072123
   10          1             0       -3.355825   -0.047210    1.467512
   11          1             0       -4.022414    1.075292    0.305042
   12          1             0       -2.265203    0.387620   -1.360233
   13          1             0       -1.603655   -0.730532   -0.202413
   14          1             0       -1.112859    1.192548    1.368162
   15          1             0       -1.784107    2.304930    0.201542
   16          1             0        0.673952    2.326107   -0.022776
   17          1             0        0.019673    1.548747   -1.463743
 --------------------------------------------------------------------
     1 basis functions        1 primitive gaussians
     1 alpha electrons        1 beta electrons

 Harmonic frequencies (cm**-1), IR intensities (km*mol⁻¹),
 Raman scattering activities (A**4/amu), Raman depolarization ratios,
 reduced masses (AMU), force constants (mDyne/A) and normal coordinates:
                      1                      2                      3
                        a                      a                      a 
 Frequencies --  -139.0105                27.1692                80.0124
 Red. masses --     3.0591                28.6062                11.0668
 Frc consts  --     0.0000                 0.0000                 0.0000
 IR Inten    --     0.4281                23.5766                 2.3860
 Raman Activ --     0.0000                 0.0000                 0.0000
 Depolar     --     0.0000                 0.0000                 0.0000
 Atom AN      X      Y      Z        X      Y      Z        X      Y      Z
   1   7     0.03  -0.05   0.03    -0.48   0.30  -0.12     0.13  -0.01  -0.01
   2   6    -0.08   0.11  -0.11    -0.11  -0.11   0.14     0.27  -0.27   0.27
   3   6     0.04  -0.07   0.12    -0.16  -0.18   0.03    -0.04   0.25  -0.27
   4   6    -0.01  -0.03   0.11    -0.07  -0.24  -0.00     0.07   0.07  -0.10
   5   6    -0.01   0.03   0.12    -0.15  -0.19  -0.16     0.05   0.03  -0.15
   6  53     0.01   0.00  -0.09     0.38   0.14   0.05    -0.18  -0.02   0.10
   7   1     0.44  -0.31  -0.11    -0.04   0.13  -0.04     0.25  -0.03  -0.04
   8   1    -0.19   0.31  -0.34    -0.16   0.19  -0.09    -0.06   0.15  -0.17
   9   1    -0.20  -0.06   0.49    -0.25   0.02  -0.02    -0.12  -0.06   0.13
  10   1    -0.10   0.12  -0.01    -0.02  -0.13   0.02     0.21  -0.25   0.04
  11   1    -0.01   0.03  -0.15     0.03   0.01   0.13     0.05  -0.07   0.29
  12   1     0.06  -0.06   0.02    -0.07  -0.03   0.01    -0.16   0.23  -0.04
  13   1    -0.00  -0.02   0.09    -0.06  -0.06  -0.02     0.04   0.08  -0.29
  14   1    -0.01   0.00   0.03     0.02  -0.09  -0.01     0.04  -0.05  -0.04
  15   1    -0.01  -0.01   0.02    -0.02  -0.07   0.04     0.04   0.04   0.04
  16   1    -0.00   0.00   0.06    -0.06  -0.02  -0.10     0.03   0.01  -0.06
  17   1    -0.00   0.03   0.04    -0.08  -0.11  -0.05     0.01  -0.01  -0.05
                      4                      5                      6
                        a                      a                      a 
 Frequencies --   127.0476               191.1214               248.2787
 Red. masses --    16.9319                10.7025                19.0775
 Frc consts  --     0.0000                 0.0000                 0.0000
 IR Inten    --     8.9076                12.7282                 0.6821
 Raman Activ --     0.0000                 0.0000                 0.0000
 Depolar     --     0.0000                 0.0000                 0.0000
 Atom AN      X      Y      Z        X      Y      Z        X      Y      Z
   1   7    -0.11  -0.16   0.28    -0.25   0.12   0.23    -0.10  -0.08  -0.06
   2   6    -0.19   0.15  -0.19     0.29  -0.11  -0.12    -0.17  -0.12   0.17
   3   6    -0.30   0.28  -0.41     0.22  -0.30  -0.27    -0.20   0.11   0.09
   4   6    -0.08  -0.12   0.05    -0.03  -0.12  -0.19    -0.29   0.40  -0.29
   5   6    -0.04  -0.04   0.15     0.16   0.19   0.29     0.02   0.10   0.23
   6  53     0.27  -0.03   0.02    -0.12   0.06  -0.01     0.26  -0.16  -0.05
   7   1    -0.10  -0.14   0.07    -0.14   0.01   0.07     0.03   0.01  -0.02
   8   1    -0.00  -0.05   0.13    -0.03   0.16   0.15    -0.05  -0.03  -0.06
   9   1     0.02  -0.01   0.13    -0.17  -0.02   0.06    -0.04  -0.03  -0.02
  10   1     0.01   0.12  -0.05     0.13  -0.02  -0.04    -0.04  -0.09   0.04
  11   1    -0.11   0.01  -0.08     0.14   0.00  -0.01    -0.07  -0.04   0.11
  12   1    -0.13   0.23  -0.09     0.06  -0.12  -0.08    -0.09  -0.06   0.02
  13   1    -0.12   0.05  -0.27     0.08  -0.07  -0.05     0.01   0.07   0.08
  14   1    -0.04  -0.17  -0.00    -0.09  -0.02  -0.04    -0.21   0.29  -0.04
  15   1     0.02   0.00   0.13    -0.05  -0.06  -0.11    -0.05   0.11  -0.31
  16   1    -0.03  -0.02   0.08     0.01   0.02   0.24     0.00  -0.01   0.17
  17   1     0.01   0.03   0.04     0.15   0.19   0.08     0.11   0.10   0.06
                      7                      8                      9
                        a                      a                      a 
 Frequencies --   381.7529               425.9874               597.7625
 Red. masses --     9.6016                10.7422                19.0016
 Frc consts  --     0.0000                 0.0000                 0.0000
 IR Inten    --     8.0627                 1.3575                22.7085
 Raman Activ --     0.0000                 0.0000                 0.0000
 Depolar     --     0.0000                 0.0000                 0.0000
 Atom AN      X      Y      Z        X      Y      Z        X      Y      Z
   1   7     0.46   0.26  -0.00     0.07   0.10   0.05     0.01   0.02   0.01
   2   6     0.05   0.25   0.22     0.30  -0.02  -0.18    -0.01   0.01   0.01
   3   6    -0.18  -0.22  -0.13     0.21   0.08  -0.11    -0.02  -0.07  -0.01
   4   6    -0.24  -0.29  -0.18    -0.36   0.23   0.23    -0.14   0.04  -0.00
   5   6    -0.16  -0.11   0.13    -0.48  -0.17   0.08    -0.27   0.72  -0.29
   6  53     0.00   0.02  -0.01     0.09  -0.08  -0.02     0.14  -0.24   0.07
   7   1     0.22   0.12  -0.01    -0.04   0.00   0.02     0.01   0.01   0.00
   8   1     0.08  -0.07  -0.10     0.05   0.11   0.07    -0.00  -0.01  -0.01
   9   1     0.22   0.12  -0.01    -0.04  -0.00   0.02     0.02   0.01  -0.00
  10   1     0.04   0.08   0.06     0.12   0.00  -0.05    -0.01   0.01   0.01
  11   1     0.03   0.08   0.06     0.11   0.01  -0.04     0.00   0.01  -0.00
  12   1    -0.10  -0.09  -0.04     0.11   0.04  -0.03    -0.00  -0.06  -0.01
  13   1    -0.09  -0.09  -0.03     0.13   0.06  -0.01     0.01  -0.01   0.03
  14   1    -0.12  -0.08  -0.04    -0.17   0.12   0.08     0.12  -0.14  -0.04
  15   1    -0.08  -0.09  -0.08    -0.10   0.06  -0.03    -0.17  -0.04   0.24
  16   1    -0.10  -0.03   0.12    -0.08  -0.01  -0.15    -0.07   0.17  -0.01
  17   1     0.02   0.03   0.04    -0.25  -0.19   0.02    -0.05   0.22  -0.08
                     10                     11                     12
                        a                      a                      a 
 Frequencies --   775.3818               811.3085               836.6428
 Red. masses --     2.1011                 3.4841                 3.6226
 Frc consts  --     0.0000                 0.0000                 0.0000
 IR Inten    --    24.5832                 9.8609                12.9154
 Raman Activ --     0.0000                 0.0000                 0.0000
 Depolar     --     0.0000                 0.0000                 0.0000
 Atom AN      X      Y      Z        X      Y      Z        X      Y      Z
   1   7    -0.00  -0.02   0.02     0.10  -0.06   0.04     0.03   0.09  -0.12
   2   6     0.03  -0.08   0.11     0.12  -0.11   0.04     0.04   0.02  -0.10
   3   6     0.06  -0.17   0.08    -0.02   0.17   0.09     0.06   0.02   0.27
   4   6     0.05  -0.05   0.06    -0.08   0.05  -0.13     0.01  -0.10  -0.02
   5   6     0.03   0.15   0.02    -0.15  -0.25  -0.14    -0.21  -0.12  -0.21
   6  53     0.00  -0.02  -0.00     0.00   0.03   0.01     0.01   0.00   0.02
   7   1     0.06   0.18   0.02     0.05   0.26   0.05    -0.20  -0.33  -0.05
   8   1    -0.03   0.00  -0.05     0.01   0.17   0.01     0.11   0.07   0.17
   9   1    -0.09  -0.06  -0.13    -0.25  -0.18  -0.19     0.12   0.11   0.20
  10   1    -0.24   0.28   0.11    -0.09   0.24   0.07    -0.07  -0.19  -0.05
  11   1     0.08  -0.01  -0.37    -0.03  -0.09  -0.29     0.10   0.07   0.10
  12   1    -0.21   0.36   0.11    -0.05  -0.06   0.01    -0.04   0.27   0.12
  13   1     0.01  -0.09  -0.44     0.12   0.12   0.09    -0.02  -0.04  -0.19
  14   1    -0.05   0.23   0.06     0.12  -0.18  -0.08     0.10   0.18   0.01
  15   1    -0.08  -0.08  -0.23     0.05   0.08   0.21    -0.04  -0.06  -0.14
  16   1     0.00   0.09  -0.10    -0.06  -0.20   0.31    -0.09  -0.16   0.32
  17   1    -0.06  -0.07   0.00     0.17   0.26  -0.02     0.11   0.33  -0.04
                     13                     14                     15
                        a                      a                      a 
 Frequencies --   892.9732               920.5494               979.9019
 Red. masses --     4.8775                 3.3812                10.4883
 Frc consts  --     0.0000                 0.0000                 0.0000
 IR Inten    --    57.9960                 8.2867                 5.3350
 Raman Activ --     0.0000                 0.0000                 0.0000
 Depolar     --     0.0000                 0.0000                 0.0000
 Atom AN      X      Y      Z        X      Y      Z        X      Y      Z
   1   7     0.36   0.06  -0.09     0.00  -0.15   0.11     0.20   0.37   0.27
   2   6     0.01  -0.08  -0.12    -0.05   0.15  -0.09    -0.30  -0.45  -0.31
   3   6    -0.28   0.05   0.14     0.03   0.10  -0.04    -0.13  -0.16  -0.05
   4   6     0.00  -0.13  -0.03     0.16  -0.20   0.13    -0.09   0.16   0.21
   5   6     0.10   0.14   0.08    -0.15   0.05  -0.12     0.16  -0.05  -0.15
   6  53    -0.00  -0.01  -0.01     0.01  -0.01   0.02    -0.00   0.02   0.00
   7   1    -0.22  -0.06   0.02     0.14   0.26   0.05     0.16   0.16   0.06
   8   1     0.24   0.48   0.29    -0.07   0.00  -0.11     0.01  -0.00  -0.02
   9   1    -0.27  -0.17  -0.01    -0.16  -0.14  -0.17     0.12   0.12   0.03
  10   1    -0.01  -0.07  -0.04     0.31   0.01  -0.07     0.01  -0.08  -0.09
  11   1    -0.13  -0.09   0.00    -0.24  -0.07   0.17    -0.05  -0.10  -0.04
  12   1    -0.08  -0.05   0.03     0.31   0.10  -0.04     0.07   0.03  -0.02
  13   1    -0.17  -0.04   0.09    -0.23  -0.10   0.08    -0.01  -0.03  -0.04
  14   1    -0.06   0.01   0.01    -0.02   0.28   0.09     0.02   0.08   0.05
  15   1     0.00  -0.04  -0.07     0.00  -0.10  -0.30    -0.05   0.03   0.04
  16   1    -0.02   0.13  -0.14    -0.07  -0.03   0.11     0.15  -0.11   0.03
  17   1    -0.04  -0.15   0.01    -0.07   0.18  -0.01     0.06   0.10  -0.03
                     16                     17                     18
                        a                      a                      a 
 Frequencies --  1028.3129              1058.0708              1100.8236
 Red. masses --     8.5641                 4.2593                 8.6847
 Frc consts  --     0.0000                 0.0000                 0.0000
 IR Inten    --     9.3675                 3.6949                20.6824
 Raman Activ --     0.0000                 0.0000                 0.0000
 Depolar     --     0.0000                 0.0000                 0.0000
 Atom AN      X      Y      Z        X      Y      Z        X      Y      Z
   1   7     0.03   0.20   0.13    -0.02  -0.03   0.07     0.14  -0.02  -0.02
   2   6    -0.21  -0.30  -0.08    -0.01   0.07  -0.13    -0.34   0.10   0.13
   3   6     0.20   0.30   0.07     0.15   0.08   0.25     0.26  -0.28  -0.21
   4   6     0.24  -0.27  -0.29    -0.32  -0.04  -0.17     0.27   0.34  -0.13
   5   6    -0.27   0.09   0.19     0.15  -0.05   0.07    -0.29  -0.08   0.20
   6  53    -0.00  -0.02  -0.00    -0.01   0.01  -0.03     0.00   0.01  -0.00
   7   1     0.07   0.04   0.02     0.06   0.08   0.02    -0.06   0.01   0.01
   8   1    -0.02  -0.05  -0.02    -0.04  -0.03  -0.05     0.07   0.14   0.07
   9   1     0.10   0.10   0.05    -0.02  -0.02  -0.04    -0.11  -0.08  -0.01
  10   1    -0.14  -0.04  -0.01     0.12  -0.04  -0.06    -0.09  -0.06   0.02
  11   1    -0.03  -0.07  -0.06    -0.07  -0.01   0.09    -0.19  -0.02   0.13
  12   1     0.06   0.01   0.01     0.17   0.26   0.09     0.02   0.02  -0.04
  13   1     0.17   0.14   0.06    -0.05  -0.04  -0.07    -0.08  -0.16  -0.17
  14   1    -0.00  -0.06  -0.07     0.22  -0.04  -0.08     0.28   0.02  -0.07
  15   1     0.20  -0.00  -0.12    -0.34  -0.13   0.17    -0.07   0.02   0.14
  16   1    -0.30   0.19   0.00    -0.15   0.13  -0.04     0.03  -0.08   0.03
  17   1    -0.07  -0.12   0.04     0.43  -0.33  -0.04    -0.00  -0.07   0.05
                     19                     20                     21
                        a                      a                      a 
 Frequencies --  1102.7395              1174.2751              1198.8266
 Red. masses --     7.7298                 5.0858                 3.9428
 Frc consts  --     0.0000                 0.0000                 0.0000
 IR Inten    --     7.3979                 3.7996                 5.1831
 Raman Activ --     0.0000                 0.0000                 0.0000
 Depolar     --     0.0000                 0.0000                 0.0000
 Atom AN      X      Y      Z        X      Y      Z        X      Y      Z
   1   7     0.08   0.01  -0.05    -0.02   0.09  -0.15    -0.11   0.15  -0.11
   2   6    -0.30   0.03   0.25     0.01  -0.14   0.30     0.19  -0.23   0.12
   3   6     0.45   0.18  -0.14    -0.07   0.01  -0.33    -0.05   0.19   0.03
   4   6    -0.28  -0.20   0.06     0.01   0.01   0.30     0.07  -0.04  -0.18
   5   6     0.21  -0.01  -0.16     0.01  -0.02  -0.12    -0.10   0.02   0.14
   6  53    -0.00   0.01   0.01    -0.01  -0.01  -0.01     0.01   0.01   0.00
   7   1    -0.08  -0.04  -0.00    -0.10  -0.15  -0.05    -0.04  -0.15  -0.05
   8   1     0.06   0.10   0.07     0.05   0.02   0.07     0.00  -0.08   0.02
   9   1    -0.06  -0.03   0.02     0.05   0.06   0.09     0.12   0.12   0.10
  10   1    -0.22  -0.02   0.08    -0.02   0.20   0.12     0.15   0.25   0.07
  11   1    -0.18  -0.04   0.06    -0.06  -0.09  -0.14    -0.19  -0.21  -0.18
  12   1     0.14   0.03  -0.04     0.18  -0.10  -0.12     0.12   0.02  -0.01
  13   1     0.17   0.08  -0.00    -0.03   0.01   0.11    -0.24  -0.07   0.10
  14   1    -0.29  -0.11   0.03     0.13   0.22   0.09     0.16   0.02  -0.06
  15   1    -0.17  -0.11  -0.05     0.02   0.00  -0.06    -0.31  -0.19   0.02
  16   1     0.19  -0.09  -0.04    -0.34   0.17   0.10     0.38  -0.22  -0.07
  17   1    -0.07   0.12  -0.03     0.41  -0.15  -0.07    -0.16   0.01   0.05
                     22                     23                     24
                        a                      a                      a 
 Frequencies --  1248.3279              1265.5884              1277.2231
 Red. masses --     2.9201                 2.2234                 2.8564
 Frc consts  --     0.0000                 0.0000                 0.0000
 IR Inten    --    30.2020                 3.7846                26.7171
 Raman Activ --     0.0000                 0.0000                 0.0000
 Depolar     --     0.0000                 0.0000                 0.0000
 Atom AN      X      Y      Z        X      Y      Z        X      Y      Z
   1   7    -0.05   0.09  -0.12     0.00  -0.00   0.02     0.01  -0.03  -0.08
   2   6    -0.03   0.01   0.02     0.08  -0.10   0.09    -0.12  -0.04   0.10
   3   6     0.10  -0.21   0.16     0.02   0.04  -0.02    -0.06  -0.14   0.07
   4   6    -0.09   0.11  -0.06    -0.07   0.17  -0.12    -0.12  -0.10  -0.07
   5   6     0.18  -0.09  -0.04     0.15  -0.10  -0.01    -0.20   0.19   0.01
   6  53    -0.00  -0.01   0.01     0.00  -0.01   0.01    -0.00   0.01  -0.00
   7   1    -0.04  -0.09  -0.04     0.01   0.00   0.01    -0.02   0.00  -0.01
   8   1     0.02  -0.01   0.04    -0.00  -0.02   0.00     0.04   0.06   0.06
   9   1     0.05   0.07   0.07    -0.00  -0.01  -0.00     0.01   0.00   0.04
  10   1     0.43   0.26  -0.01    -0.27  -0.08   0.05     0.19   0.13   0.02
  11   1    -0.41  -0.22   0.00     0.21   0.07  -0.07     0.13   0.07  -0.02
  12   1    -0.07   0.10   0.08     0.40   0.19  -0.03     0.36   0.26   0.02
  13   1     0.11  -0.02  -0.15    -0.50  -0.27   0.04     0.04  -0.01  -0.04
  14   1    -0.11  -0.13  -0.02    -0.13  -0.17  -0.05    -0.12  -0.11  -0.02
  15   1     0.18   0.14   0.07     0.08   0.11   0.10     0.46   0.25  -0.02
  16   1    -0.28   0.19   0.00    -0.24   0.16  -0.01     0.34  -0.19  -0.04
  17   1    -0.23   0.17   0.02    -0.22   0.17   0.03     0.25  -0.17  -0.04
                     25                     26                     27
                        a                      a                      a 
 Frequencies --  1286.1005              1336.3651              1364.8705
 Red. masses --     3.0539                 3.6831                 4.1985
 Frc consts  --     0.0000                 0.0000                 0.0000
 IR Inten    --    19.1162                16.6308                93.9357
 Raman Activ --     0.0000                 0.0000                 0.0000
 Depolar     --     0.0000                 0.0000                 0.0000
 Atom AN      X      Y      Z        X      Y      Z        X      Y      Z
   1   7    -0.03   0.10   0.08    -0.03  -0.14  -0.12    -0.14  -0.13  -0.04
   2   6     0.21   0.02  -0.10    -0.29  -0.15   0.01     0.12   0.07   0.00
   3   6     0.19   0.03   0.07     0.17   0.15   0.07    -0.28  -0.15   0.02
   4   6     0.10   0.08   0.09     0.16   0.09   0.03     0.32   0.14  -0.03
   5   6    -0.17   0.08  -0.10    -0.04  -0.02  -0.06    -0.06  -0.03  -0.02
   6  53     0.00   0.00  -0.01     0.00  -0.00  -0.00    -0.00   0.00  -0.00
   7   1     0.01  -0.06  -0.00     0.04   0.16   0.00     0.20   0.16  -0.01
   8   1    -0.05  -0.12  -0.07     0.06   0.16   0.11     0.07   0.24   0.18
   9   1    -0.01   0.02  -0.03     0.11   0.05   0.12     0.23   0.12   0.03
  10   1    -0.17  -0.11  -0.01     0.39   0.22  -0.02    -0.14  -0.06   0.01
  11   1    -0.32  -0.20  -0.00     0.38   0.21  -0.01    -0.14  -0.07   0.02
  12   1    -0.26  -0.10   0.04    -0.21  -0.16   0.01     0.27   0.18   0.00
  13   1    -0.32  -0.20  -0.03    -0.21  -0.11  -0.04     0.26   0.15   0.02
  14   1    -0.41  -0.20   0.05    -0.27  -0.13   0.03    -0.34  -0.16   0.02
  15   1     0.10   0.06  -0.02    -0.19  -0.10  -0.00    -0.27  -0.15   0.02
  16   1     0.05  -0.08   0.07    -0.07   0.00   0.07    -0.05   0.00   0.03
  17   1     0.34  -0.17  -0.07     0.08  -0.04  -0.02     0.06  -0.02  -0.01
                     28                     29                     30
                        a                      a                      a 
 Frequencies --  1371.7815              1418.8679              1423.9389
 Red. masses --     3.3745                 1.6179                 1.6788
 Frc consts  --     0.0000                 0.0000                 0.0000
 IR Inten    --   124.4283                86.2365                73.5889
 Raman Activ --     0.0000                 0.0000                 0.0000
 Depolar     --     0.0000                 0.0000                 0.0000
 Atom AN      X      Y      Z        X      Y      Z        X      Y      Z
   1   7     0.20   0.21   0.08     0.09  -0.13   0.14     0.14  -0.06  -0.14
   2   6    -0.10  -0.01   0.04     0.01  -0.02   0.02     0.07   0.01  -0.03
   3   6    -0.15  -0.06   0.04    -0.00   0.00  -0.00    -0.05  -0.02   0.02
   4   6     0.24   0.10  -0.03    -0.00   0.00  -0.00     0.02   0.01  -0.01
   5   6    -0.04  -0.03  -0.02     0.00   0.00  -0.00    -0.00   0.00  -0.00
   6  53    -0.00  -0.00  -0.00    -0.00  -0.00  -0.00    -0.00  -0.00  -0.00
   7   1    -0.26  -0.33  -0.01    -0.46  -0.04   0.09    -0.39   0.50   0.13
   8   1    -0.09  -0.32  -0.24    -0.28   0.46  -0.50    -0.05  -0.21  -0.16
   9   1    -0.35  -0.19  -0.15     0.37   0.14  -0.19    -0.12   0.00   0.65
  10   1     0.16   0.04  -0.01     0.02   0.02   0.01    -0.07  -0.03  -0.00
  11   1     0.14   0.08  -0.05    -0.02  -0.02  -0.02    -0.06  -0.04   0.01
  12   1     0.15   0.10   0.01     0.01   0.01   0.00     0.05  -0.00  -0.00
  13   1     0.15   0.10   0.01    -0.01  -0.01   0.00     0.03   0.02  -0.03
  14   1    -0.27  -0.12   0.02    -0.00  -0.00  -0.00    -0.02  -0.00   0.00
  15   1    -0.22  -0.12   0.02     0.00   0.00   0.00    -0.02  -0.01   0.01
  16   1    -0.05   0.00   0.04    -0.00   0.00   0.00    -0.00  -0.00   0.00
  17   1     0.04  -0.02  -0.01    -0.00  -0.00   0.00    -0.00  -0.00  -0.00
                     31                     32                     33
                        a                      a                      a 
 Frequencies --  1455.7460              1480.1288              1499.1297
 Red. masses --     1.9391                 1.8698                 1.8593
 Frc consts  --     0.0000                 0.0000                 0.0000
 IR Inten    --     4.9163                 9.9210                 1.9857
 Raman Activ --     0.0000                 0.0000                 0.0000
 Depolar     --     0.0000                 0.0000                 0.0000
 Atom AN      X      Y      Z        X      Y      Z        X      Y      Z
   1   7    -0.00   0.00   0.00    -0.01  -0.00   0.01    -0.01   0.00   0.01
   2   6     0.00   0.01   0.01    -0.09   0.16   0.20     0.02   0.01  -0.00
   3   6     0.00  -0.02  -0.02     0.03   0.01  -0.01    -0.08   0.12   0.16
   4   6    -0.02   0.01  -0.03     0.00  -0.03  -0.03     0.04  -0.11  -0.12
   5   6     0.16   0.17  -0.16    -0.00  -0.01   0.00     0.00  -0.01  -0.00
   6  53    -0.00   0.01  -0.00     0.00  -0.00   0.00    -0.00   0.00  -0.00
   7   1     0.01   0.00  -0.00     0.02   0.05   0.01     0.02  -0.03  -0.01
   8   1     0.00   0.00   0.01     0.01   0.02   0.02    -0.00   0.00   0.00
   9   1     0.00   0.00  -0.00     0.03   0.03   0.03     0.00  -0.00  -0.03
  10   1    -0.01  -0.02  -0.00     0.29  -0.59  -0.12    -0.04   0.03   0.01
  11   1    -0.01  -0.00  -0.01    -0.02  -0.06  -0.67    -0.02  -0.00   0.04
  12   1     0.01   0.03  -0.00    -0.02   0.01   0.00     0.27  -0.46  -0.10
  13   1    -0.00  -0.00   0.02    -0.01  -0.00   0.02     0.02  -0.03  -0.54
  14   1     0.00   0.06   0.00    -0.04   0.09   0.02    -0.19   0.36   0.08
  15   1     0.00   0.02   0.08     0.01   0.01   0.10     0.02   0.04   0.40
  16   1    -0.07  -0.21   0.63     0.00   0.01  -0.02     0.01  -0.00  -0.02
  17   1    -0.39  -0.55  -0.02     0.01   0.02   0.00     0.01   0.02  -0.00
                     34                     35                     36
                        a                      a                      a 
 Frequencies --  1503.4559              2908.8306              2939.0107
 Red. masses --     1.9889                 1.9239                 1.5207
 Frc consts  --     0.0000                 0.0000                 0.0000
 IR Inten    --    10.9618                13.9629                 6.1709
 Raman Activ --     0.0000                 0.0000                 0.0000
 Depolar     --     0.0000                 0.0000                 0.0000
 Atom AN      X      Y      Z        X      Y      Z        X      Y      Z
   1   7     0.00  -0.00  -0.01    -0.00   0.00  -0.00    -0.00  -0.00  -0.00
   2   6    -0.01  -0.04  -0.04     0.00  -0.00   0.00     0.01  -0.01   0.00
   3   6     0.09  -0.09  -0.14    -0.02   0.03  -0.03    -0.01   0.02  -0.04
   4   6     0.07  -0.14  -0.16     0.12  -0.20   0.16    -0.04   0.10   0.18
   5   6    -0.01  -0.02   0.01     0.01  -0.00  -0.01    -0.02  -0.02  -0.03
   6  53     0.00  -0.00   0.00    -0.00   0.00  -0.00    -0.00   0.00  -0.00
   7   1    -0.01   0.01   0.00     0.00   0.00   0.00    -0.00   0.00   0.00
   8   1    -0.00  -0.00  -0.00    -0.00  -0.00   0.00     0.00   0.00  -0.00
   9   1    -0.00  -0.00   0.01     0.00  -0.00  -0.00     0.00  -0.00  -0.00
  10   1    -0.02   0.09   0.01    -0.00   0.00  -0.02     0.00  -0.00  -0.00
  11   1     0.02   0.02   0.09    -0.01   0.01   0.00    -0.03   0.05  -0.00
  12   1    -0.22   0.33   0.07     0.01  -0.01   0.11     0.02  -0.03   0.16
  13   1    -0.04   0.01   0.40     0.06  -0.10   0.01     0.01  -0.02  -0.00
  14   1    -0.25   0.47   0.10    -0.06   0.06  -0.54    -0.11   0.14  -0.74
  15   1     0.02   0.05   0.52    -0.37   0.67  -0.06     0.28  -0.50   0.09
  16   1     0.01   0.01  -0.05    -0.01  -0.01  -0.01     0.05   0.07   0.03
  17   1     0.03   0.06   0.00     0.00  -0.00   0.05     0.01  -0.01   0.10
                     37                     38                     39
                        a                      a                      a 
 Frequencies --  2944.7704              2966.0383              2967.7069
 Red. masses --     1.9466                 2.0113                 1.8921
 Frc consts  --     0.0000                 0.0000                 0.0000
 IR Inten    --    14.5201                 4.3988                 3.0680
 Raman Activ --     0.0000                 0.0000                 0.0000
 Depolar     --     0.0000                 0.0000                 0.0000
 Atom AN      X      Y      Z        X      Y      Z        X      Y      Z
   1   7     0.00  -0.00   0.00     0.00  -0.00   0.00    -0.00   0.00   0.00
   2   6    -0.04   0.06  -0.06    -0.11   0.18  -0.18     0.00  -0.00   0.03
   3   6     0.10  -0.18   0.17    -0.04   0.07  -0.08     0.03  -0.06  -0.06
   4   6     0.02  -0.03   0.06    -0.00   0.01  -0.01     0.00   0.00   0.02
   5   6    -0.00  -0.01  -0.01     0.01   0.01   0.02     0.12   0.15   0.19
   6  53     0.00   0.00  -0.00     0.00  -0.00   0.00    -0.00   0.00   0.00
   7   1    -0.00  -0.00  -0.01    -0.00   0.00  -0.01     0.00  -0.00   0.00
   8   1     0.00  -0.00   0.00     0.00  -0.00   0.00     0.00   0.00  -0.00
   9   1    -0.00   0.01   0.00    -0.01   0.01  -0.00     0.00   0.00  -0.00
  10   1     0.03  -0.03   0.23     0.07  -0.08   0.59    -0.02   0.02  -0.12
  11   1     0.12  -0.21   0.01     0.32  -0.57   0.05     0.01  -0.02   0.01
  12   1    -0.06   0.08  -0.58     0.03  -0.04   0.25     0.04  -0.06   0.27
  13   1    -0.31   0.56  -0.04     0.10  -0.18   0.01    -0.16   0.29  -0.04
  14   1    -0.03   0.03  -0.19     0.00  -0.00   0.02    -0.01   0.01  -0.08
  15   1    -0.02   0.04  -0.00     0.01  -0.02   0.00     0.02  -0.03   0.01
  16   1     0.01   0.02   0.01    -0.03  -0.04  -0.02    -0.38  -0.58  -0.24
  17   1     0.01  -0.00   0.05    -0.00   0.00  -0.05    -0.02   0.05  -0.42
                     40                     41                     42
                        a                      a                      a 
 Frequencies --  2972.7236              2981.9032              2988.5973
 Red. masses --     1.5801                 1.5512                 1.5368
 Frc consts  --     0.0000                 0.0000                 0.0000
 IR Inten    --    18.9340                15.8491                11.4030
 Raman Activ --     0.0000                 0.0000                 0.0000
 Depolar     --     0.0000                 0.0000                 0.0000
 Atom AN      X      Y      Z        X      Y      Z        X      Y      Z
   1   7     0.00  -0.00  -0.00    -0.00  -0.00  -0.00    -0.00  -0.00   0.00
   2   6     0.02  -0.04  -0.05     0.01  -0.02  -0.02     0.06  -0.12  -0.16
   3   6    -0.05   0.10   0.13     0.00   0.00   0.01     0.03  -0.04  -0.06
   4   6    -0.00   0.02   0.03     0.00  -0.01   0.02     0.00  -0.01  -0.02
   5   6     0.06   0.09   0.07    -0.05  -0.11   0.18    -0.00   0.00  -0.02
   6  53    -0.00   0.00   0.00     0.00  -0.00   0.00    -0.00   0.00  -0.00
   7   1    -0.00   0.00  -0.01    -0.00   0.00  -0.00    -0.00   0.00  -0.01
   8   1    -0.00  -0.00   0.00    -0.00  -0.00   0.00     0.00  -0.00  -0.00
   9   1     0.00  -0.01   0.00     0.00  -0.00   0.00     0.01  -0.01   0.00
  10   1     0.04  -0.05   0.23     0.01  -0.01   0.07     0.10  -0.13   0.64
  11   1    -0.10   0.19  -0.03    -0.04   0.07  -0.01    -0.30   0.54  -0.08
  12   1    -0.08   0.12  -0.57    -0.01   0.01  -0.05     0.03  -0.05   0.24
  13   1     0.27  -0.47   0.08     0.01  -0.02   0.00    -0.11   0.20  -0.03
  14   1    -0.02   0.02  -0.10    -0.01   0.01  -0.06     0.01  -0.01   0.06
  15   1     0.03  -0.06   0.01    -0.01   0.01   0.00    -0.02   0.04  -0.01
  16   1    -0.21  -0.32  -0.14     0.24   0.35   0.19    -0.00   0.00  -0.00
  17   1    -0.00   0.02  -0.12    -0.08   0.04  -0.84     0.01  -0.01   0.09
                     43                     44                     45
                        a                      a                      a 
 Frequencies --  3294.8081              3295.4186              3309.1485
 Red. masses --     2.0532                 2.0518                 1.2626
 Frc consts  --     0.0000                 0.0000                 0.0000
 IR Inten    --    84.5933                85.4396                33.1161
 Raman Activ --     0.0000                 0.0000                 0.0000
 Depolar     --     0.0000                 0.0000                 0.0000
 Atom AN      X      Y      Z        X      Y      Z        X      Y      Z
   1   7    -0.21   0.19  -0.05     0.11   0.06  -0.25     0.07   0.10   0.06
   2   6    -0.00   0.01  -0.00     0.00   0.00  -0.01     0.00   0.01   0.01
   3   6     0.00  -0.00   0.00    -0.00  -0.00   0.00    -0.00  -0.00  -0.00
   4   6    -0.00  -0.00   0.00     0.00   0.00  -0.00    -0.00  -0.00   0.00
   5   6    -0.00  -0.00  -0.00    -0.00  -0.00  -0.00     0.00   0.00  -0.00
   6  53     0.00   0.00   0.00     0.00  -0.00   0.00     0.00  -0.00   0.00
   7   1     0.03  -0.04   0.33     0.12  -0.12   0.67    -0.09   0.11  -0.58
   8   1     0.39   0.03  -0.23    -0.59  -0.01   0.30    -0.48  -0.01   0.27
   9   1     0.36  -0.69   0.09     0.06  -0.08  -0.01     0.27  -0.50   0.07
  10   1     0.00  -0.00   0.00     0.00  -0.00   0.01    -0.00   0.00  -0.01
  11   1     0.01  -0.01   0.00    -0.00   0.00   0.00     0.00  -0.01   0.00
  12   1    -0.00   0.00  -0.00    -0.00  -0.00   0.00     0.00   0.00   0.00
  13   1     0.00   0.00  -0.00    -0.00   0.00  -0.00    -0.00   0.00   0.00
  14   1     0.00  -0.00  -0.00     0.00   0.00  -0.00    -0.00   0.00  -0.00
  15   1    -0.00   0.00   0.00    -0.00  -0.00   0.00     0.00  -0.00   0.00
  16   1    -0.00  -0.00   0.00     0.00   0.00   0.00    -0.00  -0.00  -0.00
  17   1     0.00   0.00  -0.00     0.00   0.00   0.00    -0.00   0.00   0.00
