26
 energy: -32.796512833305 gnorm: 0.000553321267 xtb: 6.5.1 (fef0646)
N            1.08727521985865        1.60368973554754       -0.33781115970982
C            2.56180531645084        1.68716712212940       -0.36362850284187
C            3.11676226033427        1.35932511330428        1.02138659868847
C            4.61929742380589        1.28163500400474        1.02480010995508
C            5.36629755518536        2.16254616501131        1.67651456286792
C            6.86244329583069        2.12869824577422        1.73785435513023
C            7.45425301445016        1.15962783191725        0.71785264025228
C            6.65569736089391       -0.13911409989472        0.71853755195337
C            5.22863011859737        0.14148871739368        0.25573025260505
Cl           0.34861803931576       -1.25994889423173        0.45737759532372
H            0.68053479621752        1.81153845911655       -1.25251745521567
H            0.69953026413381        2.23663777577621        0.36632803621259
H            0.80148334753959        0.62666955095504       -0.07149717013169
H            2.87210734712221        2.68847756909424       -0.66440237426239
H            2.93228366897030        0.96029480427470       -1.08466300782782
H            2.70466409329380        0.39470245023198        1.32920623429281
H            2.79489591565677        2.11549645843046        1.73801573545830
H            4.90024218842020        2.96071047263366        2.23894409632378
H            7.16062348728941        1.82898441400690        2.74875554211661
H            7.25775327438548        3.13466196857207        1.57541387849381
H            8.50173334017401        0.96373519688119        0.95371358459373
H            7.41043737586338        1.60392534863326       -0.27818275405558
H            6.63793274569050       -0.55316166925228        1.72912027782758
H            7.12321890887402       -0.87523450734730        0.06172028889207
H            4.60903725427118       -0.75074495325638        0.37676618022604
H            5.24418238737439        0.38666172029312       -0.81055509716942
