 Entering Gaussian System
 *********************************************
 Gaussian 98:
 frequency output generated by the xtb code
 *********************************************
                         Standard orientation:
 --------------------------------------------------------------------
  Center     Atomic     Atomic              Coordinates (Angstroms)
  Number     Number      Type              X           Y           Z
 --------------------------------------------------------------------
    1          7             0       -2.978514    1.619365   -0.656462
    2          6             0       -1.892648    2.505590   -0.139288
    3          6             0       -0.627830    1.728384    0.210799
    4          6             0       -0.032278    0.967959   -0.974252
    5          6             0        1.156229    0.135123   -0.590024
    6          6             0        0.977645   -1.050325    0.108008
    7          6             0        2.061972   -1.816250    0.485866
    8          6             0        3.341474   -1.401757    0.174551
    9          6             0        3.533567   -0.219369   -0.511472
   10          6             0        2.447530    0.545516   -0.889160
   11         17             0       -2.489714   -1.435565    1.102751
   12          1             0       -2.776169    1.298882   -1.613583
   13          1             0       -3.894742    2.089679   -0.672680
   14          1             0       -3.057836    0.773596   -0.067051
   15          1             0       -2.253812    3.044943    0.745623
   16          1             0       -1.665166    3.279937   -0.881270
   17          1             0       -0.852891    1.016726    1.013691
   18          1             0        0.132185    2.399401    0.629825
   19          1             0        0.245243    1.669716   -1.768324
   20          1             0       -0.789593    0.313002   -1.417988
   21          1             0       -0.022666   -1.360689    0.362642
   22          1             0        1.909209   -2.736708    1.026328
   23          1             0        4.189532   -1.998751    0.469609
   24          1             0        4.532498    0.108175   -0.751476
   25          1             0        2.596293    1.471534   -1.418942
 --------------------------------------------------------------------
     1 basis functions        1 primitive gaussians
     1 alpha electrons        1 beta electrons

 Harmonic frequencies (cm**-1), IR intensities (km*mol⁻¹),
 Raman scattering activities (A**4/amu), Raman depolarization ratios,
 reduced masses (AMU), force constants (mDyne/A) and normal coordinates:
                      1                      2                      3
                        a                      a                      a 
 Frequencies --  -158.8647               -17.7928                46.7333
 Red. masses --    17.2447                 9.9726                13.1738
 Frc consts  --     0.0000                 0.0000                 0.0000
 IR Inten    --   103.9899                 0.2464                 0.7566
 Raman Activ --     0.0000                 0.0000                 0.0000
 Depolar     --     0.0000                 0.0000                 0.0000
 Atom AN      X      Y      Z        X      Y      Z        X      Y      Z
   1   7    -0.03   0.49  -0.33     0.02   0.13   0.04     0.01  -0.14   0.11
   2   6     0.08   0.17  -0.05     0.10   0.09  -0.07    -0.01   0.02  -0.14
   3   6    -0.08  -0.07   0.02     0.06   0.03  -0.05     0.09   0.17  -0.18
   4   6    -0.03   0.00   0.01    -0.23  -0.37   0.06     0.11   0.18  -0.18
   5   6    -0.02   0.00   0.01    -0.10  -0.19   0.03     0.02   0.08  -0.11
   6   6    -0.01  -0.01  -0.00     0.07  -0.31  -0.13    -0.14  -0.03  -0.35
   7   6    -0.00   0.00  -0.02     0.19  -0.17  -0.17    -0.22  -0.11  -0.26
   8   6    -0.01   0.01  -0.02     0.13   0.12  -0.02    -0.16  -0.08   0.07
   9   6    -0.02   0.02  -0.01    -0.04   0.26   0.17     0.00   0.04   0.31
  10   6    -0.03   0.01   0.01    -0.16   0.10   0.19     0.09   0.11   0.22
  11  17     0.10  -0.48   0.29    -0.03   0.18  -0.03     0.11  -0.14   0.31
  12   1     0.10   0.01  -0.02    -0.02   0.02   0.01    -0.01  -0.08   0.04
  13   1     0.05   0.25  -0.27     0.01   0.05   0.02    -0.01  -0.06   0.03
  14   1    -0.21   0.22  -0.02     0.00   0.04   0.02     0.04  -0.01   0.07
  15   1     0.01   0.04  -0.01     0.05   0.06  -0.03     0.01   0.03  -0.05
  16   1     0.09   0.06   0.01     0.04   0.00  -0.04    -0.04  -0.01  -0.07
  17   1    -0.08  -0.04  -0.03     0.03   0.08   0.05     0.06   0.05  -0.04
  18   1    -0.01  -0.06   0.06     0.06   0.02  -0.10     0.01   0.07  -0.07
  19   1    -0.00   0.01   0.02    -0.13  -0.18  -0.08     0.06   0.06  -0.04
  20   1     0.00   0.00  -0.02    -0.10  -0.16   0.15     0.03   0.07  -0.08
  21   1    -0.00  -0.01   0.00     0.03  -0.15  -0.06    -0.05  -0.01  -0.16
  22   1     0.00  -0.00  -0.01     0.09  -0.08  -0.09    -0.10  -0.06  -0.13
  23   1     0.00   0.00  -0.01     0.06   0.07  -0.02    -0.06  -0.04   0.04
  24   1    -0.01   0.01  -0.00    -0.03   0.14   0.09     0.02   0.02   0.17
  25   1    -0.01   0.01   0.00    -0.09   0.06   0.10     0.06   0.06   0.12
                      4                      5                      6
                        a                      a                      a 
 Frequencies --    62.2933                86.5865                95.4486
 Red. masses --    18.0390                25.2349                 9.9865
 Frc consts  --     0.0000                 0.0000                 0.0000
 IR Inten    --    14.8082                33.0600                 3.9950
 Raman Activ --     0.0000                 0.0000                 0.0000
 Depolar     --     0.0000                 0.0000                 0.0000
 Atom AN      X      Y      Z        X      Y      Z        X      Y      Z
   1   7    -0.06  -0.10  -0.12    -0.11   0.03  -0.15    -0.01  -0.15  -0.18
   2   6    -0.04  -0.19   0.02    -0.10  -0.10   0.07    -0.15   0.08  -0.24
   3   6    -0.14  -0.30   0.10    -0.22  -0.26   0.10    -0.10   0.28   0.07
   4   6     0.14   0.05   0.01    -0.05   0.00   0.02     0.01   0.06   0.27
   5   6     0.13   0.04  -0.02    -0.07  -0.03   0.00     0.02   0.10   0.32
   6   6     0.14  -0.04  -0.14    -0.10  -0.07  -0.07     0.04   0.03   0.21
   7   6     0.15  -0.05  -0.19    -0.12  -0.08  -0.05     0.04  -0.14  -0.13
   8   6     0.15   0.00  -0.11    -0.10  -0.06   0.04     0.02  -0.24  -0.35
   9   6     0.14   0.08   0.01    -0.08  -0.03   0.09     0.01  -0.10  -0.12
  10   6     0.14   0.09   0.06    -0.06  -0.02   0.07     0.00   0.07   0.23
  11  17    -0.46   0.30   0.24     0.66   0.40  -0.08     0.10   0.02   0.01
  12   1     0.08  -0.14   0.02     0.00   0.02  -0.04     0.03  -0.09  -0.02
  13   1     0.02   0.04  -0.18    -0.02   0.02  -0.06    -0.02  -0.07  -0.10
  14   1    -0.14   0.04   0.04    -0.05   0.00  -0.05     0.00  -0.01   0.00
  15   1    -0.03  -0.06   0.00    -0.05  -0.05   0.03    -0.09   0.07  -0.12
  16   1     0.02  -0.05   0.02     0.01  -0.01   0.05    -0.04  -0.02  -0.11
  17   1    -0.10  -0.15  -0.04    -0.12  -0.13  -0.04    -0.02   0.13   0.07
  18   1    -0.06  -0.12   0.13    -0.07  -0.12   0.12    -0.06   0.13  -0.01
  19   1     0.07   0.08   0.07     0.01   0.05   0.06     0.00  -0.02   0.04
  20   1     0.08   0.04  -0.09     0.01   0.02  -0.06     0.01  -0.01   0.11
  21   1     0.04  -0.02  -0.05    -0.03  -0.02  -0.03     0.02   0.02   0.09
  22   1     0.04  -0.03  -0.08    -0.04  -0.03  -0.02     0.02  -0.06  -0.08
  23   1     0.04  -0.00  -0.04    -0.03  -0.02   0.02     0.01  -0.12  -0.20
  24   1     0.04   0.04   0.02    -0.02  -0.00   0.04    -0.00  -0.04  -0.07
  25   1     0.04   0.04   0.05    -0.01   0.00   0.03    -0.00   0.04   0.11
                      7                      8                      9
                        a                      a                      a 
 Frequencies --   168.4284               198.8515               253.3925
 Red. masses --     9.2346                 5.3376                 7.8695
 Frc consts  --     0.0000                 0.0000                 0.0000
 IR Inten    --    21.6159                 7.3891                 2.1916
 Raman Activ --     0.0000                 0.0000                 0.0000
 Depolar     --     0.0000                 0.0000                 0.0000
 Atom AN      X      Y      Z        X      Y      Z        X      Y      Z
   1   7     0.48  -0.25  -0.32    -0.04  -0.09   0.34    -0.19   0.10  -0.02
   2   6     0.03  -0.08   0.25     0.04   0.00  -0.07    -0.18  -0.12   0.31
   3   6     0.17   0.11   0.14     0.03   0.02  -0.00     0.11   0.02  -0.32
   4   6    -0.11   0.02   0.07    -0.01  -0.01  -0.00    -0.04  -0.19  -0.27
   5   6    -0.10  -0.00  -0.06    -0.02  -0.01  -0.02     0.08   0.07   0.00
   6   6    -0.11  -0.00  -0.07    -0.03   0.02   0.03     0.05   0.16   0.15
   7   6    -0.10   0.03  -0.03    -0.04   0.04   0.07    -0.01   0.02   0.06
   8   6    -0.11   0.09   0.00    -0.04   0.03   0.06     0.00  -0.18  -0.15
   9   6    -0.11   0.07  -0.03    -0.03  -0.02  -0.02     0.07  -0.05   0.08
  10   6    -0.12   0.03  -0.07    -0.02  -0.03  -0.06     0.12   0.09   0.19
  11  17    -0.03   0.04   0.09     0.09   0.05  -0.24     0.02   0.06  -0.02
  12   1     0.32  -0.10  -0.03     0.19  -0.46   0.28     0.03   0.00   0.02
  13   1     0.12  -0.08  -0.28     0.07   0.13  -0.33    -0.02   0.09  -0.10
  14   1     0.03  -0.04  -0.06    -0.29   0.22   0.38    -0.17   0.04  -0.01
  15   1    -0.09  -0.15   0.11     0.04   0.09  -0.06    -0.02  -0.21   0.21
  16   1    -0.01   0.07   0.16     0.01  -0.08  -0.10    -0.15   0.11   0.21
  17   1     0.11   0.05   0.08     0.01   0.01   0.01     0.15   0.03  -0.04
  18   1     0.06   0.06  -0.03     0.01   0.01  -0.01     0.04   0.06  -0.19
  19   1    -0.07  -0.02  -0.01    -0.01  -0.01  -0.01    -0.06  -0.12  -0.16
  20   1    -0.05  -0.01   0.08    -0.01  -0.01   0.01    -0.00  -0.13   0.02
  21   1    -0.03  -0.00  -0.02    -0.01   0.01   0.01     0.01   0.07   0.06
  22   1    -0.02   0.01  -0.01    -0.01   0.02   0.03    -0.02   0.01   0.02
  23   1    -0.03   0.04   0.02    -0.01   0.01   0.02    -0.01  -0.10  -0.12
  24   1    -0.03   0.02  -0.00    -0.01  -0.01  -0.01     0.03  -0.03   0.03
  25   1    -0.04   0.01  -0.03    -0.01  -0.02  -0.03     0.06   0.04   0.08
                     10                     11                     12
                        a                      a                      a 
 Frequencies --   262.3816               324.4695               364.8699
 Red. masses --     9.4896                 8.1177                 8.8845
 Frc consts  --     0.0000                 0.0000                 0.0000
 IR Inten    --     3.8784                 0.7854                 0.1239
 Raman Activ --     0.0000                 0.0000                 0.0000
 Depolar     --     0.0000                 0.0000                 0.0000
 Atom AN      X      Y      Z        X      Y      Z        X      Y      Z
   1   7    -0.26   0.06  -0.09    -0.04  -0.00  -0.02    -0.01   0.00  -0.01
   2   6    -0.32   0.04   0.13     0.04  -0.04  -0.07    -0.01   0.00   0.00
   3   6    -0.05   0.34   0.04    -0.06  -0.07   0.20     0.00   0.02   0.01
   4   6     0.05   0.13   0.17    -0.24  -0.26   0.22     0.00   0.01   0.01
   5   6     0.05  -0.07  -0.03     0.22   0.25  -0.12    -0.00  -0.02  -0.02
   6   6     0.11  -0.21  -0.23     0.05   0.24  -0.21    -0.02  -0.23  -0.38
   7   6     0.13  -0.12  -0.07    -0.16   0.06  -0.06     0.03   0.21   0.37
   8   6     0.16   0.04   0.28    -0.09  -0.05   0.11     0.01  -0.00   0.00
   9   6     0.11  -0.12  -0.01     0.11  -0.12   0.03    -0.02  -0.20  -0.35
  10   6     0.08  -0.24  -0.21     0.28   0.10  -0.13     0.02   0.20   0.36
  11  17     0.02   0.04  -0.01    -0.00  -0.00   0.01     0.00   0.00   0.00
  12   1    -0.01   0.00  -0.01    -0.04   0.01  -0.02    -0.00   0.00  -0.00
  13   1    -0.06   0.04  -0.09    -0.00   0.01   0.02    -0.00   0.00  -0.00
  14   1    -0.12   0.03  -0.02    -0.01  -0.01  -0.01    -0.00   0.00  -0.00
  15   1    -0.12  -0.07   0.08    -0.00   0.06  -0.07    -0.00   0.00  -0.00
  16   1    -0.14   0.08   0.09     0.07  -0.07  -0.06    -0.00   0.00   0.00
  17   1     0.07   0.14   0.07    -0.03   0.03   0.10     0.00   0.01   0.00
  18   1    -0.05   0.19  -0.06    -0.00  -0.01   0.02    -0.00   0.01  -0.00
  19   1     0.02   0.01   0.03    -0.30  -0.12  -0.06    -0.00   0.00   0.00
  20   1    -0.01   0.05   0.07    -0.05  -0.23   0.28    -0.00   0.00   0.00
  21   1     0.03  -0.09  -0.09    -0.01   0.11  -0.10    -0.01  -0.13  -0.22
  22   1     0.03  -0.04  -0.03    -0.11   0.02  -0.03     0.02   0.14   0.24
  23   1     0.05   0.07   0.18    -0.05  -0.03   0.07     0.00  -0.00  -0.00
  24   1     0.03  -0.03  -0.01     0.06  -0.09   0.03    -0.01  -0.13  -0.22
  25   1     0.03  -0.10  -0.11     0.14   0.01  -0.05     0.01   0.13   0.24
                     13                     14                     15
                        a                      a                      a 
 Frequencies --   421.9934               474.2273               569.3316
 Red. masses --     8.8840                 9.4888                10.3435
 Frc consts  --     0.0000                 0.0000                 0.0000
 IR Inten    --    20.5957                 1.9316                 2.4757
 Raman Activ --     0.0000                 0.0000                 0.0000
 Depolar     --     0.0000                 0.0000                 0.0000
 Atom AN      X      Y      Z        X      Y      Z        X      Y      Z
   1   7     0.32  -0.04   0.14     0.04   0.01   0.04     0.02   0.02   0.04
   2   6    -0.17   0.44   0.08     0.03  -0.01   0.02    -0.14   0.18   0.01
   3   6    -0.39  -0.01  -0.18     0.00  -0.10  -0.20    -0.11   0.03  -0.06
   4   6    -0.20  -0.04  -0.15     0.14  -0.12  -0.04     0.29  -0.21   0.18
   5   6    -0.04   0.08  -0.02     0.10   0.22   0.54     0.29  -0.27  -0.02
   6   6     0.12   0.03  -0.04    -0.09  -0.04   0.03    -0.16  -0.19  -0.01
   7   6     0.10  -0.01  -0.01    -0.10  -0.14  -0.20    -0.17  -0.03   0.18
   8   6     0.15  -0.11   0.07    -0.12   0.27   0.25    -0.31   0.14  -0.25
   9   6     0.05  -0.11   0.04    -0.03  -0.05  -0.28     0.16   0.24   0.01
  10   6     0.05  -0.07   0.03    -0.00   0.10   0.01     0.17   0.08  -0.20
  11  17    -0.02  -0.03   0.01    -0.00   0.00   0.00    -0.00  -0.00   0.00
  12   1     0.20  -0.03   0.07     0.01   0.00   0.01     0.05  -0.00   0.02
  13   1    -0.01  -0.19  -0.04     0.01  -0.00   0.01    -0.03  -0.07  -0.02
  14   1     0.21  -0.00   0.07     0.01   0.00   0.01     0.06   0.01   0.03
  15   1    -0.05   0.07   0.06     0.04  -0.05   0.05    -0.02  -0.01   0.05
  16   1    -0.09   0.17   0.05    -0.02   0.04   0.04    -0.09   0.10   0.04
  17   1    -0.24  -0.05  -0.13    -0.01  -0.04  -0.07    -0.10   0.02  -0.02
  18   1    -0.05  -0.14   0.07     0.01  -0.05  -0.04    -0.05  -0.01   0.04
  19   1    -0.06  -0.01  -0.05     0.06  -0.08  -0.04     0.09  -0.07   0.04
  20   1    -0.01  -0.06  -0.06     0.10  -0.10  -0.01     0.09  -0.07   0.04
  21   1     0.04  -0.02  -0.01    -0.04  -0.05  -0.11    -0.08   0.05   0.00
  22   1    -0.00  -0.00  -0.01    -0.01  -0.13  -0.20     0.05   0.02   0.12
  23   1     0.04  -0.03   0.02    -0.03   0.10   0.11    -0.09   0.03  -0.06
  24   1     0.01  -0.02  -0.00    -0.01  -0.12  -0.22     0.08   0.03   0.12
  25   1     0.05  -0.03   0.00    -0.04  -0.04  -0.12    -0.04   0.06  -0.00
                     16                     17                     18
                        a                      a                      a 
 Frequencies --   590.7886               662.7848               746.0081
 Red. masses --    11.1316                 9.5326                 4.2290
 Frc consts  --     0.0000                 0.0000                 0.0000
 IR Inten    --     1.2438                 3.2142                23.7952
 Raman Activ --     0.0000                 0.0000                 0.0000
 Depolar     --     0.0000                 0.0000                 0.0000
 Atom AN      X      Y      Z        X      Y      Z        X      Y      Z
   1   7     0.00  -0.00  -0.00    -0.01   0.00   0.00     0.01  -0.01   0.01
   2   6     0.00  -0.01   0.00    -0.04   0.05   0.00     0.06  -0.05  -0.03
   3   6    -0.01  -0.01   0.02    -0.02   0.02   0.04     0.03  -0.00  -0.11
   4   6    -0.06  -0.03   0.00     0.01  -0.04   0.01     0.06   0.04   0.05
   5   6    -0.12  -0.09   0.07     0.03  -0.26  -0.39    -0.02   0.18   0.27
   6   6    -0.43   0.00   0.03     0.01   0.12   0.29    -0.01  -0.02  -0.14
   7   6    -0.06   0.42  -0.25    -0.04  -0.22  -0.29     0.01   0.03  -0.12
   8   6     0.14   0.11  -0.06    -0.04   0.18   0.23     0.05  -0.13  -0.14
   9   6     0.47   0.01  -0.04     0.03  -0.16  -0.34    -0.10  -0.09  -0.08
  10   6     0.07  -0.38   0.22     0.07   0.17   0.23    -0.09  -0.14  -0.17
  11  17     0.00   0.00  -0.00    -0.00  -0.00  -0.00    -0.00  -0.00  -0.00
  12   1     0.00   0.00  -0.00     0.01  -0.00   0.00    -0.04  -0.01  -0.00
  13   1     0.00   0.00   0.00    -0.01  -0.02  -0.01     0.02   0.04   0.02
  14   1    -0.00  -0.00  -0.00     0.01   0.00   0.00    -0.02   0.00   0.01
  15   1    -0.00   0.01  -0.01    -0.02   0.01  -0.00     0.03  -0.07   0.03
  16   1     0.01  -0.01  -0.00    -0.01   0.01  -0.00    -0.03   0.03   0.03
  17   1     0.00   0.00   0.01    -0.02   0.02   0.02    -0.05  -0.06  -0.09
  18   1     0.00  -0.00  -0.00    -0.00   0.01   0.01    -0.01  -0.04   0.07
  19   1    -0.04  -0.02  -0.02     0.00   0.01   0.02    -0.02  -0.07  -0.07
  20   1    -0.02  -0.02   0.03    -0.02   0.03  -0.01     0.03  -0.07   0.11
  21   1    -0.10  -0.05   0.04     0.01   0.14   0.22     0.02   0.10   0.19
  22   1     0.04   0.11  -0.08     0.01  -0.00   0.02    -0.00   0.20   0.29
  23   1    -0.06  -0.08   0.05    -0.00   0.14   0.22     0.04   0.21   0.38
  24   1     0.11   0.06  -0.05     0.03   0.01   0.04    -0.02   0.22   0.34
  25   1    -0.04  -0.10   0.06     0.01   0.15   0.24     0.00   0.16   0.31
                     19                     20                     21
                        a                      a                      a 
 Frequencies --   769.9496               820.8176               847.8076
 Red. masses --     3.0721                 6.2892                 6.7520
 Frc consts  --     0.0000                 0.0000                 0.0000
 IR Inten    --    21.8928                10.3159                17.3300
 Raman Activ --     0.0000                 0.0000                 0.0000
 Depolar     --     0.0000                 0.0000                 0.0000
 Atom AN      X      Y      Z        X      Y      Z        X      Y      Z
   1   7     0.06   0.09   0.04     0.07   0.06  -0.04     0.12   0.02  -0.08
   2   6    -0.07  -0.02   0.09     0.05  -0.01  -0.20     0.11  -0.10  -0.15
   3   6    -0.19  -0.17   0.02    -0.06  -0.07  -0.07    -0.07   0.01   0.02
   4   6    -0.15  -0.17  -0.03     0.16  -0.24   0.30    -0.37   0.17  -0.08
   5   6     0.02   0.08   0.13     0.00  -0.06  -0.10    -0.05   0.08   0.07
   6   6     0.01  -0.01  -0.06    -0.01   0.16  -0.07     0.05  -0.11   0.06
   7   6    -0.01  -0.01  -0.02     0.01   0.26  -0.13    -0.02  -0.25   0.17
   8   6    -0.02  -0.03  -0.05     0.14  -0.09   0.09    -0.16   0.10  -0.07
   9   6     0.05  -0.01  -0.02    -0.23  -0.07   0.06     0.30   0.06  -0.08
  10   6     0.05  -0.00  -0.07    -0.11   0.02   0.02     0.14  -0.03  -0.03
  11  17     0.00   0.00  -0.00    -0.00  -0.00  -0.00     0.00  -0.00  -0.00
  12   1     0.15   0.08   0.02    -0.19  -0.18   0.01    -0.30  -0.22  -0.01
  13   1    -0.02  -0.05  -0.06     0.01   0.01   0.11     0.08   0.11   0.17
  14   1     0.04  -0.02  -0.05     0.14   0.14   0.18     0.09   0.14   0.19
  15   1     0.01   0.17  -0.07    -0.00  -0.31   0.13    -0.07  -0.27   0.07
  16   1     0.12  -0.14  -0.08    -0.08   0.24   0.18     0.01   0.16   0.15
  17   1     0.22   0.21   0.30    -0.05   0.12   0.10    -0.01   0.04   0.04
  18   1     0.04   0.14  -0.44    -0.00   0.03  -0.12     0.01   0.01  -0.06
  19   1     0.13   0.17   0.24     0.14   0.04   0.20    -0.10   0.13   0.05
  20   1     0.10   0.04  -0.38     0.08   0.01  -0.09    -0.10   0.10  -0.09
  21   1    -0.00   0.05   0.03     0.00   0.04  -0.03     0.00  -0.03  -0.01
  22   1    -0.00   0.05   0.08    -0.08   0.06  -0.08     0.07  -0.09   0.03
  23   1    -0.00   0.05   0.11     0.03  -0.07  -0.05    -0.04   0.05   0.03
  24   1     0.02   0.03   0.09    -0.09   0.01  -0.05     0.12  -0.02   0.06
  25   1     0.03   0.04   0.05    -0.00  -0.01  -0.01     0.03   0.03   0.04
                     22                     23                     24
                        a                      a                      a 
 Frequencies --   874.3480               895.8647               902.7422
 Red. masses --     3.3798                 5.8539                 5.2425
 Frc consts  --     0.0000                 0.0000                 0.0000
 IR Inten    --     0.9470                19.4961                12.3128
 Raman Activ --     0.0000                 0.0000                 0.0000
 Depolar     --     0.0000                 0.0000                 0.0000
 Atom AN      X      Y      Z        X      Y      Z        X      Y      Z
   1   7    -0.02   0.01  -0.01     0.28   0.05   0.18     0.24   0.05   0.15
   2   6    -0.02   0.01   0.02    -0.00  -0.28  -0.06    -0.03  -0.23  -0.06
   3   6     0.01  -0.02   0.01    -0.25   0.08  -0.19    -0.21   0.08  -0.13
   4   6     0.02   0.00  -0.02    -0.01   0.08   0.12     0.02   0.04   0.10
   5   6     0.00   0.01   0.02    -0.01  -0.01  -0.03    -0.00  -0.05  -0.08
   6   6     0.00   0.06   0.09    -0.00  -0.05  -0.08     0.01   0.05   0.08
   7   6     0.01   0.11   0.18    -0.01  -0.07  -0.09     0.01   0.09   0.14
   8   6     0.01   0.08   0.15     0.00   0.09   0.14    -0.01  -0.06  -0.10
   9   6    -0.02  -0.07  -0.11     0.02   0.09   0.15    -0.02  -0.12  -0.21
  10   6    -0.02  -0.17  -0.29    -0.00  -0.07  -0.12     0.01   0.09   0.17
  11  17     0.00   0.00   0.00     0.00   0.00   0.00     0.00   0.00   0.00
  12   1     0.02   0.01   0.00     0.06   0.17  -0.01     0.06   0.15  -0.01
  13   1    -0.02  -0.04  -0.01     0.19   0.25   0.05     0.16   0.21   0.04
  14   1     0.03   0.01   0.01    -0.18  -0.08  -0.12    -0.14  -0.06  -0.10
  15   1    -0.01   0.04  -0.01     0.09  -0.06   0.01     0.07  -0.05   0.01
  16   1     0.03  -0.02  -0.01    -0.08  -0.08  -0.05    -0.08  -0.06  -0.04
  17   1     0.03  -0.01   0.01    -0.07   0.04  -0.04    -0.06   0.03  -0.03
  18   1    -0.00   0.01  -0.01    -0.15   0.10  -0.03    -0.13   0.09  -0.02
  19   1     0.00  -0.01  -0.02    -0.02  -0.00   0.00    -0.01  -0.01   0.01
  20   1     0.01  -0.01   0.01     0.01  -0.01   0.05     0.00   0.00   0.04
  21   1    -0.01  -0.11  -0.19     0.02   0.12   0.21    -0.01  -0.13  -0.22
  22   1    -0.02  -0.23  -0.40     0.01   0.07   0.13    -0.01  -0.12  -0.22
  23   1    -0.01  -0.14  -0.24    -0.01  -0.13  -0.23     0.01   0.07   0.13
  24   1     0.00   0.11   0.19    -0.01  -0.17  -0.29     0.02   0.23   0.39
  25   1     0.02   0.30   0.54     0.01   0.12   0.21    -0.01  -0.15  -0.27
                     25                     26                     27
                        a                      a                      a 
 Frequencies --   923.9692               930.4494               943.0223
 Red. masses --     3.4847                 5.1067                 3.4797
 Frc consts  --     0.0000                 0.0000                 0.0000
 IR Inten    --     0.6997                 9.7104                 1.3039
 Raman Activ --     0.0000                 0.0000                 0.0000
 Depolar     --     0.0000                 0.0000                 0.0000
 Atom AN      X      Y      Z        X      Y      Z        X      Y      Z
   1   7    -0.03   0.01  -0.03    -0.14  -0.30   0.01     0.02  -0.00   0.01
   2   6    -0.00   0.01   0.01     0.20   0.22   0.02    -0.01  -0.01  -0.01
   3   6     0.01  -0.03   0.01     0.16   0.13  -0.03    -0.01   0.02   0.00
   4   6     0.00   0.03  -0.02    -0.21  -0.20   0.10    -0.00  -0.03   0.02
   5   6     0.00   0.06   0.08    -0.03   0.03   0.05    -0.01  -0.01  -0.00
   6   6    -0.01  -0.09  -0.14     0.04   0.03  -0.06     0.04   0.19   0.30
   7   6    -0.00  -0.07  -0.09    -0.01   0.02   0.01    -0.02  -0.14  -0.25
   8   6     0.01   0.17   0.28    -0.02   0.01   0.03    -0.01   0.02   0.02
   9   6    -0.01  -0.12  -0.21     0.06  -0.01  -0.04     0.01   0.03   0.04
  10   6    -0.00   0.03   0.07     0.04   0.02  -0.03    -0.01  -0.06  -0.08
  11  17    -0.00  -0.00  -0.00     0.01   0.01   0.00     0.00   0.00   0.00
  12   1    -0.01  -0.03   0.01    -0.01   0.11  -0.05     0.00   0.02  -0.00
  13   1    -0.03  -0.04  -0.00     0.08   0.16  -0.04     0.02   0.03   0.00
  14   1     0.05   0.02   0.03    -0.32  -0.18  -0.19    -0.02  -0.01  -0.01
  15   1    -0.02   0.01  -0.01     0.10  -0.02   0.07     0.00  -0.00   0.00
  16   1     0.04   0.00   0.01    -0.24   0.09  -0.05    -0.02   0.00  -0.01
  17   1     0.03  -0.01   0.01    -0.26   0.10  -0.03    -0.01   0.00  -0.00
  18   1     0.00   0.00  -0.01     0.24  -0.23   0.07    -0.00   0.00   0.01
  19   1    -0.02   0.00  -0.02     0.15   0.07   0.21     0.02  -0.01   0.01
  20   1     0.01  -0.02   0.01    -0.05   0.12  -0.23    -0.01   0.02  -0.01
  21   1     0.01   0.09   0.17     0.01   0.05   0.01    -0.04  -0.35  -0.61
  22   1     0.02   0.14   0.25    -0.02  -0.01  -0.03     0.02   0.26   0.44
  23   1    -0.03  -0.30  -0.53    -0.02  -0.04  -0.04    -0.01  -0.05  -0.08
  24   1     0.02   0.23   0.40     0.03   0.01   0.06     0.00   0.00   0.00
  25   1    -0.01  -0.11  -0.19     0.03   0.02   0.01     0.00   0.04   0.07
                     28                     29                     30
                        a                      a                      a 
 Frequencies --   984.6819              1001.0297              1041.9776
 Red. masses --     8.4679                 7.6787                 8.8061
 Frc consts  --     0.0000                 0.0000                 0.0000
 IR Inten    --    12.7183                15.5350                11.2300
 Raman Activ --     0.0000                 0.0000                 0.0000
 Depolar     --     0.0000                 0.0000                 0.0000
 Atom AN      X      Y      Z        X      Y      Z        X      Y      Z
   1   7    -0.15   0.09   0.06    -0.17   0.06   0.05     0.14   0.30   0.13
   2   6     0.10  -0.06  -0.12     0.17  -0.07  -0.14    -0.43  -0.26  -0.26
   3   6     0.06  -0.12  -0.15     0.04  -0.10  -0.16     0.35   0.06   0.15
   4   6     0.01   0.08   0.24    -0.18   0.22   0.17    -0.16  -0.19  -0.05
   5   6    -0.13   0.08  -0.08     0.03  -0.02   0.00    -0.04   0.01   0.09
   6   6     0.35   0.18  -0.12    -0.32  -0.18   0.14     0.03   0.01  -0.03
   7   6    -0.05  -0.12   0.08     0.05   0.02  -0.02     0.00   0.03  -0.02
   8   6    -0.23   0.16  -0.08     0.19  -0.13   0.06    -0.01  -0.03   0.02
   9   6     0.14   0.07  -0.04    -0.02  -0.04   0.03     0.05   0.00  -0.01
  10   6    -0.13  -0.33   0.21     0.13   0.30  -0.18     0.04   0.07  -0.05
  11  17    -0.00  -0.00   0.00    -0.00  -0.00   0.00    -0.00  -0.00   0.00
  12   1     0.24   0.08   0.05     0.24   0.08   0.05     0.17   0.10   0.05
  13   1    -0.16  -0.22  -0.15    -0.16  -0.22  -0.15    -0.03  -0.06  -0.03
  14   1     0.11  -0.03  -0.03     0.09  -0.04  -0.04     0.14   0.06   0.03
  15   1     0.24  -0.09   0.10     0.27  -0.12   0.11    -0.10  -0.07  -0.06
  16   1    -0.06   0.05   0.01    -0.07   0.07   0.02    -0.18  -0.04  -0.06
  17   1     0.00   0.00  -0.01    -0.01   0.01  -0.01    -0.03  -0.09  -0.09
  18   1    -0.02   0.02  -0.04    -0.01   0.01  -0.05     0.08  -0.08   0.21
  19   1    -0.02   0.03   0.06    -0.15   0.12   0.06     0.19  -0.06   0.06
  20   1     0.00   0.01   0.09    -0.07   0.06   0.07    -0.16   0.15  -0.12
  21   1     0.09   0.06  -0.04    -0.08  -0.11   0.02     0.02   0.01   0.03
  22   1    -0.08  -0.03   0.00     0.10  -0.01   0.01    -0.04   0.02   0.00
  23   1    -0.07   0.04  -0.02     0.05  -0.04   0.01    -0.03  -0.04   0.03
  24   1     0.01   0.06  -0.04     0.03  -0.07   0.04     0.04  -0.04   0.03
  25   1    -0.08  -0.09   0.04     0.08   0.08  -0.05     0.02   0.02  -0.01
                     31                     32                     33
                        a                      a                      a 
 Frequencies --  1077.0732              1091.4234              1115.7545
 Red. masses --     5.7288                 6.5630                 7.8143
 Frc consts  --     0.0000                 0.0000                 0.0000
 IR Inten    --     8.1660                 1.8081                 2.0290
 Raman Activ --     0.0000                 0.0000                 0.0000
 Depolar     --     0.0000                 0.0000                 0.0000
 Atom AN      X      Y      Z        X      Y      Z        X      Y      Z
   1   7     0.07   0.01   0.12    -0.00   0.00   0.01    -0.13   0.03   0.07
   2   6    -0.21   0.12  -0.27     0.00   0.00  -0.03     0.30  -0.14  -0.11
   3   6     0.14  -0.23   0.24     0.00  -0.01   0.02    -0.21   0.27   0.36
   4   6     0.16   0.13  -0.17    -0.02   0.02  -0.02     0.07  -0.20  -0.41
   5   6     0.08   0.09  -0.05     0.01   0.01  -0.00     0.03   0.03   0.05
   6   6    -0.11  -0.04   0.04     0.11  -0.08   0.04    -0.03   0.01  -0.01
   7   6    -0.01  -0.10   0.05     0.17   0.26  -0.16    -0.00  -0.03   0.01
   8   6     0.07   0.04  -0.03    -0.34   0.25  -0.12     0.03   0.02  -0.01
   9   6    -0.07  -0.00   0.01    -0.28  -0.21   0.13    -0.04  -0.00  -0.01
  10   6    -0.05  -0.12   0.06     0.12  -0.11   0.05     0.01  -0.05   0.02
  11  17     0.00   0.00   0.00     0.00   0.00  -0.00     0.00  -0.00   0.00
  12   1     0.05   0.10   0.00     0.01   0.01   0.00     0.14   0.05   0.04
  13   1     0.07   0.10  -0.00     0.00   0.00  -0.01    -0.09  -0.11  -0.09
  14   1    -0.10  -0.06  -0.08    -0.01  -0.01  -0.01     0.04  -0.05  -0.04
  15   1    -0.06  -0.09   0.01     0.00  -0.02   0.01     0.12  -0.19   0.08
  16   1    -0.28   0.15  -0.02    -0.02   0.01   0.00     0.03   0.09   0.09
  17   1    -0.03   0.12   0.20    -0.00   0.01   0.01    -0.17   0.16   0.14
  18   1     0.18  -0.10  -0.11     0.01  -0.00  -0.01    -0.21   0.19   0.19
  19   1    -0.34   0.20  -0.03    -0.02   0.02   0.00     0.07  -0.08  -0.11
  20   1     0.20  -0.21   0.04     0.00  -0.01   0.00     0.00  -0.03  -0.12
  21   1    -0.06   0.04  -0.03     0.13  -0.23   0.13    -0.05   0.09  -0.04
  22   1     0.08  -0.04   0.02     0.39   0.03  -0.04     0.02  -0.01   0.01
  23   1     0.09   0.09  -0.06    -0.09   0.09  -0.05     0.05   0.05  -0.03
  24   1    -0.07   0.10  -0.06     0.02  -0.29   0.17    -0.03   0.05  -0.02
  25   1    -0.00  -0.03   0.03     0.34  -0.08   0.03     0.05  -0.01   0.02
                     34                     35                     36
                        a                      a                      a 
 Frequencies --  1129.6300              1180.2438              1181.2096
 Red. masses --     4.0322                 4.3725                 1.7542
 Frc consts  --     0.0000                 0.0000                 0.0000
 IR Inten    --     1.0545                 8.5469                 1.4518
 Raman Activ --     0.0000                 0.0000                 0.0000
 Depolar     --     0.0000                 0.0000                 0.0000
 Atom AN      X      Y      Z        X      Y      Z        X      Y      Z
   1   7    -0.02  -0.04   0.05    -0.01   0.14  -0.12    -0.00   0.06  -0.05
   2   6     0.03   0.08  -0.10     0.04  -0.30   0.21     0.02  -0.12   0.09
   3   6    -0.04  -0.07   0.14    -0.01   0.30  -0.09    -0.01   0.12  -0.04
   4   6     0.10   0.05  -0.14     0.00   0.00  -0.01    -0.01   0.00  -0.00
   5   6    -0.06  -0.07   0.06     0.10   0.01  -0.05     0.01  -0.05   0.01
   6   6     0.22  -0.05   0.01     0.05  -0.04   0.03    -0.06   0.03  -0.01
   7   6     0.02   0.16  -0.09     0.01   0.02  -0.01    -0.02   0.02  -0.01
   8   6    -0.11  -0.10   0.07    -0.03  -0.02   0.01     0.04   0.06  -0.04
   9   6     0.14   0.02  -0.02    -0.02  -0.02   0.01    -0.01  -0.04   0.02
  10   6    -0.10   0.18  -0.10    -0.08  -0.01   0.01     0.04  -0.06   0.03
  11  17     0.00   0.00  -0.00    -0.00  -0.00  -0.00    -0.00   0.00  -0.00
  12   1     0.03   0.04   0.00    -0.01  -0.11   0.02    -0.01  -0.04   0.01
  13   1     0.02   0.03  -0.02    -0.07  -0.09   0.04    -0.03  -0.04   0.02
  14   1    -0.05  -0.04  -0.04     0.15   0.09   0.07     0.06   0.04   0.03
  15   1     0.01  -0.06   0.02     0.05   0.08  -0.02     0.02   0.03  -0.01
  16   1    -0.05   0.09   0.03    -0.05  -0.20  -0.09    -0.03  -0.08  -0.04
  17   1     0.02   0.04   0.10    -0.29   0.15  -0.04    -0.12   0.06  -0.01
  18   1    -0.03   0.05  -0.03     0.21  -0.21   0.05     0.09  -0.09   0.02
  19   1    -0.09   0.03  -0.06    -0.22   0.19   0.08    -0.09   0.08   0.03
  20   1     0.05  -0.06   0.03     0.25  -0.20  -0.12     0.09  -0.08  -0.05
  21   1     0.21  -0.33   0.18     0.00   0.00  -0.02     0.04  -0.11   0.06
  22   1    -0.21   0.08  -0.03     0.20  -0.02   0.00    -0.40   0.06  -0.02
  23   1    -0.26  -0.27   0.17    -0.19  -0.20   0.13     0.40   0.44  -0.27
  24   1     0.14  -0.21   0.11    -0.06   0.11  -0.06     0.16  -0.37   0.20
  25   1    -0.41   0.11  -0.04    -0.13   0.01  -0.00    -0.21   0.01   0.00
                     37                     38                     39
                        a                      a                      a 
 Frequencies --  1199.4516              1231.2904              1241.3937
 Red. masses --     1.7378                 2.7910                 7.7751
 Frc consts  --     0.0000                 0.0000                 0.0000
 IR Inten    --     0.1515                22.4737                 6.0287
 Raman Activ --     0.0000                 0.0000                 0.0000
 Depolar     --     0.0000                 0.0000                 0.0000
 Atom AN      X      Y      Z        X      Y      Z        X      Y      Z
   1   7     0.01  -0.02   0.01    -0.11  -0.00   0.23     0.00  -0.03   0.01
   2   6    -0.01   0.04  -0.02     0.07  -0.06  -0.16     0.00   0.03  -0.03
   3   6     0.01  -0.04  -0.01    -0.03   0.15  -0.08     0.04   0.01  -0.04
   4   6    -0.03   0.01  -0.00    -0.05   0.06   0.10    -0.24   0.07  -0.09
   5   6     0.05  -0.03   0.03     0.03  -0.02  -0.04     0.48  -0.30   0.20
   6   6    -0.01   0.11  -0.07     0.00  -0.00   0.01     0.15  -0.08   0.04
   7   6     0.12   0.02  -0.02    -0.01   0.01  -0.00     0.01   0.18  -0.11
   8   6     0.02  -0.03   0.01     0.00   0.00  -0.00    -0.08   0.05  -0.02
   9   6    -0.01  -0.10   0.05    -0.01  -0.01   0.01    -0.22  -0.05   0.03
  10   6    -0.10  -0.02   0.02    -0.00  -0.00   0.00     0.14  -0.13   0.06
  11  17    -0.00  -0.00   0.00     0.00  -0.00   0.00    -0.00   0.00   0.00
  12   1    -0.00   0.01  -0.00     0.15   0.13   0.05     0.00   0.02  -0.01
  13   1     0.01   0.00  -0.01    -0.02   0.00  -0.10     0.01   0.01  -0.01
  14   1    -0.02  -0.01  -0.00    -0.04  -0.13  -0.11    -0.02  -0.01  -0.00
  15   1     0.00  -0.00   0.00    -0.50  -0.19  -0.15     0.01  -0.01   0.00
  16   1     0.02   0.02   0.01     0.52   0.11   0.24     0.03   0.02   0.02
  17   1     0.04  -0.02  -0.00    -0.01  -0.04  -0.10     0.08  -0.09  -0.07
  18   1    -0.04   0.03   0.01     0.20  -0.17  -0.07    -0.10   0.09   0.06
  19   1    -0.00  -0.01  -0.01     0.02  -0.02   0.00    -0.23   0.20   0.07
  20   1    -0.06   0.06   0.01     0.14  -0.11  -0.06    -0.15   0.14  -0.04
  21   1    -0.19   0.45  -0.25     0.00  -0.01  -0.01    -0.02   0.13  -0.07
  22   1     0.45  -0.06   0.01     0.00  -0.00  -0.01    -0.23   0.09  -0.04
  23   1     0.01  -0.00   0.00     0.00   0.00  -0.00    -0.03   0.02  -0.01
  24   1     0.14  -0.34   0.19    -0.01   0.00  -0.00    -0.17   0.21  -0.11
  25   1    -0.49   0.06  -0.01    -0.03   0.00  -0.00    -0.17  -0.01   0.02
                     40                     41                     42
                        a                      a                      a 
 Frequencies --  1261.1175              1293.1971              1304.6911
 Red. masses --     3.4060                 3.3029                 3.7196
 Frc consts  --     0.0000                 0.0000                 0.0000
 IR Inten    --     0.9144                 1.0167                 2.0560
 Raman Activ --     0.0000                 0.0000                 0.0000
 Depolar     --     0.0000                 0.0000                 0.0000
 Atom AN      X      Y      Z        X      Y      Z        X      Y      Z
   1   7     0.00   0.05  -0.01     0.01   0.02   0.00     0.03   0.02   0.04
   2   6     0.02  -0.10   0.03     0.01  -0.03   0.02     0.00  -0.01   0.11
   3   6    -0.17  -0.09   0.05    -0.06  -0.04   0.00     0.15  -0.13  -0.23
   4   6     0.05   0.26  -0.07     0.02   0.00  -0.01     0.25  -0.20  -0.09
   5   6     0.01  -0.21   0.12     0.11   0.09  -0.04    -0.08   0.10   0.03
   6   6     0.09  -0.03   0.01    -0.09   0.19  -0.11    -0.00  -0.01   0.00
   7   6     0.09   0.06  -0.04    -0.08  -0.01   0.01    -0.00  -0.03   0.01
   8   6    -0.02   0.02  -0.01    -0.14  -0.16   0.10     0.03   0.02  -0.01
   9   6    -0.06   0.05  -0.03    -0.01  -0.06   0.03     0.04   0.01  -0.01
  10   6     0.03   0.01  -0.01     0.24  -0.04   0.01    -0.07   0.01  -0.01
  11  17     0.00  -0.00  -0.00     0.00   0.00  -0.00     0.00  -0.00   0.00
  12   1     0.01  -0.02   0.01    -0.00  -0.01   0.00    -0.02   0.02  -0.00
  13   1    -0.02  -0.03   0.00    -0.02  -0.03  -0.00    -0.03  -0.06  -0.03
  14   1     0.04   0.02   0.01    -0.01   0.00  -0.00    -0.05  -0.01  -0.01
  15   1    -0.01  -0.02  -0.00    -0.02  -0.01  -0.01    -0.26   0.03  -0.10
  16   1    -0.06  -0.05  -0.03    -0.01  -0.02  -0.01     0.15  -0.03   0.04
  17   1    -0.21   0.24   0.20    -0.08   0.09   0.07    -0.34   0.27   0.11
  18   1     0.32  -0.28  -0.25     0.09  -0.08  -0.09    -0.16   0.11   0.07
  19   1     0.17  -0.25  -0.24     0.12  -0.11  -0.06    -0.26   0.27   0.14
  20   1    -0.21   0.16   0.21    -0.20   0.18   0.09    -0.34   0.28   0.18
  21   1    -0.07   0.21  -0.12     0.15  -0.33   0.19     0.00  -0.01   0.01
  22   1    -0.18   0.05  -0.02     0.32  -0.05   0.02    -0.01  -0.01   0.01
  23   1    -0.07  -0.06   0.04     0.16   0.17  -0.11    -0.02  -0.02   0.02
  24   1     0.01  -0.05   0.03    -0.14   0.28  -0.15     0.04  -0.06   0.04
  25   1     0.13  -0.02  -0.00    -0.40   0.06  -0.01     0.09  -0.01   0.01
                     43                     44                     45
                        a                      a                      a 
 Frequencies --  1322.8036              1343.5610              1367.4526
 Red. masses --     3.6362                11.3040                 4.0882
 Frc consts  --     0.0000                 0.0000                 0.0000
 IR Inten    --    18.0336                 0.0899                46.4466
 Raman Activ --     0.0000                 0.0000                 0.0000
 Depolar     --     0.0000                 0.0000                 0.0000
 Atom AN      X      Y      Z        X      Y      Z        X      Y      Z
   1   7    -0.03  -0.19  -0.04    -0.01  -0.02  -0.00    -0.15  -0.08   0.00
   2   6    -0.40   0.02  -0.11    -0.03   0.01  -0.00     0.15  -0.05  -0.00
   3   6     0.02   0.09   0.03     0.05   0.00  -0.02    -0.28   0.18   0.07
   4   6     0.07  -0.06  -0.05     0.03   0.00  -0.01     0.23  -0.20  -0.04
   5   6     0.00   0.04  -0.01    -0.27  -0.26   0.16    -0.04   0.05   0.02
   6   6     0.00  -0.02   0.01    -0.16   0.31  -0.17    -0.02   0.03  -0.02
   7   6    -0.02  -0.00   0.00     0.41  -0.08   0.02     0.02  -0.03   0.01
   8   6     0.02   0.02  -0.01    -0.22  -0.24   0.15     0.02  -0.00  -0.00
   9   6     0.01  -0.02   0.01    -0.16   0.34  -0.19    -0.00   0.03  -0.02
  10   6    -0.03   0.00  -0.00     0.36  -0.07   0.02    -0.02  -0.01   0.01
  11  17     0.00  -0.00  -0.00     0.00   0.00   0.00    -0.00  -0.00   0.00
  12   1     0.03   0.11  -0.05     0.01   0.00   0.00     0.10   0.15  -0.03
  13   1     0.11   0.19   0.00     0.02   0.03   0.00     0.11   0.24  -0.13
  14   1     0.07   0.04   0.12     0.02  -0.00   0.00     0.33   0.04   0.12
  15   1     0.53   0.03   0.21     0.02   0.01   0.01    -0.08   0.00  -0.05
  16   1     0.52   0.00   0.17     0.05   0.00   0.02    -0.21   0.02  -0.05
  17   1    -0.08   0.06   0.02    -0.02   0.01  -0.01     0.31  -0.24  -0.13
  18   1     0.12  -0.10   0.01    -0.04   0.03   0.04     0.19  -0.18  -0.11
  19   1    -0.05   0.05   0.02    -0.12   0.09   0.03    -0.19   0.17   0.10
  20   1    -0.07   0.06   0.03     0.11  -0.10  -0.02    -0.21   0.19   0.10
  21   1     0.01  -0.02   0.01    -0.02   0.02  -0.01    -0.00   0.00   0.01
  22   1     0.00  -0.00   0.01    -0.02  -0.00   0.00     0.01  -0.01   0.01
  23   1    -0.00   0.00   0.00    -0.03  -0.04   0.02    -0.01  -0.02   0.02
  24   1     0.00  -0.00   0.00     0.01  -0.02   0.01     0.02  -0.04   0.02
  25   1     0.00   0.00   0.00     0.06  -0.01   0.00     0.04  -0.01   0.01
                     46                     47                     48
                        a                      a                      a 
 Frequencies --  1370.5697              1403.5181              1437.1651
 Red. masses --     3.2046                 1.7732                 1.8538
 Frc consts  --     0.0000                 0.0000                 0.0000
 IR Inten    --    93.2799               102.5430               101.4189
 Raman Activ --     0.0000                 0.0000                 0.0000
 Depolar     --     0.0000                 0.0000                 0.0000
 Atom AN      X      Y      Z        X      Y      Z        X      Y      Z
   1   7     0.21   0.14  -0.01    -0.00   0.19   0.12    -0.17   0.03  -0.18
   2   6    -0.03  -0.00  -0.08    -0.08   0.04   0.01     0.00   0.00  -0.02
   3   6    -0.18   0.17   0.10    -0.01   0.02   0.01     0.00  -0.02  -0.01
   4   6     0.15  -0.13  -0.03     0.03  -0.03   0.01     0.02  -0.01  -0.01
   5   6    -0.04   0.01   0.02     0.00   0.01   0.00    -0.01  -0.02   0.02
   6   6    -0.01   0.01  -0.01    -0.00   0.00  -0.00     0.02   0.00  -0.00
   7   6     0.02  -0.01   0.01    -0.00  -0.00   0.00    -0.02   0.01  -0.01
   8   6     0.00  -0.01   0.01     0.01   0.01  -0.00    -0.01  -0.01   0.01
   9   6    -0.00   0.03  -0.02    -0.00   0.00  -0.00     0.02  -0.01   0.00
  10   6    -0.01  -0.00   0.00    -0.01  -0.00   0.00    -0.02   0.02  -0.01
  11  17     0.00   0.01  -0.00    -0.00  -0.00   0.01    -0.00  -0.00   0.00
  12   1    -0.10  -0.14   0.02    -0.23  -0.51   0.14     0.56  -0.31   0.21
  13   1    -0.21  -0.43   0.18     0.06   0.13  -0.26     0.07   0.18   0.63
  14   1    -0.52  -0.00  -0.12     0.26  -0.39  -0.51     0.01  -0.07  -0.13
  15   1     0.13  -0.07   0.07     0.11  -0.01   0.06    -0.02   0.05  -0.04
  16   1     0.08  -0.00   0.01     0.05  -0.03  -0.01     0.00   0.07   0.06
  17   1     0.18  -0.19  -0.12     0.03  -0.02  -0.01     0.01  -0.00   0.00
  18   1     0.17  -0.13  -0.11     0.02  -0.02   0.01    -0.02   0.01   0.01
  19   1    -0.13   0.12   0.06    -0.06  -0.00  -0.02    -0.02   0.02   0.01
  20   1    -0.11   0.10   0.04    -0.04   0.06  -0.03    -0.04   0.03   0.02
  21   1    -0.00   0.01   0.00    -0.00  -0.00  -0.00     0.00   0.01  -0.01
  22   1    -0.01  -0.00   0.00     0.00  -0.01  -0.00     0.02  -0.00  -0.00
  23   1    -0.01  -0.01   0.01    -0.00  -0.00  -0.00     0.02   0.02  -0.01
  24   1     0.02  -0.02   0.02     0.00  -0.00   0.00     0.00   0.01  -0.00
  25   1     0.03  -0.00   0.01     0.01  -0.00   0.01     0.01   0.00  -0.00
                     49                     50                     51
                        a                      a                      a 
 Frequencies --  1448.8155              1482.3135              1486.4487
 Red. masses --     8.7887                 4.2481                 6.2282
 Frc consts  --     0.0000                 0.0000                 0.0000
 IR Inten    --     0.6383                 6.5069                17.6745
 Raman Activ --     0.0000                 0.0000                 0.0000
 Depolar     --     0.0000                 0.0000                 0.0000
 Atom AN      X      Y      Z        X      Y      Z        X      Y      Z
   1   7     0.01  -0.00   0.01    -0.00  -0.01   0.00     0.00  -0.01   0.01
   2   6    -0.00  -0.00  -0.00     0.01  -0.09   0.01     0.01  -0.15  -0.01
   3   6    -0.00   0.01   0.00     0.09   0.00   0.19     0.04   0.00   0.08
   4   6     0.06   0.03  -0.04    -0.06   0.04  -0.03     0.09  -0.05   0.04
   5   6    -0.25  -0.29   0.18     0.19  -0.14   0.07    -0.26   0.19  -0.09
   6   6     0.29  -0.05   0.01     0.01   0.15  -0.09    -0.03  -0.20   0.12
   7   6    -0.21   0.23  -0.12    -0.21  -0.02   0.03     0.29   0.03  -0.03
   8   6    -0.22  -0.25   0.15     0.13  -0.08   0.04    -0.17   0.11  -0.05
   9   6     0.31  -0.11   0.05    -0.03   0.18  -0.10     0.04  -0.25   0.14
  10   6    -0.13   0.23  -0.12    -0.16  -0.05   0.04     0.22   0.07  -0.05
  11  17    -0.00  -0.00   0.00    -0.00  -0.00   0.00    -0.00  -0.00   0.00
  12   1    -0.04   0.02  -0.01    -0.03  -0.00  -0.01    -0.04  -0.01  -0.01
  13   1    -0.00  -0.00  -0.05     0.00   0.00  -0.03    -0.00  -0.01  -0.03
  14   1     0.01   0.00   0.01     0.02  -0.01   0.00    -0.00  -0.02  -0.01
  15   1     0.01   0.00  -0.00     0.06   0.20  -0.10     0.07   0.32  -0.17
  16   1    -0.00   0.00   0.00    -0.04   0.15   0.15    -0.07   0.26   0.25
  17   1     0.02  -0.01  -0.01    -0.37  -0.22  -0.29    -0.16  -0.10  -0.13
  18   1     0.00  -0.00   0.01     0.02   0.26  -0.43     0.01   0.11  -0.19
  19   1    -0.11   0.08   0.02     0.01   0.01   0.01     0.00  -0.02  -0.01
  20   1     0.06  -0.07   0.02    -0.01  -0.00   0.02     0.02  -0.00  -0.01
  21   1     0.02   0.14  -0.08     0.07  -0.09   0.05    -0.10   0.14  -0.07
  22   1     0.20   0.03  -0.03     0.13  -0.04   0.01    -0.18   0.05  -0.02
  23   1     0.22   0.23  -0.15     0.03  -0.03   0.02    -0.04   0.04  -0.02
  24   1     0.00   0.17  -0.10     0.07  -0.12   0.06    -0.09   0.15  -0.08
  25   1     0.17   0.04  -0.03     0.13  -0.04   0.02    -0.17   0.06  -0.02
                     52                     53                     54
                        a                      a                      a 
 Frequencies --  1491.7434              1502.6424              1604.2944
 Red. masses --     2.5608                 2.0002                11.5144
 Frc consts  --     0.0000                 0.0000                 0.0000
 IR Inten    --     5.5494                 1.6966                 0.2154
 Raman Activ --     0.0000                 0.0000                 0.0000
 Depolar     --     0.0000                 0.0000                 0.0000
 Atom AN      X      Y      Z        X      Y      Z        X      Y      Z
   1   7    -0.03   0.01  -0.02     0.00   0.02   0.01    -0.00   0.00  -0.00
   2   6    -0.02   0.21   0.04     0.00  -0.03  -0.01     0.00  -0.00   0.00
   3   6     0.07  -0.00   0.14    -0.03   0.02  -0.03    -0.00  -0.00  -0.00
   4   6     0.03  -0.03  -0.02    -0.12   0.02  -0.26    -0.03  -0.02   0.01
   5   6    -0.11   0.07  -0.03     0.02  -0.01  -0.01     0.31   0.32  -0.20
   6   6    -0.01  -0.08   0.05    -0.00  -0.01   0.01    -0.06  -0.26   0.15
   7   6     0.11   0.01  -0.01     0.00   0.00  -0.00     0.28   0.13  -0.09
   8   6    -0.07   0.04  -0.02     0.01   0.01  -0.00    -0.34  -0.37   0.23
   9   6     0.02  -0.10   0.05    -0.01  -0.00   0.00     0.09   0.27  -0.16
  10   6     0.08   0.03  -0.02     0.02  -0.00  -0.00    -0.29  -0.10   0.07
  11  17    -0.00  -0.00   0.00    -0.00  -0.00   0.00    -0.00   0.00   0.00
  12   1     0.07   0.01   0.01    -0.03  -0.04   0.01     0.00  -0.00   0.00
  13   1     0.02   0.05   0.04    -0.00  -0.00  -0.02     0.00   0.00   0.00
  14   1     0.06   0.02   0.02     0.01  -0.03  -0.04     0.00  -0.00  -0.00
  15   1    -0.09  -0.44   0.24     0.02   0.05  -0.02    -0.00   0.00  -0.00
  16   1     0.10  -0.37  -0.35    -0.00   0.04   0.04    -0.00   0.00   0.00
  17   1    -0.26  -0.17  -0.22     0.06   0.01   0.02    -0.00  -0.00  -0.00
  18   1     0.01   0.20  -0.31     0.01  -0.04   0.03     0.00  -0.00  -0.00
  19   1     0.04   0.04   0.06     0.45   0.29   0.42     0.06  -0.03  -0.00
  20   1    -0.00  -0.04   0.07    -0.03  -0.33   0.56    -0.04   0.04  -0.00
  21   1    -0.04   0.06  -0.03    -0.01   0.02  -0.01    -0.06   0.03  -0.02
  22   1    -0.07   0.02  -0.01    -0.01   0.00  -0.00    -0.04   0.05  -0.03
  23   1    -0.01   0.02  -0.01    -0.00  -0.00   0.00     0.08   0.08  -0.05
  24   1    -0.04   0.06  -0.03    -0.00   0.00  -0.00     0.07  -0.03   0.01
  25   1    -0.07   0.02  -0.01    -0.03   0.01  -0.00     0.06  -0.04   0.02
                     55                     56                     57
                        a                      a                      a 
 Frequencies --  1617.0534              2925.9025              2939.1385
 Red. masses --    11.5370                 1.9193                 1.9581
 Frc consts  --     0.0000                 0.0000                 0.0000
 IR Inten    --     2.8976                22.3807                28.5296
 Raman Activ --     0.0000                 0.0000                 0.0000
 Depolar     --     0.0000                 0.0000                 0.0000
 Atom AN      X      Y      Z        X      Y      Z        X      Y      Z
   1   7     0.00  -0.00   0.00    -0.00  -0.01   0.00    -0.00  -0.02   0.02
   2   6     0.00  -0.00  -0.00     0.00  -0.00  -0.00     0.08   0.04  -0.24
   3   6    -0.01   0.00   0.00     0.07   0.08  -0.01    -0.07  -0.10   0.03
   4   6    -0.03   0.02  -0.02    -0.15  -0.21   0.07    -0.03  -0.04   0.03
   5   6     0.23  -0.17   0.08    -0.01  -0.01   0.00    -0.00  -0.00   0.00
   6   6    -0.26   0.34  -0.18     0.00   0.00  -0.00     0.00   0.00  -0.00
   7   6     0.41  -0.15   0.07    -0.00   0.00   0.00    -0.00  -0.00   0.00
   8   6    -0.16   0.12  -0.06     0.00   0.00  -0.00     0.00   0.00  -0.00
   9   6     0.26  -0.32   0.17     0.00  -0.00   0.00     0.00  -0.00   0.00
  10   6    -0.43   0.15  -0.06     0.00   0.00  -0.00     0.00   0.00  -0.00
  11  17     0.00   0.00  -0.00    -0.00   0.00   0.00    -0.00   0.00  -0.00
  12   1    -0.00   0.00  -0.00     0.00  -0.00   0.00     0.00  -0.01  -0.02
  13   1    -0.00  -0.00  -0.00    -0.00  -0.00   0.00     0.00  -0.00   0.00
  14   1    -0.00   0.00  -0.00     0.00   0.02  -0.02     0.01   0.09  -0.07
  15   1     0.00   0.00   0.00    -0.00   0.01   0.01    -0.18   0.28   0.44
  16   1    -0.00   0.00   0.00     0.00   0.01  -0.01    -0.13  -0.45   0.42
  17   1     0.00   0.00   0.00    -0.04  -0.14   0.17     0.05   0.19  -0.22
  18   1     0.00  -0.00   0.00    -0.21  -0.19  -0.12     0.19   0.17   0.11
  19   1    -0.00   0.01   0.00     0.17   0.42  -0.49     0.04   0.11  -0.12
  20   1    -0.01   0.01   0.01     0.39   0.34   0.24     0.05   0.04   0.03
  21   1     0.01  -0.09   0.05    -0.01  -0.00   0.00    -0.01  -0.00   0.00
  22   1    -0.09  -0.01   0.01     0.00   0.00   0.00     0.00   0.00  -0.00
  23   1    -0.04   0.03  -0.01     0.00   0.00  -0.00    -0.00   0.00  -0.00
  24   1    -0.01   0.08  -0.05    -0.00   0.00  -0.00     0.00  -0.00  -0.00
  25   1     0.10   0.01  -0.01     0.00  -0.01   0.01     0.00  -0.00   0.00
                     58                     59                     60
                        a                      a                      a 
 Frequencies --  2944.2323              2959.0423              2963.9840
 Red. masses --     1.9323                 1.4991                 1.6612
 Frc consts  --     0.0000                 0.0000                 0.0000
 IR Inten    --    52.5208                19.2604               480.2526
 Raman Activ --     0.0000                 0.0000                 0.0000
 Depolar     --     0.0000                 0.0000                 0.0000
 Atom AN      X      Y      Z        X      Y      Z        X      Y      Z
   1   7     0.00   0.03  -0.02    -0.00  -0.03   0.02    -0.01  -0.13   0.10
   2   6    -0.05   0.01   0.12     0.00  -0.01  -0.00    -0.03   0.15   0.05
   3   6    -0.16  -0.17  -0.01    -0.01   0.04  -0.07     0.01   0.02   0.01
   4   6    -0.06  -0.08   0.03     0.09   0.02   0.17     0.00   0.01  -0.01
   5   6    -0.00  -0.00   0.00     0.01  -0.00   0.00    -0.00   0.00  -0.00
   6   6     0.00   0.00   0.00    -0.00   0.00  -0.00     0.00   0.00  -0.00
   7   6    -0.00   0.00  -0.00     0.00  -0.00  -0.00    -0.00  -0.00   0.00
   8   6     0.00   0.00  -0.00    -0.00   0.00  -0.00    -0.00   0.00  -0.00
   9   6     0.00  -0.00   0.00    -0.00  -0.00  -0.00    -0.00   0.00   0.00
  10   6     0.00   0.00  -0.00    -0.00   0.00  -0.00    -0.00  -0.00   0.00
  11  17     0.00  -0.00   0.00    -0.00   0.00  -0.00    -0.00   0.01  -0.00
  12   1    -0.00   0.01   0.01    -0.00  -0.01  -0.02     0.00  -0.01  -0.01
  13   1    -0.00   0.00  -0.00    -0.01   0.00   0.00    -0.01   0.00   0.01
  14   1    -0.01  -0.09   0.07     0.01   0.10  -0.07     0.06   0.48  -0.35
  15   1     0.12  -0.18  -0.31    -0.01   0.02   0.03     0.20  -0.27  -0.51
  16   1     0.04   0.15  -0.13     0.01   0.02  -0.02    -0.11  -0.30   0.33
  17   1     0.04   0.17  -0.22    -0.07  -0.22   0.24     0.00   0.01  -0.01
  18   1     0.51   0.45   0.27     0.10   0.09   0.04    -0.06  -0.05  -0.03
  19   1     0.07   0.17  -0.20     0.17   0.37  -0.38    -0.01  -0.02   0.03
  20   1     0.13   0.11   0.08    -0.49  -0.44  -0.25    -0.00   0.00  -0.00
  21   1    -0.00   0.00  -0.00     0.00   0.00   0.00    -0.01  -0.00   0.00
  22   1    -0.00  -0.00  -0.00     0.00   0.00  -0.00     0.00   0.00  -0.00
  23   1    -0.00   0.00  -0.00    -0.00   0.00   0.00     0.00  -0.00   0.00
  24   1     0.00   0.00   0.00     0.00   0.00  -0.00    -0.00   0.00   0.00
  25   1     0.00  -0.01   0.00    -0.00  -0.01   0.00     0.00   0.00  -0.00
                     61                     62                     63
                        a                      a                      a 
 Frequencies --  2974.1886              2980.2831              3090.9007
 Red. masses --     1.6199                 1.7730                 1.7490
 Frc consts  --     0.0000                 0.0000                 0.0000
 IR Inten    --   160.0984               303.6534                 1.5622
 Raman Activ --     0.0000                 0.0000                 0.0000
 Depolar     --     0.0000                 0.0000                 0.0000
 Atom AN      X      Y      Z        X      Y      Z        X      Y      Z
   1   7    -0.00  -0.08   0.06    -0.01  -0.14   0.11     0.00   0.00  -0.00
   2   6     0.01  -0.05  -0.03    -0.01  -0.13   0.04    -0.00  -0.00   0.00
   3   6    -0.04   0.05  -0.17    -0.00  -0.06   0.09    -0.00  -0.00  -0.00
   4   6    -0.03   0.00  -0.08    -0.00  -0.01   0.02     0.00  -0.00   0.00
   5   6    -0.00   0.00  -0.00    -0.00   0.00   0.00     0.00  -0.00   0.00
   6   6     0.00  -0.00   0.00     0.01   0.00  -0.00     0.01   0.00  -0.00
   7   6    -0.00   0.00  -0.00    -0.00  -0.00   0.00    -0.01  -0.04   0.03
   8   6    -0.00   0.00  -0.00     0.00  -0.00  -0.00    -0.11   0.08  -0.04
   9   6    -0.00   0.00   0.00     0.00   0.00  -0.00     0.18   0.06  -0.04
  10   6     0.00  -0.00   0.00    -0.00  -0.00   0.00    -0.01  -0.07   0.04
  11  17    -0.00   0.00  -0.00    -0.00   0.01  -0.00    -0.00   0.00  -0.00
  12   1     0.01  -0.01  -0.02     0.01  -0.02  -0.03    -0.00   0.00   0.00
  13   1    -0.01   0.00   0.01    -0.01  -0.00   0.01     0.00  -0.00  -0.00
  14   1     0.03   0.29  -0.22     0.06   0.50  -0.37    -0.00  -0.00   0.00
  15   1    -0.07   0.10   0.19    -0.09   0.11   0.23     0.00  -0.00  -0.00
  16   1     0.03   0.07  -0.08     0.12   0.35  -0.36     0.00   0.00  -0.00
  17   1    -0.15  -0.44   0.46     0.09   0.28  -0.30    -0.00  -0.00   0.00
  18   1     0.30   0.28   0.14    -0.07  -0.07  -0.02     0.00   0.00   0.00
  19   1    -0.08  -0.18   0.18     0.02   0.04  -0.05     0.00   0.00  -0.00
  20   1     0.18   0.17   0.09    -0.01  -0.01  -0.00     0.00  -0.00   0.00
  21   1    -0.00  -0.00   0.00    -0.02  -0.01   0.00    -0.03  -0.01   0.01
  22   1    -0.00  -0.00   0.00     0.00   0.00  -0.00     0.03   0.17  -0.10
  23   1     0.00  -0.00   0.00    -0.00   0.00  -0.00     0.42  -0.30   0.15
  24   1     0.00   0.00  -0.00    -0.00  -0.00   0.00    -0.66  -0.22   0.16
  25   1     0.00   0.01  -0.00     0.00  -0.00   0.00     0.04   0.26  -0.15
                     64                     65                     66
                        a                      a                      a 
 Frequencies --  3097.9528              3106.2795              3112.7928
 Red. masses --     1.7959                 1.8408                 1.9021
 Frc consts  --     0.0000                 0.0000                 0.0000
 IR Inten    --    42.6433               122.3233                36.4549
 Raman Activ --     0.0000                 0.0000                 0.0000
 Depolar     --     0.0000                 0.0000                 0.0000
 Atom AN      X      Y      Z        X      Y      Z        X      Y      Z
   1   7     0.00   0.00  -0.00    -0.00  -0.00   0.00    -0.00   0.00  -0.00
   2   6     0.00   0.00  -0.00     0.00   0.00  -0.00     0.00   0.00  -0.00
   3   6     0.00   0.00  -0.00     0.00   0.00   0.00     0.00   0.00  -0.00
   4   6     0.00   0.00  -0.00     0.00   0.00  -0.00     0.00   0.00  -0.00
   5   6     0.00   0.00  -0.00    -0.01   0.01  -0.00    -0.00   0.00  -0.00
   6   6     0.04   0.01  -0.01    -0.07  -0.03   0.02     0.04   0.01  -0.01
   7   6    -0.02  -0.14   0.08     0.02   0.13  -0.08    -0.02  -0.09   0.05
   8   6    -0.11   0.08  -0.04    -0.08   0.05  -0.03     0.12  -0.09   0.04
   9   6    -0.10  -0.03   0.02     0.05   0.01  -0.01     0.14   0.05  -0.03
  10   6     0.02   0.09  -0.05     0.03   0.16  -0.09     0.02   0.13  -0.07
  11  17     0.00   0.00  -0.00    -0.00  -0.00   0.00     0.00   0.00  -0.00
  12   1    -0.00   0.00   0.00     0.00  -0.00  -0.00    -0.00   0.00  -0.00
  13   1     0.00   0.00  -0.00     0.00  -0.00   0.00     0.00  -0.00  -0.00
  14   1    -0.00  -0.00   0.00     0.00   0.01  -0.01    -0.00  -0.00   0.00
  15   1     0.00  -0.00  -0.00    -0.00   0.00   0.00     0.00  -0.00  -0.00
  16   1    -0.00  -0.00   0.00    -0.00  -0.00   0.00    -0.00  -0.00   0.00
  17   1    -0.00  -0.00   0.00     0.00   0.00  -0.00    -0.00  -0.00   0.00
  18   1    -0.00  -0.00  -0.00    -0.00  -0.00  -0.00     0.00  -0.00  -0.00
  19   1    -0.00  -0.01   0.01    -0.00  -0.01   0.01    -0.00  -0.01   0.01
  20   1    -0.00  -0.00  -0.00     0.00   0.00   0.00    -0.00  -0.00  -0.00
  21   1    -0.15  -0.05   0.04     0.27   0.09  -0.07    -0.16  -0.05   0.04
  22   1     0.08   0.50  -0.29    -0.08  -0.46   0.27     0.05   0.30  -0.18
  23   1     0.40  -0.28   0.14     0.26  -0.19   0.09    -0.40   0.28  -0.14
  24   1     0.35   0.11  -0.08    -0.16  -0.05   0.04    -0.45  -0.15   0.11
  25   1    -0.06  -0.35   0.20    -0.09  -0.55   0.31    -0.07  -0.44   0.25
                     67                     68                     69
                        a                      a                      a 
 Frequencies --  3116.7010              3225.4226              3236.8714
 Red. masses --     1.8949                 1.9887                 1.5384
 Frc consts  --     0.0000                 0.0000                 0.0000
 IR Inten    --    44.6934                50.7904                29.8213
 Raman Activ --     0.0000                 0.0000                 0.0000
 Depolar     --     0.0000                 0.0000                 0.0000
 Atom AN      X      Y      Z        X      Y      Z        X      Y      Z
   1   7     0.00   0.00  -0.00     0.22  -0.14  -0.10     0.04   0.03   0.19
   2   6     0.00   0.00  -0.00     0.00  -0.00  -0.00     0.00   0.01   0.01
   3   6     0.00   0.00  -0.00    -0.00   0.00   0.00     0.00   0.00   0.00
   4   6     0.00   0.00  -0.00     0.00   0.00   0.00    -0.00  -0.00  -0.00
   5   6     0.01  -0.00   0.00     0.00  -0.00   0.00    -0.00   0.00   0.00
   6   6     0.24   0.07  -0.06    -0.00  -0.00   0.00    -0.00   0.00   0.00
   7   6     0.01   0.09  -0.06    -0.00  -0.00   0.00    -0.00  -0.00   0.00
   8   6    -0.03   0.02  -0.01     0.00  -0.00   0.00     0.00  -0.00   0.00
   9   6    -0.00  -0.00   0.00     0.00   0.00  -0.00     0.00   0.00  -0.00
  10   6    -0.00   0.01  -0.01     0.00   0.00  -0.00    -0.00   0.00  -0.00
  11  17     0.00   0.00  -0.00    -0.00   0.00  -0.00     0.00   0.00  -0.00
  12   1    -0.00   0.00  -0.00    -0.07   0.11   0.38     0.20  -0.27  -0.81
  13   1    -0.00   0.00  -0.00    -0.77   0.41  -0.01    -0.37   0.20   0.02
  14   1    -0.00  -0.02   0.01     0.02  -0.01  -0.01    -0.00  -0.05   0.06
  15   1     0.00  -0.00   0.00    -0.01   0.01   0.01     0.01  -0.01  -0.02
  16   1    -0.00  -0.00   0.00    -0.00  -0.00   0.00    -0.00  -0.01   0.00
  17   1    -0.00  -0.00   0.01     0.00   0.00  -0.00    -0.00   0.00   0.00
  18   1     0.00   0.00   0.00    -0.00  -0.00  -0.00    -0.00  -0.00  -0.00
  19   1    -0.00  -0.00   0.00     0.00  -0.00   0.00    -0.00  -0.00   0.00
  20   1    -0.00  -0.00  -0.00    -0.00  -0.00  -0.00     0.01   0.01   0.00
  21   1    -0.82  -0.26   0.21     0.00   0.00  -0.00     0.00   0.00  -0.00
  22   1    -0.05  -0.30   0.18     0.00   0.00  -0.00     0.00   0.00  -0.00
  23   1     0.08  -0.06   0.03    -0.00   0.00   0.00    -0.00   0.00  -0.00
  24   1    -0.00  -0.00   0.00    -0.00  -0.00   0.00    -0.00  -0.00   0.00
  25   1    -0.01  -0.04   0.02    -0.00  -0.00   0.00     0.00  -0.00   0.00
