      -----------------------------------------------------------      
     |                   =====================                   |     
     |                           x T B                           |     
     |                   =====================                   |     
     |                         S. Grimme                         |     
     |          Mulliken Center for Theoretical Chemistry        |     
     |                    University of Bonn                     |     
      -----------------------------------------------------------      

   * xtb version 6.5.1 (fef0646) compiled by 'conda@b96dff2e9fd6' on 2023-01-04

   xtb is free software: you can redistribute it and/or modify it under
   the terms of the GNU Lesser General Public License as published by
   the Free Software Foundation, either version 3 of the License, or
   (at your option) any later version.
   
   xtb is distributed in the hope that it will be useful,
   but WITHOUT ANY WARRANTY; without even the implied warranty of
   MERCHANTABILITY or FITNESS FOR A PARTICULAR PURPOSE.  See the
   GNU Lesser General Public License for more details.
   
   Cite this work as:
   * C. Bannwarth, E. Caldeweyher, S. Ehlert, A. Hansen, P. Pracht,
     J. Seibert, S. Spicher, S. Grimme, WIREs Comput. Mol. Sci., 2020, 11,
     e01493. DOI: 10.1002/wcms.1493
   
   for GFN2-xTB:
   * C. Bannwarth, S. Ehlert and S. Grimme., J. Chem. Theory Comput., 2019,
     15, 1652-1671. DOI: 10.1021/acs.jctc.8b01176
   for GFN1-xTB:
   * S. Grimme, C. Bannwarth, P. Shushkov, J. Chem. Theory Comput., 2017,
     13, 1989-2009. DOI: 10.1021/acs.jctc.7b00118
   for GFN0-xTB:
   * P. Pracht, E. Caldeweyher, S. Ehlert, S. Grimme, ChemRxiv, 2019, preprint.
     DOI: 10.26434/chemrxiv.8326202.v1
   for GFN-FF:
   * S. Spicher and S. Grimme, Angew. Chem. Int. Ed., 2020, 59, 15665-15673.
     DOI: 10.1002/anie.202004239
   
   for ALPB and GBSA implicit solvation:
   * S. Ehlert, M. Stahn, S. Spicher, S. Grimme, J. Chem. Theory Comput.,
     2021, 17, 4250-4261. DOI: 10.1021/acs.jctc.1c00471
   
   for DFT-D4:
   * E. Caldeweyher, C. Bannwarth and S. Grimme, J. Chem. Phys., 2017,
     147, 034112. DOI: 10.1063/1.4993215
   * E. Caldeweyher, S. Ehlert, A. Hansen, H. Neugebauer, S. Spicher,
     C. Bannwarth and S. Grimme, J. Chem. Phys., 2019, 150, 154122.
     DOI: 10.1063/1.5090222
   * E. Caldeweyher, J.-M. Mewes, S. Ehlert and S. Grimme, Phys. Chem. Chem. Phys.
     2020, 22, 8499-8512. DOI: 10.1039/D0CP00502A
   
   for sTDA-xTB:
   * S. Grimme and C. Bannwarth, J. Chem. Phys., 2016, 145, 054103.
     DOI: 10.1063/1.4959605
   
   in the mass-spec context:
   * V. Asgeirsson, C. Bauer and S. Grimme, Chem. Sci., 2017, 8, 4879.
     DOI: 10.1039/c7sc00601b
   * J. Koopman and S. Grimme, ACS Omega 2019, 4, 12, 15120-15133.
     DOI: 10.1021/acsomega.9b02011
   
   for metadynamics refer to:
   * S. Grimme, J. Chem. Theory Comput., 2019, 155, 2847-2862
     DOI: 10.1021/acs.jctc.9b00143
   
   for SPH calculations refer to:
   * S. Spicher and S. Grimme, J. Chem. Theory Comput., 2021, 17, 1701-1714
     DOI: 10.1021/acs.jctc.0c01306
   
   with help from (in alphabetical order)
   P. Atkinson, C. Bannwarth, F. Bohle, G. Brandenburg, E. Caldeweyher
   M. Checinski, S. Dohm, S. Ehlert, S. Ehrlich, I. Gerasimov, C. Hölzer
   A. Katbashev, J. Koopman, C. Lavigne, S. Lehtola, F. März, M. Müller,
   F. Musil, H. Neugebauer, J. Pisarek, C. Plett, P. Pracht, F. Pultar,
   J. Seibert, P. Shushkov, S. Spicher, M. Stahn, M. Steiner, T. Strunk,
   J. Stückrath, T. Rose, and J. Unsleber
   
 * started run on 2023/01/23 at 18:52:11.972     

           -------------------------------------------------
          |                Calculation Setup                |
           -------------------------------------------------

          program call               : xtb init.xyz --opt -c 1 -u 0 -P 16 --input xtb.inp
          hostname                   : gpg-woodward
          coordinate file            : init.xyz
          omp threads                :                    16

   ID    Z sym.   atoms
    1    7 N      1
    2    6 C      2-8
    3    1 H      9-18

           -------------------------------------------------
          |                 G F N 2 - x T B                 |
           -------------------------------------------------

        Reference                      10.1021/acs.jctc.8b01176
      * Hamiltonian:
        H0-scaling (s, p, d)           1.850000    2.230000    2.230000
        zeta-weighting                 0.500000
      * Dispersion:
        s8                             2.700000
        a1                             0.520000
        a2                             5.000000
        s9                             5.000000
      * Repulsion:
        kExp                           1.500000    1.000000
        rExp                           1.000000
      * Coulomb:
        alpha                          2.000000
        third order                    shell-resolved
        anisotropic                    true
        a3                             3.000000
        a5                             4.000000
        cn-shift                       1.200000
        cn-exp                         4.000000
        max-rad                        5.000000


          ...................................................
          :                      SETUP                      :
          :.................................................:
          :  # basis functions                  42          :
          :  # atomic orbitals                  42          :
          :  # shells                           26          :
          :  # electrons                        42          :
          :  max. iterations                   250          :
          :  Hamiltonian                  GFN2-xTB          :
          :  restarted?                      false          :
          :  GBSA solvation                  false          :
          :  PC potential                    false          :
          :  electronic temp.          300.0000000     K    :
          :  accuracy                    1.0000000          :
          :  -> integral cutoff          0.2500000E+02      :
          :  -> integral neglect         0.1000000E-07      :
          :  -> SCF convergence          0.1000000E-05 Eh   :
          :  -> wf. convergence          0.1000000E-03 e    :
          :  Broyden damping             0.4000000          :
          ...................................................

 iter      E             dE          RMSdq      gap      omega  full diag
   1    -22.8236315 -0.228236E+02  0.418E+00    4.68       0.0  T
   2    -22.9332926 -0.109661E+00  0.234E+00    4.55       1.0  T
   3    -22.9356263 -0.233372E-02  0.128E+00    4.54       1.0  T
   4    -22.9326787  0.294758E-02  0.536E-01    4.42       1.0  T
   5    -22.9372274 -0.454868E-02  0.106E-01    4.46       1.0  T
   6    -22.9372366 -0.921184E-05  0.411E-02    4.47       1.0  T
   7    -22.9372478 -0.111518E-04  0.124E-02    4.46       1.9  T
   8    -22.9372488 -0.102669E-05  0.427E-03    4.47       5.5  T
   9    -22.9372489 -0.540592E-07  0.170E-03    4.47      13.8  T
  10    -22.9372489 -0.442106E-08  0.395E-04    4.47      59.7  T
  11    -22.9372489  0.243112E-10  0.223E-04    4.47     105.7  T

   *** convergence criteria satisfied after 11 iterations ***

         #    Occupation            Energy/Eh            Energy/eV
      -------------------------------------------------------------
         1        2.0000           -0.8955677             -24.3696
       ...           ...                  ...                  ...
        15        2.0000           -0.6115588             -16.6414
        16        2.0000           -0.6095002             -16.5853
        17        2.0000           -0.6081165             -16.5477
        18        2.0000           -0.5581101             -15.1869
        19        2.0000           -0.5527036             -15.0398
        20        2.0000           -0.5401126             -14.6972
        21        2.0000           -0.5369156             -14.6102 (HOMO)
        22                         -0.3727328             -10.1426 (LUMO)
        23                         -0.3594637              -9.7815
        24                         -0.2556884              -6.9576
        25                         -0.2218025              -6.0356
        26                         -0.1224612              -3.3323
       ...                                ...                  ...
        42                          0.4954679              13.4824
      -------------------------------------------------------------
                  HL-Gap            0.1641828 Eh            4.4676 eV
             Fermi-level           -0.4548242 Eh          -12.3764 eV

 SCC (total)                   0 d,  0 h,  0 min,  0.020 sec
 SCC setup                      ...        0 min,  0.000 sec (  1.147%)
 Dispersion                     ...        0 min,  0.000 sec (  1.815%)
 classical contributions        ...        0 min,  0.000 sec (  0.982%)
 integral evaluation            ...        0 min,  0.001 sec (  5.651%)
 iterations                     ...        0 min,  0.015 sec ( 76.960%)
 molecular gradient             ...        0 min,  0.002 sec ( 11.617%)
 printout                       ...        0 min,  0.000 sec (  0.585%)

         :::::::::::::::::::::::::::::::::::::::::::::::::::::
         ::                     SUMMARY                     ::
         :::::::::::::::::::::::::::::::::::::::::::::::::::::
         :: total energy             -22.552658847806 Eh    ::
         :: gradient norm              0.033171371262 Eh/a0 ::
         :: HOMO-LUMO gap              4.467640451490 eV    ::
         ::.................................................::
         :: SCC energy               -22.937248859073 Eh    ::
         :: -> isotropic ES            0.106232313493 Eh    ::
         :: -> anisotropic ES         -0.011258434214 Eh    ::
         :: -> anisotropic XC          0.018259164802 Eh    ::
         :: -> dispersion             -0.011990446454 Eh    ::
         :: repulsion energy           0.384548706531 Eh    ::
         :: add. restraining           0.000000000000 Eh    ::
         :: total charge               1.000000000000 e     ::
         :::::::::::::::::::::::::::::::::::::::::::::::::::::

      ----------------------------------------------------------- 
     |                   =====================                   |
     |                        A N C O P T                        |
     |                   =====================                   |
     |               Approximate Normal Coordinate               |
     |                Rational Function Optimizer                |
      ----------------------------------------------------------- 

          ...................................................
          :                      SETUP                      :
          :.................................................:
          :   optimization level            normal          :
          :   max. optcycles                   200          :
          :   ANC micro-cycles                  20          :
          :   degrees of freedom                48          :
          :.................................................:
          :   RF solver                   davidson          :
          :   write xtbopt.log                true          :
          :   linear?                        false          :
          :   energy convergence         0.5000000E-05 Eh   :
          :   grad. convergence          0.1000000E-02 Eh/α :
          :   maximium RF displ.         1.0000000          :
          :   Hlow (freq-cutoff)         0.1000000E-01      :
          :   Hmax (freq-cutoff)         5.0000000          :
          :   S6 in model hess.         20.0000000          :
          ...................................................

generating ANC from model Hessian ...
Using Lindh-Hessian (1995)
 Shifting diagonal of input Hessian by    6.9741187890282989E-003
 Lowest  eigenvalues of input Hessian
    0.000000    0.000000    0.000000    0.000000    0.000000    0.000000
    0.010000    0.010126    0.016044    0.018427    0.020906    0.028801
    0.030252    0.032900    0.050902    0.065009    0.072805    0.073421
 Highest eigenvalues
    1.447370    1.525863    1.575374    1.828039    1.927107    1.942431


........................................................................
.............................. CYCLE    1 ..............................
........................................................................
   1    -22.9372489 -0.229372E+02  0.679E-05    4.47       0.0  T
   2    -22.9372489 -0.225064E-10  0.417E-05    4.47     564.8  T
   3    -22.9372489 -0.183711E-10  0.253E-05    4.47     932.4  T
     SCC iter.                  ...        0 min,  0.003 sec
     gradient                   ...        0 min,  0.001 sec
 * total energy  :   -22.5526588 Eh     change       -0.4584884E-09 Eh
   gradient norm :     0.0331717 Eh/α   predicted     0.0000000E+00 (-100.00%)
   displ. norm   :     0.1521166 α      lambda       -0.2830474E-02
   maximum displ.:     0.0878163 α      in ANC's #9, #28, #1, ...

........................................................................
.............................. CYCLE    2 ..............................
........................................................................
   1    -22.9538364 -0.229538E+02  0.120E-01    4.55       0.0  T
   2    -22.9538438 -0.739934E-05  0.734E-02    4.55       1.0  T
   3    -22.9538358  0.801313E-05  0.216E-02    4.56       1.1  T
   4    -22.9538458 -0.994231E-05  0.499E-03    4.55       4.7  T
   5    -22.9538460 -0.259815E-06  0.199E-03    4.55      11.9  T
   6    -22.9538460 -0.184816E-08  0.795E-04    4.55      29.6  T
   7    -22.9538460 -0.611847E-08  0.155E-04    4.55     151.9  T
     SCC iter.                  ...        0 min,  0.007 sec
     gradient                   ...        0 min,  0.001 sec
 * total energy  :   -22.5544229 Eh     change       -0.1764010E-02 Eh
   gradient norm :     0.0122619 Eh/α   predicted    -0.1447985E-02 ( -17.92%)
   displ. norm   :     0.0908043 α      lambda       -0.3723611E-03
   maximum displ.:     0.0643414 α      in ANC's #1, #4, #9, ...

........................................................................
.............................. CYCLE    3 ..............................
........................................................................
   1    -22.9583762 -0.229584E+02  0.565E-02    4.57       0.0  T
   2    -22.9583783 -0.204523E-05  0.333E-02    4.57       1.0  T
   3    -22.9583781  0.116380E-06  0.595E-03    4.57       4.0  T
   4    -22.9583784 -0.204593E-06  0.299E-03    4.57       7.9  T
   5    -22.9583785 -0.157095E-06  0.997E-04    4.57      23.6  T
   6    -22.9583785 -0.140103E-08  0.244E-04    4.57      96.5  T
     SCC iter.                  ...        0 min,  0.006 sec
     gradient                   ...        0 min,  0.001 sec
 * total energy  :   -22.5546468 Eh     change       -0.2239438E-03 Eh
   gradient norm :     0.0047615 Eh/α   predicted    -0.1877137E-03 ( -16.18%)
   displ. norm   :     0.0628003 α      lambda       -0.6871284E-04
   maximum displ.:     0.0553189 α      in ANC's #1, #4, #3, ...

........................................................................
.............................. CYCLE    4 ..............................
........................................................................
   1    -22.9583228 -0.229583E+02  0.349E-02    4.57       0.0  T
   2    -22.9583234 -0.577588E-06  0.200E-02    4.57       1.2  T
   3    -22.9583232  0.180125E-06  0.445E-03    4.57       5.3  T
   4    -22.9583235 -0.231801E-06  0.152E-03    4.57      15.5  T
   5    -22.9583235 -0.402017E-07  0.493E-04    4.57      47.8  T
   6    -22.9583235 -0.456978E-09  0.178E-04    4.57     132.5  T
     SCC iter.                  ...        0 min,  0.006 sec
     gradient                   ...        0 min,  0.001 sec
 * total energy  :   -22.5546947 Eh     change       -0.4791076E-04 Eh
   gradient norm :     0.0022119 Eh/α   predicted    -0.3449342E-04 ( -28.00%)
   displ. norm   :     0.0538470 α      lambda       -0.2946059E-04
   maximum displ.:     0.0487653 α      in ANC's #1, #3, #4, ...

........................................................................
.............................. CYCLE    5 ..............................
........................................................................
   1    -22.9576910 -0.229577E+02  0.290E-02    4.56       0.0  T
   2    -22.9576912 -0.231720E-06  0.167E-02    4.56       1.4  T
   3    -22.9576911  0.158702E-06  0.331E-03    4.56       7.1  T
   4    -22.9576913 -0.197764E-06  0.908E-04    4.56      26.0  T
   5    -22.9576913 -0.130763E-07  0.304E-04    4.56      77.6  T
     SCC iter.                  ...        0 min,  0.005 sec
     gradient                   ...        0 min,  0.001 sec
 * total energy  :   -22.5547149 Eh     change       -0.2014234E-04 Eh
   gradient norm :     0.0011368 Eh/α   predicted    -0.1477230E-04 ( -26.66%)
   displ. norm   :     0.0521181 α      lambda       -0.1003022E-04
   maximum displ.:     0.0464366 α      in ANC's #1, #3, #7, ...

........................................................................
.............................. CYCLE    6 ..............................
........................................................................
   1    -22.9573544 -0.229574E+02  0.268E-02    4.56       0.0  T
   2    -22.9573545 -0.762669E-07  0.157E-02    4.56       1.5  T
   3    -22.9573544  0.558083E-07  0.197E-03    4.56      12.0  T
   4    -22.9573545 -0.747487E-07  0.512E-04    4.56      46.1  T
   5    -22.9573545 -0.291286E-08  0.216E-04    4.56     109.0  T
     SCC iter.                  ...        0 min,  0.005 sec
     gradient                   ...        0 min,  0.001 sec
 * total energy  :   -22.5547247 Eh     change       -0.9884441E-05 Eh
   gradient norm :     0.0012745 Eh/α   predicted    -0.5020733E-05 ( -49.21%)
   displ. norm   :     0.0322654 α      lambda       -0.4750007E-05
   maximum displ.:     0.0262759 α      in ANC's #1, #3, #7, ...

........................................................................
.............................. CYCLE    7 ..............................
........................................................................
   1    -22.9575715 -0.229576E+02  0.169E-02    4.56       0.0  T
   2    -22.9575715 -0.326093E-07  0.989E-03    4.56       2.4  T
   3    -22.9575714  0.661432E-07  0.187E-03    4.56      12.6  T
   4    -22.9575715 -0.784987E-07  0.251E-04    4.56      93.8  T
   5    -22.9575715 -0.513023E-09  0.111E-04    4.56     213.1  T
     SCC iter.                  ...        0 min,  0.005 sec
     gradient                   ...        0 min,  0.001 sec
 * total energy  :   -22.5547299 Eh     change       -0.5196137E-05 Eh
   gradient norm :     0.0008210 Eh/α   predicted    -0.2374429E-05 ( -54.30%)
   displ. norm   :     0.0368201 α      lambda       -0.3400760E-05
   maximum displ.:     0.0274541 α      in ANC's #1, #3, #7, ...

........................................................................
.............................. CYCLE    8 ..............................
........................................................................
   1    -22.9577385 -0.229577E+02  0.177E-02    4.56       0.0  T
   2    -22.9577386 -0.442243E-07  0.104E-02    4.56       2.3  T
   3    -22.9577385  0.519726E-07  0.193E-03    4.56      12.2  T
   4    -22.9577386 -0.631305E-07  0.348E-04    4.56      67.8  T
   5    -22.9577386 -0.109586E-08  0.140E-04    4.56     168.0  T
     SCC iter.                  ...        0 min,  0.005 sec
     gradient                   ...        0 min,  0.002 sec
 * total energy  :   -22.5547326 Eh     change       -0.2701449E-05 Eh
   gradient norm :     0.0003965 Eh/α   predicted    -0.1700729E-05 ( -37.04%)
   displ. norm   :     0.0148613 α      lambda       -0.7583664E-06
   maximum displ.:     0.0094370 α      in ANC's #3, #1, #7, ...

   *** GEOMETRY OPTIMIZATION CONVERGED AFTER 8 ITERATIONS ***

------------------------------------------------------------------------
 total energy gain   :        -0.0020738 Eh       -1.3013 kcal/mol
 total RMSD          :         0.0955940 a0        0.0506 Å
 total power (kW/mol):        -0.6805916 (step)  -81.2590 (real)
------------------------------------------------------------------------

 ANCopt (total)                0 d,  0 h,  0 min,  0.067 sec
 optimizer setup                ...        0 min,  0.000 sec (  0.115%)
 model hessian                  ...        0 min,  0.003 sec (  5.059%)
 ANC generation                 ...        0 min,  0.001 sec (  1.343%)
 coordinate transformation      ...        0 min,  0.000 sec (  0.289%)
 single point calculation       ...        0 min,  0.060 sec ( 89.022%)
 optimization log               ...        0 min,  0.001 sec (  0.891%)
 hessian update                 ...        0 min,  0.000 sec (  0.350%)
 rational function              ...        0 min,  0.001 sec (  1.512%)

================
 final structure:
================
18
 xtb: 6.5.1 (fef0646)
N            1.37679567746128        0.68705224768771       -0.70746763881681
C            2.55115531822285        0.03220142173939       -0.02072866747547
C            3.02004372268567       -1.12935742829212       -0.84961585948223
C            3.96608769347904       -0.93516633323549       -1.85052850280692
C            4.37833145318222       -2.00033787841689       -2.63137125867349
C            3.84469800254672       -3.26161453335864       -2.42057458740331
C            2.89953661982152       -3.45950538249907       -1.42690470254742
C            2.48486875423538       -2.39643449322327       -0.64432785596466
H            1.02812724634898        1.49695989972927       -0.17944199098636
H            0.61841749504719       -0.00001398618974       -0.81272270024616
H            1.66232899940056        0.99279763683352       -1.64733658253863
H            2.22607813445484       -0.29528329563567        0.96739087968020
H            3.33783166733343        0.77951605926435        0.08924879991418
H            4.39685949847808        0.04350308140601       -2.00640003156566
H            5.11898577992466       -1.84677784991762       -3.39987991497139
H            4.17002253305179       -4.09180800840792       -3.02700425545807
H            2.48877179628422       -4.44205067671601       -1.25775413255255
H            1.75980960804154       -2.55763048076784        0.14039900189474

 Bond Distances (Angstroems)
 ---------------------------
N1-C2=1.5098         N1-H9=1.0278         N1-H10=1.0287        N1-H11=1.0288        C2-N1=1.5098         C2-C3=1.5020         
C2-H12=1.0906        C2-H13=1.0906        C3-C2=1.5020         C3-C4=1.3909         C3-C8=1.3907         C4-C3=1.3909         
C4-C5=1.3836         C4-H14=1.0806        C5-C4=1.3836         C5-C6=1.3856         C5-H15=1.0783        C6-C5=1.3856         
C6-C7=1.3856         C6-H16=1.0783        C7-C6=1.3856         C7-C8=1.3837         C7-H17=1.0783        C8-C3=1.3907         
C8-C7=1.3837         C8-H18=1.0805        H9-N1=1.0278         H10-N1=1.0287        H11-N1=1.0288        H12-C2=1.0906        
H13-C2=1.0906        H14-C4=1.0806        H15-C5=1.0783        H16-C6=1.0783        H17-C7=1.0783        H18-C8=1.0805        
 C  H  Rav=1.0825 sigma=0.0052  Rmin=1.0783  Rmax=1.0906     7
 C  C  Rav=1.4032 sigma=0.0405  Rmin=1.3836  Rmax=1.5020     7
 N  H  Rav=1.0284 sigma=0.0005  Rmin=1.0278  Rmax=1.0288     3
 N  C  Rav=1.5098 sigma=0.0000  Rmin=1.5098  Rmax=1.5098     1

 selected bond angles (degree)
 --------------------
H9-N1-C2=111.84                H10-N1-C2=109.28               H10-N1-H9=109.19               H11-N1-C2=109.18               
H11-N1-H9=109.23               H11-N1-H10=108.04              C3-C2-N1=109.10                H12-C2-N1=108.09               
H12-C2-C3=111.15               H13-C2-N1=108.04               H13-C2-C3=111.12               H13-C2-H12=109.23              
C4-C3-C2=120.10                C8-C3-C2=120.20                C8-C3-C4=119.68                C5-C4-C3=120.09                
H14-C4-C3=120.09               H14-C4-C5=119.81               C6-C5-C4=120.01                H15-C5-C4=119.82               
H15-C5-C6=120.17               C7-C6-C5=120.12                H16-C6-C5=119.94               H16-C6-C7=119.94               
C8-C7-C6=120.02                H17-C7-C6=120.16               H17-C7-C8=119.81               C7-C8-C3=120.08                
H18-C8-C3=120.09               H18-C8-C7=119.82               

 selected dihedral angles (degree)
 ---------------------------------
C3-C2-N1-H9=180.66            C3-C2-N1-H10= 59.63           C3-C2-N1-H11=301.66           H12-C2-N1-H9= 59.68           
H12-C2-N1-H10=298.65          H12-C2-N1-H11=180.68          H13-C2-N1-H9=301.59           H13-C2-N1-H10=180.56          
H13-C2-N1-H11= 62.59          C4-C3-C2-N1= 88.39            C4-C3-C2-H12=207.49           C4-C3-C2-H13=329.37           
C8-C3-C2-N1=270.11            C8-C3-C2-H12= 29.21           C8-C3-C2-H13=151.09           C5-C4-C3-C2=181.28            
C5-C4-C3-C8=359.57            H14-C4-C3-C2=  2.60           H14-C4-C3-C8=180.89           C6-C5-C4-C3=  0.27            
C6-C5-C4-H14=178.95           H15-C5-C4-C3=180.59           H15-C5-C4-H14=359.27          C7-C6-C5-C4=359.89            
C7-C6-C5-H15=179.57           H16-C6-C5-C4=180.27           H16-C6-C5-H15=359.94          C8-C7-C6-C5=  0.12            
C8-C7-C6-H16=179.74           H17-C7-C6-C5=180.42           H17-C7-C6-H16=  0.05          C7-C8-C3-C2=178.73            
C7-C8-C3-C4=  0.44            H18-C8-C3-C2=357.43           H18-C8-C3-C4=179.14           C3-C8-C7-C6=359.71            
C3-C8-C7-H17=179.41           H18-C8-C7-C6=181.01           H18-C8-C7-H17=  0.71          
           -------------------------------------------------
          |                Final Singlepoint                |
           -------------------------------------------------

          ...................................................
          :                      SETUP                      :
          :.................................................:
          :  # basis functions                  42          :
          :  # atomic orbitals                  42          :
          :  # shells                           26          :
          :  # electrons                        42          :
          :  max. iterations                   250          :
          :  Hamiltonian                  GFN2-xTB          :
          :  restarted?                      false          :
          :  GBSA solvation                  false          :
          :  PC potential                    false          :
          :  electronic temp.          300.0000000     K    :
          :  accuracy                    1.0000000          :
          :  -> integral cutoff          0.2500000E+02      :
          :  -> integral neglect         0.1000000E-07      :
          :  -> SCF convergence          0.1000000E-05 Eh   :
          :  -> wf. convergence          0.1000000E-03 e    :
          :  Broyden damping             0.4000000          :
          ...................................................

 iter      E             dE          RMSdq      gap      omega  full diag
   1    -22.9577386 -0.229577E+02  0.708E-05    4.56       0.0  T
   2    -22.9577386 -0.191989E-10  0.397E-05    4.56     594.4  T
   3    -22.9577386 -0.660094E-11  0.236E-05    4.56     999.2  T

   *** convergence criteria satisfied after 3 iterations ***

         #    Occupation            Energy/Eh            Energy/eV
      -------------------------------------------------------------
         1        2.0000           -0.8911851             -24.2504
       ...           ...                  ...                  ...
        15        2.0000           -0.6155697             -16.7505
        16        2.0000           -0.6127609             -16.6741
        17        2.0000           -0.6112393             -16.6327
        18        2.0000           -0.5596733             -15.2295
        19        2.0000           -0.5544801             -15.0882
        20        2.0000           -0.5432263             -14.7819
        21        2.0000           -0.5409475             -14.7199 (HOMO)
        22                         -0.3732776             -10.1574 (LUMO)
        23                         -0.3586809              -9.7602
        24                         -0.2620137              -7.1298
        25                         -0.2214820              -6.0268
        26                         -0.1514937              -4.1224
       ...                                ...                  ...
        42                          0.5271199              14.3437
      -------------------------------------------------------------
                  HL-Gap            0.1676700 Eh            4.5625 eV
             Fermi-level           -0.4571126 Eh          -12.4387 eV

 SCC (total)                   0 d,  0 h,  0 min,  0.005 sec
 SCC setup                      ...        0 min,  0.000 sec (  1.570%)
 Dispersion                     ...        0 min,  0.000 sec (  2.330%)
 classical contributions        ...        0 min,  0.000 sec (  0.523%)
 integral evaluation            ...        0 min,  0.001 sec (  9.340%)
 iterations                     ...        0 min,  0.003 sec ( 52.410%)
 molecular gradient             ...        0 min,  0.002 sec ( 28.674%)
 printout                       ...        0 min,  0.000 sec (  1.389%)

         :::::::::::::::::::::::::::::::::::::::::::::::::::::
         ::                     SUMMARY                     ::
         :::::::::::::::::::::::::::::::::::::::::::::::::::::
         :: total energy             -22.554732637146 Eh    ::
         :: gradient norm              0.000396703127 Eh/a0 ::
         :: HOMO-LUMO gap              4.562531836936 eV    ::
         ::.................................................::
         :: SCC energy               -22.957738588533 Eh    ::
         :: -> isotropic ES            0.105532032251 Eh    ::
         :: -> anisotropic ES         -0.011812694228 Eh    ::
         :: -> anisotropic XC          0.017744411777 Eh    ::
         :: -> dispersion             -0.012082403540 Eh    ::
         :: repulsion energy           0.402963062932 Eh    ::
         :: add. restraining           0.000000000000 Eh    ::
         :: total charge               1.000000000000 e     ::
         :::::::::::::::::::::::::::::::::::::::::::::::::::::

           -------------------------------------------------
          |                Property Printout                |
           -------------------------------------------------

    * Orbital Energies and Occupations

         #    Occupation            Energy/Eh            Energy/eV
      -------------------------------------------------------------
         1        2.0000           -0.8911851             -24.2504
       ...           ...                  ...                  ...
         9        2.0000           -0.7122473             -19.3812
        10        2.0000           -0.7051693             -19.1886
        11        2.0000           -0.6696672             -18.2226
        12        2.0000           -0.6662331             -18.1291
        13        2.0000           -0.6385891             -17.3769
        14        2.0000           -0.6225991             -16.9418
        15        2.0000           -0.6155697             -16.7505
        16        2.0000           -0.6127609             -16.6741
        17        2.0000           -0.6112393             -16.6327
        18        2.0000           -0.5596733             -15.2295
        19        2.0000           -0.5544801             -15.0882
        20        2.0000           -0.5432263             -14.7819
        21        2.0000           -0.5409475             -14.7199 (HOMO)
        22                         -0.3732776             -10.1574 (LUMO)
        23                         -0.3586809              -9.7602
        24                         -0.2620137              -7.1298
        25                         -0.2214820              -6.0268
        26                         -0.1514937              -4.1224
        27                         -0.0929195              -2.5285
        28                         -0.0905866              -2.4650
        29                         -0.0493056              -1.3417
        30                         -0.0186691              -0.5080
        31                          0.0055445               0.1509
        32                          0.0265670               0.7229
       ...                                ...                  ...
        42                          0.5271199              14.3437
      -------------------------------------------------------------
                  HL-Gap            0.1676700 Eh            4.5625 eV
             Fermi-level           -0.4571126 Eh          -12.4387 eV

     #   Z          covCN         q      C6AA      α(0)
     1   7 N        3.482    -0.130    23.801     7.246
     2   6 C        3.735    -0.035    21.286     6.584
     3   6 C        2.972    -0.015    28.370     8.737
     4   6 C        2.922    -0.039    28.957     8.825
     5   6 C        2.919    -0.019    28.483     8.752
     6   6 C        2.920    -0.015    28.379     8.736
     7   6 C        2.919    -0.019    28.481     8.752
     8   6 C        2.922    -0.038    28.947     8.823
     9   1 H        0.859     0.267     0.819     1.418
    10   1 H        0.859     0.271     0.807     1.407
    11   1 H        0.859     0.271     0.806     1.407
    12   1 H        0.924     0.105     1.737     2.061
    13   1 H        0.924     0.105     1.736     2.061
    14   1 H        0.926     0.045     2.389     2.417
    15   1 H        0.926     0.065     2.140     2.288
    16   1 H        0.926     0.068     2.103     2.268
    17   1 H        0.926     0.065     2.139     2.287
    18   1 H        0.926     0.045     2.382     2.414

 Mol. C6AA /au·bohr⁶  :       2951.831469
 Mol. C8AA /au·bohr⁸  :      69993.184916
 Mol. α(0) /au        :         86.480658


Wiberg/Mayer (AO) data.
largest (>0.10) Wiberg bond orders for each atom

 ---------------------------------------------------------------------------
     #   Z sym  total        # sym  WBO       # sym  WBO       # sym  WBO
 ---------------------------------------------------------------------------
     1   7 N    3.674 --     9 H    0.914    10 H    0.911    11 H    0.911
                             2 C    0.903
     2   6 C    3.883 --     3 C    1.006    12 H    0.966    13 H    0.966
                             1 N    0.903
     3   6 C    3.972 --     8 C    1.406     4 C    1.405     2 C    1.006
                             6 C    0.107
     4   6 C    3.991 --     5 C    1.446     3 C    1.405    14 H    0.968
                             7 C    0.109
     5   6 C    3.989 --     4 C    1.446     6 C    1.437    15 H    0.968
                             8 C    0.109
     6   6 C    3.987 --     7 C    1.437     5 C    1.437    16 H    0.968
                             3 C    0.107
     7   6 C    3.989 --     8 C    1.446     6 C    1.437    17 H    0.968
                             4 C    0.109
     8   6 C    3.991 --     7 C    1.446     3 C    1.406    18 H    0.968
                             5 C    0.109
     9   1 H    0.928 --     1 N    0.914
    10   1 H    0.927 --     1 N    0.911
    11   1 H    0.927 --     1 N    0.911
    12   1 H    0.989 --     2 C    0.966
    13   1 H    0.989 --     2 C    0.966
    14   1 H    0.998 --     4 C    0.968
    15   1 H    0.995 --     5 C    0.968
    16   1 H    0.995 --     6 C    0.968
    17   1 H    0.995 --     7 C    0.968
    18   1 H    0.998 --     8 C    0.968
 ---------------------------------------------------------------------------

Topologies differ in total number of bonds
Writing topology from bond orders to xtbtopo.mol

molecular dipole:
                 x           y           z       tot (Debye)
 q only:        3.367       0.231      -1.670
   full:        3.187       0.407      -1.684       9.219
molecular quadrupole (traceless):
                xx          xy          yy          xz          yz          zz
 q only:        8.188      -4.285      -1.706     -12.366       3.625      -6.482
  q+dip:        5.702      -1.723       0.640     -15.287       3.551      -6.343
   full:        6.647      -2.770      -0.590     -13.039       3.069      -6.057

           -------------------------------------------------
          |                Geometry Summary                 |
           -------------------------------------------------

      molecular mass/u    :      108.1612620
   center of mass at/Å    :        2.9982050      -1.4637403      -1.2884975
  moments of inertia/u·Å² :        0.1118534E+03   0.3474638E+03   0.4171946E+03
rotational constants/cm⁻¹ :        0.1507119E+00   0.4851623E-01   0.4040712E-01

 * 17 selected distances

     #   Z          #   Z                                           value/Å
     1   7 N        2   6 C                                       1.5098215 (max)
     3   6 C        4   6 C                                       1.3908759
     4   6 C        5   6 C                                       1.3835646
     5   6 C        6   6 C                                       1.3856475
     6   6 C        7   6 C                                       1.3855941
     3   6 C        8   6 C                                       1.3906977
     7   6 C        8   6 C                                       1.3836531
     1   7 N        9   1 H                                       1.0277798 (min)
     1   7 N       10   1 H                                       1.0287256
     1   7 N       11   1 H                                       1.0287679
     2   6 C       12   1 H                                       1.0905512
     2   6 C       13   1 H                                       1.0906118
     4   6 C       14   1 H                                       1.0805805
     5   6 C       15   1 H                                       1.0783113
     6   6 C       16   1 H                                       1.0783387
     7   6 C       17   1 H                                       1.0783020
     8   6 C       18   1 H                                       1.0805051

 * 4 distinct bonds (by element types)

   Z      Z             #   av. dist./Å        max./Å        min./Å
   1 H    6 C           7     1.0824572     1.0906118     1.0783020
   6 C    6 C           6     1.3866722     1.3908759     1.3835646
   1 H    7 N           3     1.0284244     1.0287679     1.0277798
   6 C    7 N           1     1.5098215     1.5098215     1.5098215


optimized geometry written to: xtbopt.xyz


           -------------------------------------------------
          | TOTAL ENERGY              -22.554732637146 Eh   |
          | GRADIENT NORM               0.000396703127 Eh/α |
          | HOMO-LUMO GAP               4.562531836936 eV   |
           -------------------------------------------------

------------------------------------------------------------------------
 * finished run on 2023/01/23 at 18:52:12.088     
------------------------------------------------------------------------
 total:
 * wall-time:     0 d,  0 h,  0 min,  0.116 sec
 *  cpu-time:     0 d,  0 h,  0 min, 15.910 sec
 * ratio c/w:   137.224 speedup
 SCF:
 * wall-time:     0 d,  0 h,  0 min,  0.020 sec
 *  cpu-time:     0 d,  0 h,  0 min,  2.770 sec
 * ratio c/w:   136.634 speedup
 ANC optimizer:
 * wall-time:     0 d,  0 h,  0 min,  0.073 sec
 *  cpu-time:     0 d,  0 h,  0 min, 10.169 sec
 * ratio c/w:   138.884 speedup

