      -----------------------------------------------------------      
     |                   =====================                   |     
     |                           x T B                           |     
     |                   =====================                   |     
     |                         S. Grimme                         |     
     |          Mulliken Center for Theoretical Chemistry        |     
     |                    University of Bonn                     |     
      -----------------------------------------------------------      

   * xtb version 6.5.1 (fef0646) compiled by 'conda@b96dff2e9fd6' on 2023-01-04

   xtb is free software: you can redistribute it and/or modify it under
   the terms of the GNU Lesser General Public License as published by
   the Free Software Foundation, either version 3 of the License, or
   (at your option) any later version.
   
   xtb is distributed in the hope that it will be useful,
   but WITHOUT ANY WARRANTY; without even the implied warranty of
   MERCHANTABILITY or FITNESS FOR A PARTICULAR PURPOSE.  See the
   GNU Lesser General Public License for more details.
   
   Cite this work as:
   * C. Bannwarth, E. Caldeweyher, S. Ehlert, A. Hansen, P. Pracht,
     J. Seibert, S. Spicher, S. Grimme, WIREs Comput. Mol. Sci., 2020, 11,
     e01493. DOI: 10.1002/wcms.1493
   
   for GFN2-xTB:
   * C. Bannwarth, S. Ehlert and S. Grimme., J. Chem. Theory Comput., 2019,
     15, 1652-1671. DOI: 10.1021/acs.jctc.8b01176
   for GFN1-xTB:
   * S. Grimme, C. Bannwarth, P. Shushkov, J. Chem. Theory Comput., 2017,
     13, 1989-2009. DOI: 10.1021/acs.jctc.7b00118
   for GFN0-xTB:
   * P. Pracht, E. Caldeweyher, S. Ehlert, S. Grimme, ChemRxiv, 2019, preprint.
     DOI: 10.26434/chemrxiv.8326202.v1
   for GFN-FF:
   * S. Spicher and S. Grimme, Angew. Chem. Int. Ed., 2020, 59, 15665-15673.
     DOI: 10.1002/anie.202004239
   
   for ALPB and GBSA implicit solvation:
   * S. Ehlert, M. Stahn, S. Spicher, S. Grimme, J. Chem. Theory Comput.,
     2021, 17, 4250-4261. DOI: 10.1021/acs.jctc.1c00471
   
   for DFT-D4:
   * E. Caldeweyher, C. Bannwarth and S. Grimme, J. Chem. Phys., 2017,
     147, 034112. DOI: 10.1063/1.4993215
   * E. Caldeweyher, S. Ehlert, A. Hansen, H. Neugebauer, S. Spicher,
     C. Bannwarth and S. Grimme, J. Chem. Phys., 2019, 150, 154122.
     DOI: 10.1063/1.5090222
   * E. Caldeweyher, J.-M. Mewes, S. Ehlert and S. Grimme, Phys. Chem. Chem. Phys.
     2020, 22, 8499-8512. DOI: 10.1039/D0CP00502A
   
   for sTDA-xTB:
   * S. Grimme and C. Bannwarth, J. Chem. Phys., 2016, 145, 054103.
     DOI: 10.1063/1.4959605
   
   in the mass-spec context:
   * V. Asgeirsson, C. Bauer and S. Grimme, Chem. Sci., 2017, 8, 4879.
     DOI: 10.1039/c7sc00601b
   * J. Koopman and S. Grimme, ACS Omega 2019, 4, 12, 15120-15133.
     DOI: 10.1021/acsomega.9b02011
   
   for metadynamics refer to:
   * S. Grimme, J. Chem. Theory Comput., 2019, 155, 2847-2862
     DOI: 10.1021/acs.jctc.9b00143
   
   for SPH calculations refer to:
   * S. Spicher and S. Grimme, J. Chem. Theory Comput., 2021, 17, 1701-1714
     DOI: 10.1021/acs.jctc.0c01306
   
   with help from (in alphabetical order)
   P. Atkinson, C. Bannwarth, F. Bohle, G. Brandenburg, E. Caldeweyher
   M. Checinski, S. Dohm, S. Ehlert, S. Ehrlich, I. Gerasimov, C. Hölzer
   A. Katbashev, J. Koopman, C. Lavigne, S. Lehtola, F. März, M. Müller,
   F. Musil, H. Neugebauer, J. Pisarek, C. Plett, P. Pracht, F. Pultar,
   J. Seibert, P. Shushkov, S. Spicher, M. Stahn, M. Steiner, T. Strunk,
   J. Stückrath, T. Rose, and J. Unsleber
   
 * started run on 2023/01/24 at 15:37:43.419     

           -------------------------------------------------
          |                Calculation Setup                |
           -------------------------------------------------

          program call               : xtb init.xyz --opt -c 1 -u 0 -P 16 --alpb water
          hostname                   : gpg-woodward
          coordinate file            : init.xyz
          omp threads                :                    16

   ID    Z sym.   atoms
    1    7 N      1, 24, 26
    2    6 C      2-21, 23, 27
    3   16 S      22, 25, 28, 29
    4    1 H      30-49

           -------------------------------------------------
          |                 G F N 2 - x T B                 |
           -------------------------------------------------

        Reference                      10.1021/acs.jctc.8b01176
      * Hamiltonian:
        H0-scaling (s, p, d)           1.850000    2.230000    2.230000
        zeta-weighting                 0.500000
      * Dispersion:
        s8                             2.700000
        a1                             0.520000
        a2                             5.000000
        s9                             5.000000
      * Repulsion:
        kExp                           1.500000    1.000000
        rExp                           1.000000
      * Coulomb:
        alpha                          2.000000
        third order                    shell-resolved
        anisotropic                    true
        a3                             3.000000
        a5                             4.000000
        cn-shift                       1.200000
        cn-exp                         4.000000
        max-rad                        5.000000

      * Solvation model:               ALPB
        Solvent                        water
        Parameter file                 internal GFN2-xTB/ALPB
        Dielectric constant                8.0200E+01
        Reference state                gsolv [1 M gas/solution]
        Free energy shift                  1.0808E-03 Eh       6.7819E-01 kcal/mol
        Temperature                        2.9815E+02 K
        Density                            1.0000E+00 kg/L
        Solvent mass                       1.8000E+01 g/mol
        Interaction kernel             P16
        Born radius scaling (c1)           1.4744E+00
        Born radii integrator          GBOBC
        Born offset                        0.0000E+00 a0       0.0000E+00 AA
        H-bond correction              true
        Ion screening                  false
        Surface tension                    1.0000E-05 Eh       1.5569E+01 dyn/cm
        Grid points                               230 per atom

          ...................................................
          :                      SETUP                      :
          :.................................................:
          :  # basis functions                 160          :
          :  # atomic orbitals                 156          :
          :  # shells                           82          :
          :  # electrons                       146          :
          :  max. iterations                   250          :
          :  Hamiltonian                  GFN2-xTB          :
          :  restarted?                      false          :
          :  GBSA solvation                   true          :
          :  PC potential                    false          :
          :  electronic temp.          300.0000000     K    :
          :  accuracy                    1.0000000          :
          :  -> integral cutoff          0.2500000E+02      :
          :  -> integral neglect         0.1000000E-07      :
          :  -> SCF convergence          0.1000000E-05 Eh   :
          :  -> wf. convergence          0.1000000E-03 e    :
          :  Broyden damping             0.4000000          :
          ...................................................

 iter      E             dE          RMSdq      gap      omega  full diag
   1    -79.6449932 -0.796450E+02  0.390E+00    1.40       0.0  T
   2    -79.7619959 -0.117003E+00  0.235E+00    1.34       1.0  T
   3    -79.7618102  0.185681E-03  0.129E+00    1.29       1.0  T
   4    -79.7860995 -0.242893E-01  0.538E-01    1.29       1.0  T
   5    -79.7894620 -0.336250E-02  0.268E-01    1.26       1.0  T
   6    -79.7907394 -0.127740E-02  0.138E-01    1.26       1.0  T
   7    -79.7908307 -0.913585E-04  0.555E-02    1.26       1.0  T
   8    -79.7908514 -0.206413E-04  0.303E-02    1.26       1.0  T
   9    -79.7908610 -0.960975E-05  0.142E-02    1.25       1.0  T
  10    -79.7908628 -0.183370E-05  0.688E-03    1.25       2.1  T
  11    -79.7908635 -0.724157E-06  0.350E-03    1.25       4.1  T
  12    -79.7908637 -0.192776E-06  0.108E-03    1.25      13.3  T
  13    -79.7908637 -0.152492E-07  0.579E-04    1.25      24.7  T
  14    -79.7908637 -0.105196E-08  0.323E-04    1.25      44.2  T

   *** convergence criteria satisfied after 14 iterations ***

         #    Occupation            Energy/Eh            Energy/eV
      -------------------------------------------------------------
         1        2.0000           -0.7642895             -20.7974
       ...           ...                  ...                  ...
        67        2.0000           -0.4150945             -11.2953
        68        2.0000           -0.4055840             -11.0365
        69        2.0000           -0.4018894             -10.9360
        70        2.0000           -0.3953951             -10.7592
        71        2.0000           -0.3923472             -10.6763
        72        2.0000           -0.3834105             -10.4331
        73        2.0000           -0.3664399              -9.9713 (HOMO)
        74                         -0.3204587              -8.7201 (LUMO)
        75                         -0.2757258              -7.5029
        76                         -0.2561621              -6.9705
        77                         -0.2394805              -6.5166
        78                         -0.2332889              -6.3481
       ...                                ...                  ...
       156                          0.6964099              18.9503
      -------------------------------------------------------------
                  HL-Gap            0.0459813 Eh            1.2512 eV
             Fermi-level           -0.3434493 Eh           -9.3457 eV

 SCC (total)                   0 d,  0 h,  0 min,  0.308 sec
 SCC setup                      ...        0 min,  0.001 sec (  0.225%)
 Dispersion                     ...        0 min,  0.001 sec (  0.274%)
 classical contributions        ...        0 min,  0.000 sec (  0.018%)
 integral evaluation            ...        0 min,  0.005 sec (  1.765%)
 iterations                     ...        0 min,  0.287 sec ( 93.158%)
 molecular gradient             ...        0 min,  0.012 sec (  3.797%)
 printout                       ...        0 min,  0.002 sec (  0.642%)

         :::::::::::::::::::::::::::::::::::::::::::::::::::::
         ::                     SUMMARY                     ::
         :::::::::::::::::::::::::::::::::::::::::::::::::::::
         :: total energy             -78.724050675808 Eh    ::
         :: total w/o Gsasa/hb       -78.713917750055 Eh    ::
         :: gradient norm              0.098962866091 Eh/a0 ::
         :: HOMO-LUMO gap              1.251213528011 eV    ::
         ::.................................................::
         :: SCC energy               -79.790863736415 Eh    ::
         :: -> isotropic ES            0.156965922484 Eh    ::
         :: -> anisotropic ES         -0.025747313338 Eh    ::
         :: -> anisotropic XC          0.044127969124 Eh    ::
         :: -> dispersion             -0.063881844283 Eh    ::
         :: -> Gsolv                  -0.128154054045 Eh    ::
         ::    -> Gelec               -0.118021128292 Eh    ::
         ::    -> Gsasa                0.000204326870 Eh    ::
         ::    -> Ghb                 -0.011418012321 Eh    ::
         ::    -> Gshift               0.001080759698 Eh    ::
         :: repulsion energy           1.067240672715 Eh    ::
         :: add. restraining           0.000000000000 Eh    ::
         :: total charge               1.000000000000 e     ::
         :::::::::::::::::::::::::::::::::::::::::::::::::::::

      ----------------------------------------------------------- 
     |                   =====================                   |
     |                        A N C O P T                        |
     |                   =====================                   |
     |               Approximate Normal Coordinate               |
     |                Rational Function Optimizer                |
      ----------------------------------------------------------- 

          ...................................................
          :                      SETUP                      :
          :.................................................:
          :   optimization level            normal          :
          :   max. optcycles                   200          :
          :   ANC micro-cycles                  20          :
          :   degrees of freedom               141          :
          :.................................................:
          :   RF solver                   davidson          :
          :   write xtbopt.log                true          :
          :   linear?                        false          :
          :   energy convergence         0.5000000E-05 Eh   :
          :   grad. convergence          0.1000000E-02 Eh/α :
          :   maximium RF displ.         1.0000000          :
          :   Hlow (freq-cutoff)         0.1000000E-01      :
          :   Hmax (freq-cutoff)         5.0000000          :
          :   S6 in model hess.         20.0000000          :
          ...................................................

generating ANC from model Hessian ...
Using Lindh-Hessian (1995)
 Shifting diagonal of input Hessian by    9.9053461688650146E-003
 Lowest  eigenvalues of input Hessian
    0.000000    0.000000    0.000000    0.000000    0.000000    0.000000
    0.010000    0.010212    0.010280    0.010543    0.010560    0.011124
    0.011617    0.011898    0.012586    0.013183    0.014232    0.014806
 Highest eigenvalues
    1.813774    1.824194    1.836720    1.923236    1.936896    1.971649


........................................................................
.............................. CYCLE    1 ..............................
........................................................................
   1    -79.7908637 -0.797909E+02  0.129E-04    1.25       0.0  T
   2    -79.7908637 -0.899973E-10  0.930E-05    1.25     153.5  T
   3    -79.7908637 -0.672458E-10  0.677E-05    1.25     211.0  T
     SCC iter.                  ...        0 min,  0.062 sec
     gradient                   ...        0 min,  0.013 sec
 * total energy  :   -78.7240507 Eh     change       -0.1810605E-08 Eh
   gradient norm :     0.0989636 Eh/α   predicted     0.0000000E+00 (-100.00%)
   displ. norm   :     0.4082839 α      lambda       -0.2150463E-01
   maximum displ.:     0.1789846 α      in ANC's #28, #14, #24, ...

........................................................................
.............................. CYCLE    2 ..............................
........................................................................
   1    -79.8558724 -0.798559E+02  0.216E-01    1.31       0.0  T
   2    -79.8559955 -0.123126E-03  0.127E-01    1.31       1.0  T
   3    -79.8559564  0.391375E-04  0.542E-02    1.30       1.0  T
   4    -79.8560320 -0.756431E-04  0.222E-02    1.30       1.0  T
   5    -79.8560376 -0.557527E-05  0.897E-03    1.30       1.6  T
   6    -79.8560387 -0.115322E-05  0.479E-03    1.30       3.0  T
   7    -79.8560390 -0.249835E-06  0.251E-03    1.30       5.7  T
   8    -79.8560390 -0.238503E-07  0.114E-03    1.30      12.6  T
   9    -79.8560390 -0.171382E-07  0.552E-04    1.30      25.9  T
  10    -79.8560390 -0.333630E-08  0.248E-04    1.30      57.7  T
     SCC iter.                  ...        0 min,  0.205 sec
     gradient                   ...        0 min,  0.014 sec
 * total energy  :   -78.7395346 Eh     change       -0.1548390E-01 Eh
   gradient norm :     0.0493730 Eh/α   predicted    -0.1262451E-01 ( -18.47%)
   displ. norm   :     0.4269662 α      lambda       -0.8813005E-02
   maximum displ.:     0.2104957 α      in ANC's #14, #28, #23, ...

........................................................................
.............................. CYCLE    3 ..............................
........................................................................
   1    -79.8969573 -0.798970E+02  0.176E-01    1.34       0.0  T
   2    -79.8970488 -0.915552E-04  0.994E-02    1.34       1.0  T
   3    -79.8970302  0.186763E-04  0.428E-02    1.33       1.0  T
   4    -79.8970687 -0.385450E-04  0.202E-02    1.32       1.0  T
   5    -79.8970747 -0.596147E-05  0.716E-03    1.32       2.0  T
   6    -79.8970755 -0.821674E-06  0.364E-03    1.32       3.9  T
   7    -79.8970756 -0.152784E-06  0.206E-03    1.32       6.9  T
   8    -79.8970757 -0.145080E-07  0.899E-04    1.32      15.9  T
   9    -79.8970757 -0.710885E-08  0.422E-04    1.32      33.8  T
     SCC iter.                  ...        0 min,  0.181 sec
     gradient                   ...        0 min,  0.014 sec
 * total energy  :   -78.7448538 Eh     change       -0.5319198E-02 Eh
   gradient norm :     0.0197339 Eh/α   predicted    -0.5209810E-02 (  -2.06%)
   displ. norm   :     0.3184936 α      lambda       -0.2035812E-02
   maximum displ.:     0.1884488 α      in ANC's #14, #18, #23, ...

........................................................................
.............................. CYCLE    4 ..............................
........................................................................
   1    -79.9032328 -0.799032E+02  0.102E-01    1.31       0.0  T
   2    -79.9032498 -0.170523E-04  0.555E-02    1.31       1.0  T
   3    -79.9032433  0.646061E-05  0.214E-02    1.31       1.0  T
   4    -79.9032532 -0.981217E-05  0.867E-03    1.31       1.6  T
   5    -79.9032543 -0.115412E-05  0.356E-03    1.31       4.0  T
   6    -79.9032546 -0.279831E-06  0.129E-03    1.31      11.1  T
   7    -79.9032546 -0.137952E-07  0.720E-04    1.31      19.9  T
   8    -79.9032546 -0.130696E-08  0.405E-04    1.31      35.2  T
     SCC iter.                  ...        0 min,  0.161 sec
     gradient                   ...        0 min,  0.013 sec
 * total energy  :   -78.7463395 Eh     change       -0.1485684E-02 Eh
   gradient norm :     0.0124774 Eh/α   predicted    -0.1121291E-02 ( -24.53%)
   displ. norm   :     0.3953073 α      lambda       -0.1478135E-02
   maximum displ.:     0.2169716 α      in ANC's #14, #18, #5, ...

........................................................................
.............................. CYCLE    5 ..............................
........................................................................
   1    -79.9034463 -0.799034E+02  0.105E-01    1.29       0.0  T
   2    -79.9034613 -0.150246E-04  0.581E-02    1.29       1.0  T
   3    -79.9034543  0.705508E-05  0.208E-02    1.28       1.0  T
   4    -79.9034646 -0.103582E-04  0.770E-03    1.28       1.9  T
   5    -79.9034654 -0.760805E-06  0.328E-03    1.28       4.4  T
   6    -79.9034657 -0.270289E-06  0.117E-03    1.28      12.2  T
   7    -79.9034657 -0.124034E-07  0.607E-04    1.28      23.5  T
   8    -79.9034657 -0.105946E-08  0.385E-04    1.28      37.1  T
     SCC iter.                  ...        0 min,  0.158 sec
     gradient                   ...        0 min,  0.013 sec
 * total energy  :   -78.7473580 Eh     change       -0.1018537E-02 Eh
   gradient norm :     0.0101099 Eh/α   predicted    -0.8545626E-03 ( -16.10%)
   displ. norm   :     0.3539485 α      lambda       -0.7693927E-03
   maximum displ.:     0.1649379 α      in ANC's #4, #5, #14, ...

........................................................................
.............................. CYCLE    6 ..............................
........................................................................
   1    -79.9025139 -0.799025E+02  0.777E-02    1.27       0.0  T
   2    -79.9025194 -0.545455E-05  0.432E-02    1.27       1.0  T
   3    -79.9025169  0.246942E-05  0.122E-02    1.27       1.2  T
   4    -79.9025204 -0.344609E-05  0.483E-03    1.27       3.0  T
   5    -79.9025207 -0.358154E-06  0.163E-03    1.27       8.8  T
   6    -79.9025208 -0.363931E-07  0.788E-04    1.27      18.1  T
   7    -79.9025208 -0.816405E-08  0.417E-04    1.27      34.3  T
     SCC iter.                  ...        0 min,  0.137 sec
     gradient                   ...        0 min,  0.014 sec
 * total energy  :   -78.7479433 Eh     change       -0.5852624E-03 Eh
   gradient norm :     0.0112648 Eh/α   predicted    -0.4328923E-03 ( -26.03%)
   displ. norm   :     0.3864113 α      lambda       -0.7313399E-03
   maximum displ.:     0.2127715 α      in ANC's #4, #5, #18, ...

........................................................................
.............................. CYCLE    7 ..............................
........................................................................
   1    -79.9029635 -0.799030E+02  0.773E-02    1.25       0.0  T
   2    -79.9029674 -0.389956E-05  0.436E-02    1.25       1.0  T
   3    -79.9029662  0.119496E-05  0.960E-03    1.26       1.5  T
   4    -79.9029678 -0.163601E-05  0.475E-03    1.26       3.0  T
   5    -79.9029683 -0.448333E-06  0.165E-03    1.26       8.7  T
   6    -79.9029683 -0.232493E-07  0.762E-04    1.26      18.8  T
   7    -79.9029683 -0.977420E-08  0.434E-04    1.26      32.9  T
     SCC iter.                  ...        0 min,  0.138 sec
     gradient                   ...        0 min,  0.014 sec
 * total energy  :   -78.7485111 Eh     change       -0.5678810E-03 Eh
   gradient norm :     0.0099139 Eh/α   predicted    -0.4202701E-03 ( -25.99%)
   displ. norm   :     0.3920594 α      lambda       -0.6280136E-03
   maximum displ.:     0.2444855 α      in ANC's #4, #5, #16, ...

........................................................................
.............................. CYCLE    8 ..............................
........................................................................
   1    -79.9047792 -0.799048E+02  0.758E-02    1.25       0.0  T
   2    -79.9047832 -0.403131E-05  0.426E-02    1.25       1.0  T
   3    -79.9047817  0.157231E-05  0.102E-02    1.25       1.4  T
   4    -79.9047838 -0.218728E-05  0.463E-03    1.25       3.1  T
   5    -79.9047842 -0.367279E-06  0.184E-03    1.25       7.8  T
   6    -79.9047843 -0.523248E-07  0.745E-04    1.25      19.2  T
   7    -79.9047843 -0.809743E-08  0.404E-04    1.25      35.4  T
     SCC iter.                  ...        0 min,  0.141 sec
     gradient                   ...        0 min,  0.014 sec
 * total energy  :   -78.7489849 Eh     change       -0.4737767E-03 Eh
   gradient norm :     0.0071020 Eh/α   predicted    -0.3622735E-03 ( -23.53%)
   displ. norm   :     0.3614807 α      lambda       -0.4082070E-03
   maximum displ.:     0.2432212 α      in ANC's #4, #5, #16, ...

........................................................................
.............................. CYCLE    9 ..............................
........................................................................
   1    -79.9062430 -0.799062E+02  0.656E-02    1.25       0.0  T
   2    -79.9062460 -0.298184E-05  0.366E-02    1.25       1.0  T
   3    -79.9062444  0.156087E-05  0.948E-03    1.25       1.5  T
   4    -79.9062466 -0.221982E-05  0.372E-03    1.25       3.8  T
   5    -79.9062468 -0.182330E-06  0.157E-03    1.25       9.1  T
   6    -79.9062469 -0.467390E-07  0.608E-04    1.25      23.5  T
   7    -79.9062469 -0.419369E-08  0.313E-04    1.25      45.7  T
     SCC iter.                  ...        0 min,  0.140 sec
     gradient                   ...        0 min,  0.012 sec
 * total energy  :   -78.7492995 Eh     change       -0.3146160E-03 Eh
   gradient norm :     0.0056828 Eh/α   predicted    -0.2307741E-03 ( -26.65%)
   displ. norm   :     0.3221365 α      lambda       -0.3008712E-03
   maximum displ.:     0.2315999 α      in ANC's #4, #5, #16, ...

........................................................................
.............................. CYCLE   10 ..............................
........................................................................
   1    -79.9079090 -0.799079E+02  0.572E-02    1.25       0.0  T
   2    -79.9079114 -0.232594E-05  0.317E-02    1.25       1.0  T
   3    -79.9079103  0.103871E-05  0.810E-03    1.25       1.8  T
   4    -79.9079118 -0.147979E-05  0.323E-03    1.25       4.4  T
   5    -79.9079120 -0.160910E-06  0.120E-03    1.25      11.9  T
   6    -79.9079120 -0.236117E-07  0.506E-04    1.25      28.3  T
   7    -79.9079120 -0.384706E-08  0.232E-04    1.25      61.5  T
     SCC iter.                  ...        0 min,  0.138 sec
     gradient                   ...        0 min,  0.014 sec
 * total energy  :   -78.7495337 Eh     change       -0.2341916E-03 Eh
   gradient norm :     0.0053174 Eh/α   predicted    -0.1660487E-03 ( -29.10%)
   displ. norm   :     0.3335428 α      lambda       -0.2504073E-03
   maximum displ.:     0.2393744 α      in ANC's #4, #5, #16, ...

........................................................................
.............................. CYCLE   11 ..............................
........................................................................
   1    -79.9066610 -0.799067E+02  0.560E-02    1.25       0.0  T
   2    -79.9066627 -0.171065E-05  0.317E-02    1.25       1.0  T
   3    -79.9066619  0.791813E-06  0.683E-03    1.25       2.1  T
   4    -79.9066630 -0.112573E-05  0.280E-03    1.25       5.1  T
   5    -79.9066631 -0.131113E-06  0.993E-04    1.25      14.4  T
   6    -79.9066632 -0.116133E-07  0.432E-04    1.25      33.1  T
     SCC iter.                  ...        0 min,  0.117 sec
     gradient                   ...        0 min,  0.012 sec
 * total energy  :   -78.7497184 Eh     change       -0.1846856E-03 Eh
   gradient norm :     0.0053633 Eh/α   predicted    -0.1391339E-03 ( -24.66%)
   displ. norm   :     0.3048638 α      lambda       -0.2554673E-03
   maximum displ.:     0.2295266 α      in ANC's #4, #5, #7, ...

........................................................................
.............................. CYCLE   12 ..............................
........................................................................
   1    -79.9083713 -0.799084E+02  0.523E-02    1.25       0.0  T
   2    -79.9083732 -0.189280E-05  0.296E-02    1.25       1.0  T
   3    -79.9083725  0.649890E-06  0.615E-03    1.25       2.3  T
   4    -79.9083734 -0.889982E-06  0.291E-03    1.25       4.9  T
   5    -79.9083736 -0.200020E-06  0.965E-04    1.25      14.8  T
   6    -79.9083736 -0.568696E-08  0.409E-04    1.25      34.9  T
     SCC iter.                  ...        0 min,  0.119 sec
     gradient                   ...        0 min,  0.014 sec
 * total energy  :   -78.7498906 Eh     change       -0.1721829E-03 Eh
   gradient norm :     0.0060900 Eh/α   predicted    -0.1396070E-03 ( -18.92%)
   displ. norm   :     0.2765960 α      lambda       -0.1690605E-03
   maximum displ.:     0.2101290 α      in ANC's #4, #5, #7, ...

........................................................................
.............................. CYCLE   13 ..............................
........................................................................
   1    -79.9071502 -0.799072E+02  0.450E-02    1.25       0.0  T
   2    -79.9071511 -0.886399E-06  0.256E-02    1.25       1.0  T
   3    -79.9071506  0.529871E-06  0.482E-03    1.25       3.0  T
   4    -79.9071513 -0.728016E-06  0.222E-03    1.25       6.4  T
   5    -79.9071514 -0.974071E-07  0.770E-04    1.25      18.5  T
   6    -79.9071514 -0.683440E-08  0.324E-04    1.25      44.1  T
     SCC iter.                  ...        0 min,  0.120 sec
     gradient                   ...        0 min,  0.014 sec
 * total energy  :   -78.7500313 Eh     change       -0.1406931E-03 Eh
   gradient norm :     0.0051211 Eh/α   predicted    -0.9099830E-04 ( -35.32%)
   displ. norm   :     0.2863302 α      lambda       -0.1996528E-03
   maximum displ.:     0.2169387 α      in ANC's #4, #7, #5, ...

........................................................................
.............................. CYCLE   14 ..............................
........................................................................
   1    -79.9075967 -0.799076E+02  0.508E-02    1.25       0.0  T
   2    -79.9075982 -0.149578E-05  0.284E-02    1.25       1.0  T
   3    -79.9075972  0.979312E-06  0.699E-03    1.25       2.0  T
   4    -79.9075985 -0.131015E-05  0.292E-03    1.25       4.9  T
   5    -79.9075987 -0.151823E-06  0.101E-03    1.25      14.1  T
   6    -79.9075987 -0.155168E-07  0.481E-04    1.25      29.7  T
   7    -79.9075987 -0.200477E-08  0.231E-04    1.25      61.7  T
     SCC iter.                  ...        0 min,  0.141 sec
     gradient                   ...        0 min,  0.014 sec
 * total energy  :   -78.7501932 Eh     change       -0.1619180E-03 Eh
   gradient norm :     0.0041531 Eh/α   predicted    -0.1080170E-03 ( -33.29%)
   displ. norm   :     0.3841452 α      lambda       -0.2311903E-03
   maximum displ.:     0.2797533 α      in ANC's #4, #7, #8, ...

........................................................................
.............................. CYCLE   15 ..............................
........................................................................
   1    -79.9060250 -0.799060E+02  0.735E-02    1.25       0.0  T
   2    -79.9060280 -0.299508E-05  0.412E-02    1.25       1.0  T
   3    -79.9060266  0.142445E-05  0.932E-03    1.25       1.5  T
   4    -79.9060287 -0.208361E-05  0.389E-03    1.25       3.7  T
   5    -79.9060289 -0.243676E-06  0.140E-03    1.25      10.2  T
   6    -79.9060290 -0.246625E-07  0.693E-04    1.25      20.6  T
   7    -79.9060290 -0.390817E-08  0.361E-04    1.25      39.6  T
     SCC iter.                  ...        0 min,  0.142 sec
     gradient                   ...        0 min,  0.014 sec
 * total energy  :   -78.7503554 Eh     change       -0.1622167E-03 Eh
   gradient norm :     0.0059551 Eh/α   predicted    -0.1326556E-03 ( -18.22%)
   displ. norm   :     0.3802892 α      lambda       -0.2230464E-03
   maximum displ.:     0.2700169 α      in ANC's #4, #6, #7, ...

........................................................................
.............................. CYCLE   16 ..............................
........................................................................
   1    -79.9072301 -0.799072E+02  0.757E-02    1.25       0.0  T
   2    -79.9072333 -0.320239E-05  0.425E-02    1.25       1.0  T
   3    -79.9072317  0.156802E-05  0.984E-03    1.25       1.5  T
   4    -79.9072341 -0.234419E-05  0.386E-03    1.25       3.7  T
   5    -79.9072343 -0.208530E-06  0.148E-03    1.25       9.7  T
   6    -79.9072343 -0.275451E-07  0.723E-04    1.25      19.8  T
   7    -79.9072343 -0.440203E-08  0.390E-04    1.25      36.6  T
     SCC iter.                  ...        0 min,  0.142 sec
     gradient                   ...        0 min,  0.014 sec
 * total energy  :   -78.7504972 Eh     change       -0.1418083E-03 Eh
   gradient norm :     0.0071437 Eh/α   predicted    -0.1276519E-03 (  -9.98%)
   displ. norm   :     0.3151214 α      lambda       -0.1692696E-03
   maximum displ.:     0.2128825 α      in ANC's #4, #6, #7, ...

........................................................................
.............................. CYCLE   17 ..............................
........................................................................
   1    -79.9080287 -0.799080E+02  0.632E-02    1.24       0.0  T
   2    -79.9080306 -0.189972E-05  0.358E-02    1.24       1.0  T
   3    -79.9080297  0.893314E-06  0.751E-03    1.24       1.9  T
   4    -79.9080311 -0.139579E-05  0.312E-03    1.24       4.6  T
   5    -79.9080312 -0.119637E-06  0.135E-03    1.24      10.6  T
   6    -79.9080313 -0.363553E-07  0.630E-04    1.24      22.7  T
   7    -79.9080313 -0.274611E-08  0.385E-04    1.24      37.1  T
     SCC iter.                  ...        0 min,  0.140 sec
     gradient                   ...        0 min,  0.014 sec
 * total energy  :   -78.7506231 Eh     change       -0.1258570E-03 Eh
   gradient norm :     0.0065895 Eh/α   predicted    -0.9304186E-04 ( -26.07%)
   displ. norm   :     0.4025975 α      lambda       -0.1964238E-03
   maximum displ.:     0.2709986 α      in ANC's #4, #6, #7, ...

........................................................................
.............................. CYCLE   18 ..............................
........................................................................
   1    -79.9067794 -0.799068E+02  0.819E-02    1.24       0.0  T
   2    -79.9067827 -0.329378E-05  0.462E-02    1.24       1.0  T
   3    -79.9067812  0.148054E-05  0.925E-03    1.24       1.5  T
   4    -79.9067835 -0.232957E-05  0.391E-03    1.24       3.6  T
   5    -79.9067838 -0.243409E-06  0.176E-03    1.24       8.1  T
   6    -79.9067838 -0.491352E-07  0.870E-04    1.24      16.4  T
   7    -79.9067838 -0.905705E-08  0.471E-04    1.24      30.3  T
     SCC iter.                  ...        0 min,  0.138 sec
     gradient                   ...        0 min,  0.014 sec
 * total energy  :   -78.7507510 Eh     change       -0.1279456E-03 Eh
   gradient norm :     0.0057826 Eh/α   predicted    -0.1141332E-03 ( -10.80%)
   displ. norm   :     0.2389387 α      lambda       -0.2257212E-03
   maximum displ.:     0.1244042 α      in ANC's #6, #4, #2, ...

........................................................................
.............................. CYCLE   19 ..............................
........................................................................
   1    -79.9117350 -0.799117E+02  0.575E-02    1.24       0.0  T
   2    -79.9117406 -0.566754E-05  0.306E-02    1.24       1.0  T
   3    -79.9117392  0.146602E-05  0.108E-02    1.24       1.3  T
   4    -79.9117413 -0.217383E-05  0.457E-03    1.24       3.1  T
   5    -79.9117418 -0.412940E-06  0.161E-03    1.24       8.9  T
   6    -79.9117418 -0.382396E-07  0.762E-04    1.24      18.7  T
   7    -79.9117418 -0.797714E-08  0.386E-04    1.24      37.0  T
     SCC iter.                  ...        0 min,  0.142 sec
     gradient                   ...        0 min,  0.012 sec
 * total energy  :   -78.7508352 Eh     change       -0.8416037E-04 Eh
   gradient norm :     0.0062663 Eh/α   predicted    -0.1193048E-03 (  41.76%)
   displ. norm   :     0.2645127 α      lambda       -0.1359214E-03
   maximum displ.:     0.1855030 α      in ANC's #4, #6, #7, ...

........................................................................
.............................. CYCLE   20 ..............................
........................................................................
   1    -79.9087537 -0.799088E+02  0.528E-02    1.23       0.0  T
   2    -79.9087554 -0.161500E-05  0.298E-02    1.23       1.0  T
   3    -79.9087554 -0.197807E-07  0.444E-03    1.23       3.2  T
   4    -79.9087556 -0.249458E-06  0.239E-03    1.23       6.0  T
   5    -79.9087557 -0.987610E-07  0.104E-03    1.23      13.7  T
   6    -79.9087557 -0.116646E-07  0.477E-04    1.23      30.0  T
   7    -79.9087557 -0.249045E-08  0.279E-04    1.23      51.3  T
     SCC iter.                  ...        0 min,  0.138 sec
     gradient                   ...        0 min,  0.014 sec
 * total energy  :   -78.7509291 Eh     change       -0.9393429E-04 Eh
   gradient norm :     0.0053756 Eh/α   predicted    -0.7271593E-04 ( -22.59%)
   displ. norm   :     0.2609628 α      lambda       -0.1365838E-03
   maximum displ.:     0.1604449 α      in ANC's #4, #6, #3, ...
 * RMSD in coord.:     0.7207934 α      energy gain  -0.2687845E-01 Eh

generating ANC from model Hessian ...
Using Lindh-Hessian (1995)
 Shifting diagonal of input Hessian by    9.8829650220237913E-003
 Lowest  eigenvalues of input Hessian
    0.000000    0.000000    0.000000    0.000000    0.000000    0.000000
    0.010000    0.010273    0.010318    0.010615    0.010710    0.011296
    0.011582    0.012435    0.012843    0.013811    0.014726    0.015268
 Highest eigenvalues
    1.904526    1.933429    1.951474    2.014677    2.099338    2.178390


........................................................................
.............................. CYCLE   21 ..............................
........................................................................
   1    -79.9067784 -0.799068E+02  0.535E-02    1.23       0.0  T
   2    -79.9067796 -0.125748E-05  0.302E-02    1.23       1.0  T
   3    -79.9067791  0.545984E-06  0.589E-03    1.23       2.4  T
   4    -79.9067800 -0.912821E-06  0.267E-03    1.23       5.4  T
   5    -79.9067801 -0.101719E-06  0.979E-04    1.23      14.6  T
   6    -79.9067801 -0.990092E-08  0.490E-04    1.23      29.2  T
     SCC iter.                  ...        0 min,  0.119 sec
     gradient                   ...        0 min,  0.014 sec
 * total energy  :   -78.7510128 Eh     change       -0.8370565E-04 Eh
   gradient norm :     0.0058822 Eh/α   predicted     0.0000000E+00 (-100.00%)
   displ. norm   :     0.0496389 α      lambda       -0.9406978E-04
   maximum displ.:     0.0204862 α      in ANC's #5, #7, #4, ...

........................................................................
.............................. CYCLE   22 ..............................
........................................................................
   1    -79.9085622 -0.799086E+02  0.160E-02    1.23       0.0  T
   2    -79.9085625 -0.331068E-06  0.896E-03    1.23       1.6  T
   3    -79.9085623  0.173414E-06  0.301E-03    1.23       4.7  T
   4    -79.9085625 -0.227740E-06  0.116E-03    1.23      12.3  T
   5    -79.9085626 -0.224908E-07  0.470E-04    1.23      30.4  T
   6    -79.9085626 -0.211868E-08  0.197E-04    1.23      72.4  T
     SCC iter.                  ...        0 min,  0.119 sec
     gradient                   ...        0 min,  0.014 sec
 * total energy  :   -78.7510809 Eh     change       -0.6802575E-04 Eh
   gradient norm :     0.0025317 Eh/α   predicted    -0.4720106E-04 ( -30.61%)
   displ. norm   :     0.0903457 α      lambda       -0.6610501E-04
   maximum displ.:     0.0393661 α      in ANC's #5, #7, #4, ...

........................................................................
.............................. CYCLE   23 ..............................
........................................................................
   1    -79.9097043 -0.799097E+02  0.233E-02    1.23       0.0  T
   2    -79.9097048 -0.461374E-06  0.129E-02    1.23       1.1  T
   3    -79.9097045  0.317379E-06  0.393E-03    1.23       3.6  T
   4    -79.9097049 -0.397673E-06  0.152E-03    1.23       9.4  T
   5    -79.9097049 -0.426410E-07  0.559E-04    1.23      25.5  T
   6    -79.9097049 -0.421301E-08  0.224E-04    1.23      63.8  T
     SCC iter.                  ...        0 min,  0.120 sec
     gradient                   ...        0 min,  0.014 sec
 * total energy  :   -78.7511268 Eh     change       -0.4597303E-04 Eh
   gradient norm :     0.0017489 Eh/α   predicted    -0.3332305E-04 ( -27.52%)
   displ. norm   :     0.1757701 α      lambda       -0.4766984E-04
   maximum displ.:     0.0746162 α      in ANC's #5, #4, #7, ...

........................................................................
.............................. CYCLE   24 ..............................
........................................................................
   1    -79.9097821 -0.799098E+02  0.409E-02    1.23       0.0  T
   2    -79.9097830 -0.917609E-06  0.228E-02    1.23       1.0  T
   3    -79.9097824  0.629644E-06  0.555E-03    1.23       2.6  T
   4    -79.9097831 -0.776334E-06  0.235E-03    1.23       6.1  T
   5    -79.9097832 -0.108129E-06  0.830E-04    1.23      17.2  T
   6    -79.9097833 -0.120076E-07  0.314E-04    1.23      45.5  T
     SCC iter.                  ...        0 min,  0.120 sec
     gradient                   ...        0 min,  0.014 sec
 * total energy  :   -78.7511751 Eh     change       -0.4827921E-04 Eh
   gradient norm :     0.0034893 Eh/α   predicted    -0.2421196E-04 ( -49.85%)
   displ. norm   :     0.1139380 α      lambda       -0.4095096E-04
   maximum displ.:     0.0536924 α      in ANC's #4, #5, #7, ...

........................................................................
.............................. CYCLE   25 ..............................
........................................................................
   1    -79.9091482 -0.799091E+02  0.242E-02    1.23       0.0  T
   2    -79.9091484 -0.205204E-06  0.137E-02    1.23       1.0  T
   3    -79.9091482  0.224419E-06  0.316E-03    1.23       4.5  T
   4    -79.9091485 -0.284786E-06  0.122E-03    1.23      11.7  T
   5    -79.9091485 -0.183540E-07  0.425E-04    1.23      33.6  T
   6    -79.9091485 -0.315084E-08  0.196E-04    1.23      72.9  T
     SCC iter.                  ...        0 min,  0.118 sec
     gradient                   ...        0 min,  0.014 sec
 * total energy  :   -78.7512095 Eh     change       -0.3435861E-04 Eh
   gradient norm :     0.0028133 Eh/α   predicted    -0.2074156E-04 ( -39.63%)
   displ. norm   :     0.1997831 α      lambda       -0.5898383E-04
   maximum displ.:     0.0998725 α      in ANC's #4, #5, #7, ...

........................................................................
.............................. CYCLE   26 ..............................
........................................................................
   1    -79.9080729 -0.799081E+02  0.401E-02    1.23       0.0  T
   2    -79.9080734 -0.515264E-06  0.228E-02    1.23       1.0  T
   3    -79.9080726  0.825041E-06  0.584E-03    1.23       2.4  T
   4    -79.9080736 -0.103939E-05  0.192E-03    1.23       7.4  T
   5    -79.9080737 -0.246467E-07  0.672E-04    1.23      21.3  T
   6    -79.9080737 -0.771297E-08  0.345E-04    1.23      41.4  T
     SCC iter.                  ...        0 min,  0.121 sec
     gradient                   ...        0 min,  0.014 sec
 * total energy  :   -78.7512511 Eh     change       -0.4160610E-04 Eh
   gradient norm :     0.0021079 Eh/α   predicted    -0.3067179E-04 ( -26.28%)
   displ. norm   :     0.1384040 α      lambda       -0.2923951E-04
   maximum displ.:     0.0760115 α      in ANC's #4, #2, #3, ...

........................................................................
.............................. CYCLE   27 ..............................
........................................................................
   1    -79.9077980 -0.799078E+02  0.251E-02    1.22       0.0  T
   2    -79.9077982 -0.207504E-06  0.143E-02    1.23       1.0  T
   3    -79.9077978  0.386334E-06  0.402E-03    1.23       3.6  T
   4    -79.9077983 -0.483778E-06  0.125E-03    1.23      11.4  T
   5    -79.9077983 -0.934122E-08  0.470E-04    1.23      30.4  T
   6    -79.9077983 -0.340938E-08  0.256E-04    1.23      55.8  T
     SCC iter.                  ...        0 min,  0.121 sec
     gradient                   ...        0 min,  0.014 sec
 * total energy  :   -78.7512747 Eh     change       -0.2366690E-04 Eh
   gradient norm :     0.0021203 Eh/α   predicted    -0.1491087E-04 ( -37.00%)
   displ. norm   :     0.1431132 α      lambda       -0.3639701E-04
   maximum displ.:     0.0832772 α      in ANC's #4, #2, #3, ...

........................................................................
.............................. CYCLE   28 ..............................
........................................................................
   1    -79.9081207 -0.799081E+02  0.236E-02    1.22       0.0  T
   2    -79.9081209 -0.260962E-06  0.134E-02    1.22       1.1  T
   3    -79.9081206  0.367000E-06  0.410E-03    1.22       3.5  T
   4    -79.9081210 -0.465719E-06  0.133E-03    1.22      10.8  T
   5    -79.9081210 -0.173810E-07  0.529E-04    1.22      27.0  T
   6    -79.9081210 -0.410331E-08  0.274E-04    1.22      52.1  T
     SCC iter.                  ...        0 min,  0.121 sec
     gradient                   ...        0 min,  0.013 sec
 * total energy  :   -78.7513055 Eh     change       -0.3080332E-04 Eh
   gradient norm :     0.0019752 Eh/α   predicted    -0.1857909E-04 ( -39.68%)
   displ. norm   :     0.3046623 α      lambda       -0.4892612E-04
   maximum displ.:     0.1813466 α      in ANC's #4, #2, #3, ...

........................................................................
.............................. CYCLE   29 ..............................
........................................................................
   1    -79.9087026 -0.799087E+02  0.473E-02    1.22       0.0  T
   2    -79.9087037 -0.103511E-05  0.268E-02    1.22       1.0  T
   3    -79.9087026  0.101736E-05  0.715E-03    1.22       2.0  T
   4    -79.9087040 -0.134159E-05  0.260E-03    1.22       5.5  T
   5    -79.9087041 -0.824643E-07  0.104E-03    1.22      13.7  T
   6    -79.9087041 -0.133664E-07  0.558E-04    1.22      25.6  T
   7    -79.9087041 -0.235742E-08  0.297E-04    1.22      48.1  T
     SCC iter.                  ...        0 min,  0.141 sec
     gradient                   ...        0 min,  0.014 sec
 * total energy  :   -78.7513555 Eh     change       -0.4999201E-04 Eh
   gradient norm :     0.0027861 Eh/α   predicted    -0.2547421E-04 ( -49.04%)
   displ. norm   :     0.1309044 α      lambda       -0.2575043E-04
   maximum displ.:     0.0800955 α      in ANC's #4, #3, #2, ...

........................................................................
.............................. CYCLE   30 ..............................
........................................................................
   1    -79.9088324 -0.799088E+02  0.191E-02    1.22       0.0  T
   2    -79.9088325 -0.106261E-06  0.110E-02    1.22       1.3  T
   3    -79.9088325  0.328605E-07  0.169E-03    1.22       8.4  T
   4    -79.9088326 -0.667906E-07  0.932E-04    1.22      15.3  T
   5    -79.9088326 -0.123300E-07  0.367E-04    1.22      39.0  T
     SCC iter.                  ...        0 min,  0.098 sec
     gradient                   ...        0 min,  0.013 sec
 * total energy  :   -78.7513788 Eh     change       -0.2331036E-04 Eh
   gradient norm :     0.0025128 Eh/α   predicted    -0.1309922E-04 ( -43.81%)
   displ. norm   :     0.2243217 α      lambda       -0.4968583E-04
   maximum displ.:     0.1371565 α      in ANC's #4, #3, #1, ...

........................................................................
.............................. CYCLE   31 ..............................
........................................................................
   1    -79.9090255 -0.799090E+02  0.328E-02    1.22       0.0  T
   2    -79.9090259 -0.377266E-06  0.189E-02    1.22       1.0  T
   3    -79.9090257  0.218729E-06  0.336E-03    1.22       4.3  T
   4    -79.9090260 -0.332987E-06  0.168E-03    1.22       8.5  T
   5    -79.9090260 -0.448500E-07  0.691E-04    1.22      20.7  T
   6    -79.9090260 -0.306903E-08  0.363E-04    1.22      39.4  T
     SCC iter.                  ...        0 min,  0.119 sec
     gradient                   ...        0 min,  0.012 sec
 * total energy  :   -78.7514199 Eh     change       -0.4101169E-04 Eh
   gradient norm :     0.0015774 Eh/α   predicted    -0.2609499E-04 ( -36.37%)
   displ. norm   :     0.4434249 α      lambda       -0.4768246E-04
   maximum displ.:     0.2680889 α      in ANC's #4, #3, #1, ...

........................................................................
.............................. CYCLE   32 ..............................
........................................................................
   1    -79.9079981 -0.799080E+02  0.658E-02    1.22       0.0  T
   2    -79.9079998 -0.162134E-05  0.377E-02    1.22       1.0  T
   3    -79.9079993  0.453639E-06  0.591E-03    1.22       2.4  T
   4    -79.9080001 -0.827340E-06  0.330E-03    1.22       4.3  T
   5    -79.9080003 -0.209668E-06  0.132E-03    1.22      10.9  T
   6    -79.9080004 -0.140085E-07  0.693E-04    1.22      20.6  T
   7    -79.9080004 -0.347089E-08  0.378E-04    1.22      37.8  T
     SCC iter.                  ...        0 min,  0.140 sec
     gradient                   ...        0 min,  0.014 sec
 * total energy  :   -78.7514598 Eh     change       -0.3997918E-04 Eh
   gradient norm :     0.0021858 Eh/α   predicted    -0.2592524E-04 ( -35.15%)
   displ. norm   :     0.0648148 α      lambda       -0.1504100E-04
   maximum displ.:     0.0365398 α      in ANC's #4, #1, #3, ...

........................................................................
.............................. CYCLE   33 ..............................
........................................................................
   1    -79.9086939 -0.799087E+02  0.106E-02    1.22       0.0  T
   2    -79.9086940 -0.731291E-07  0.596E-03    1.22       2.4  T
   3    -79.9086940  0.681369E-08  0.105E-03    1.22      13.6  T
   4    -79.9086940 -0.186194E-07  0.519E-04    1.22      27.5  T
   5    -79.9086940 -0.484189E-08  0.218E-04    1.22      65.4  T
     SCC iter.                  ...        0 min,  0.102 sec
     gradient                   ...        0 min,  0.014 sec
 * total energy  :   -78.7514720 Eh     change       -0.1217664E-04 Eh
   gradient norm :     0.0015152 Eh/α   predicted    -0.7553579E-05 ( -37.97%)
   displ. norm   :     0.2822384 α      lambda       -0.3015866E-04
   maximum displ.:     0.1548704 α      in ANC's #4, #1, #3, ...

........................................................................
.............................. CYCLE   34 ..............................
........................................................................
   1    -79.9093802 -0.799094E+02  0.471E-02    1.22       0.0  T
   2    -79.9093809 -0.700450E-06  0.268E-02    1.22       1.0  T
   3    -79.9093806  0.325182E-06  0.469E-03    1.22       3.0  T
   4    -79.9093811 -0.531527E-06  0.212E-03    1.22       6.7  T
   5    -79.9093812 -0.632215E-07  0.747E-04    1.22      19.1  T
   6    -79.9093812 -0.109541E-07  0.336E-04    1.22      42.5  T
     SCC iter.                  ...        0 min,  0.120 sec
     gradient                   ...        0 min,  0.013 sec
 * total energy  :   -78.7515004 Eh     change       -0.2839401E-04 Eh
   gradient norm :     0.0020510 Eh/α   predicted    -0.1561370E-04 ( -45.01%)
   displ. norm   :     0.1846869 α      lambda        0.6712836E-05
   maximum displ.:     0.1013799 α      in ANC's #4, #1, #3, ...

........................................................................
.............................. CYCLE   35 ..............................
........................................................................
   1    -79.9094437 -0.799094E+02  0.307E-02    1.22       0.0  T
   2    -79.9094440 -0.302133E-06  0.175E-02    1.22       1.0  T
   3    -79.9094438  0.162650E-06  0.319E-03    1.22       4.5  T
   4    -79.9094441 -0.253212E-06  0.141E-03    1.22      10.2  T
   5    -79.9094441 -0.279183E-07  0.495E-04    1.22      28.8  T
   6    -79.9094441 -0.466083E-08  0.228E-04    1.22      62.7  T
     SCC iter.                  ...        0 min,  0.119 sec
     gradient                   ...        0 min,  0.013 sec
 * total energy  :   -78.7515022 Eh     change       -0.1831139E-05 Eh
   gradient norm :     0.0034567 Eh/α   predicted     0.3467633E-05 (-289.37%)
   displ. norm   :     0.0202544 α      lambda       -0.1447393E-04
   maximum displ.:     0.0106621 α      in ANC's #5, #1, #3, ...

........................................................................
.............................. CYCLE   36 ..............................
........................................................................
   1    -79.9093560 -0.799094E+02  0.566E-03    1.22       0.0  T
   2    -79.9093560 -0.479333E-07  0.308E-03    1.22       4.6  T
   3    -79.9093560  0.145009E-07  0.109E-03    1.22      13.1  T
   4    -79.9093560 -0.225036E-07  0.428E-04    1.22      33.4  T
   5    -79.9093560 -0.331241E-08  0.150E-04    1.22      95.0  T
     SCC iter.                  ...        0 min,  0.099 sec
     gradient                   ...        0 min,  0.013 sec
 * total energy  :   -78.7515143 Eh     change       -0.1206521E-04 Eh
   gradient norm :     0.0022961 Eh/α   predicted    -0.7242314E-05 ( -39.97%)
   displ. norm   :     0.0896492 α      lambda       -0.3135448E-04
   maximum displ.:     0.0488668 α      in ANC's #1, #5, #3, ...

........................................................................
.............................. CYCLE   37 ..............................
........................................................................
   1    -79.9091709 -0.799092E+02  0.184E-02    1.22       0.0  T
   2    -79.9091713 -0.359550E-06  0.101E-02    1.22       1.4  T
   3    -79.9091712  0.122308E-06  0.296E-03    1.22       4.8  T
   4    -79.9091714 -0.173676E-06  0.119E-03    1.22      12.0  T
   5    -79.9091714 -0.276502E-07  0.413E-04    1.22      34.6  T
   6    -79.9091714 -0.359110E-08  0.170E-04    1.22      83.9  T
     SCC iter.                  ...        0 min,  0.118 sec
     gradient                   ...        0 min,  0.013 sec
 * total energy  :   -78.7515355 Eh     change       -0.2124066E-04 Eh
   gradient norm :     0.0008675 Eh/α   predicted    -0.1580827E-04 ( -25.58%)
   displ. norm   :     0.1905395 α      lambda       -0.1634772E-04
   maximum displ.:     0.1085948 α      in ANC's #1, #3, #5, ...

........................................................................
.............................. CYCLE   38 ..............................
........................................................................
   1    -79.9087437 -0.799087E+02  0.328E-02    1.21       0.0  T
   2    -79.9087442 -0.449695E-06  0.186E-02    1.21       1.0  T
   3    -79.9087440  0.148651E-06  0.328E-03    1.21       4.4  T
   4    -79.9087443 -0.235905E-06  0.153E-03    1.21       9.3  T
   5    -79.9087443 -0.408439E-07  0.577E-04    1.21      24.8  T
   6    -79.9087443 -0.617929E-08  0.243E-04    1.21      58.7  T
     SCC iter.                  ...        0 min,  0.120 sec
     gradient                   ...        0 min,  0.014 sec
 * total energy  :   -78.7515514 Eh     change       -0.1588564E-04 Eh
   gradient norm :     0.0019138 Eh/α   predicted    -0.8307623E-05 ( -47.70%)
   displ. norm   :     0.0996402 α      lambda       -0.1018202E-04
   maximum displ.:     0.0593931 α      in ANC's #1, #5, #3, ...

........................................................................
.............................. CYCLE   39 ..............................
........................................................................
   1    -79.9091690 -0.799092E+02  0.171E-02    1.21       0.0  T
   2    -79.9091690 -0.893168E-07  0.972E-03    1.21       1.5  T
   3    -79.9091690  0.152953E-08  0.131E-03    1.21      10.9  T
   4    -79.9091691 -0.222219E-07  0.729E-04    1.21      19.6  T
   5    -79.9091691 -0.823329E-08  0.231E-04    1.21      61.8  T
     SCC iter.                  ...        0 min,  0.101 sec
     gradient                   ...        0 min,  0.013 sec
 * total energy  :   -78.7515628 Eh     change       -0.1134102E-04 Eh
   gradient norm :     0.0011982 Eh/α   predicted    -0.5115612E-05 ( -54.89%)
   displ. norm   :     0.1432210 α      lambda       -0.1111918E-04
   maximum displ.:     0.0875728 α      in ANC's #1, #3, #5, ...

........................................................................
.............................. CYCLE   40 ..............................
........................................................................
   1    -79.9090630 -0.799091E+02  0.231E-02    1.21       0.0  T
   2    -79.9090632 -0.221882E-06  0.130E-02    1.21       1.1  T
   3    -79.9090631  0.471339E-07  0.223E-03    1.21       6.4  T
   4    -79.9090632 -0.960002E-07  0.120E-03    1.21      11.9  T
   5    -79.9090633 -0.251331E-07  0.389E-04    1.21      36.7  T
   6    -79.9090633 -0.220234E-08  0.185E-04    1.21      77.0  T
     SCC iter.                  ...        0 min,  0.121 sec
     gradient                   ...        0 min,  0.013 sec
 * total energy  :   -78.7515734 Eh     change       -0.1066058E-04 Eh
   gradient norm :     0.0009635 Eh/α   predicted    -0.5610963E-05 ( -47.37%)
   displ. norm   :     0.0962024 α      lambda       -0.7647522E-05
   maximum displ.:     0.0556831 α      in ANC's #5, #1, #8, ...

........................................................................
.............................. CYCLE   41 ..............................
........................................................................
   1    -79.9095351 -0.799095E+02  0.165E-02    1.21       0.0  T
   2    -79.9095352 -0.983965E-07  0.932E-03    1.21       1.5  T
   3    -79.9095350  0.176826E-06  0.262E-03    1.21       5.4  T
   4    -79.9095352 -0.214855E-06  0.978E-04    1.21      14.6  T
   5    -79.9095352 -0.107419E-07  0.293E-04    1.21      48.8  T
     SCC iter.                  ...        0 min,  0.103 sec
     gradient                   ...        0 min,  0.013 sec
 * total energy  :   -78.7515806 Eh     change       -0.7147019E-05 Eh
   gradient norm :     0.0011337 Eh/α   predicted    -0.3839926E-05 ( -46.27%)
   displ. norm   :     0.0825890 α      lambda       -0.4719955E-05
   maximum displ.:     0.0527267 α      in ANC's #1, #5, #3, ...

........................................................................
.............................. CYCLE   42 ..............................
........................................................................
   1    -79.9093958 -0.799094E+02  0.133E-02    1.21       0.0  T
   2    -79.9093958 -0.536054E-07  0.752E-03    1.21       1.9  T
   3    -79.9093958  0.580703E-07  0.158E-03    1.21       9.0  T
   4    -79.9093958 -0.738427E-07  0.718E-04    1.21      19.9  T
   5    -79.9093958 -0.758037E-08  0.203E-04    1.21      70.2  T
     SCC iter.                  ...        0 min,  0.100 sec
     gradient                   ...        0 min,  0.014 sec
 * total energy  :   -78.7515863 Eh     change       -0.5763575E-05 Eh
   gradient norm :     0.0008473 Eh/α   predicted    -0.2369845E-05 ( -58.88%)
   displ. norm   :     0.0763213 α      lambda       -0.5569148E-05
   maximum displ.:     0.0480333 α      in ANC's #1, #3, #8, ...
 * RMSD in coord.:     0.4014674 α      energy gain  -0.6572173E-03 Eh

generating ANC from model Hessian ...
Using Lindh-Hessian (1995)
 Shifting diagonal of input Hessian by    9.8839595578040090E-003
 Lowest  eigenvalues of input Hessian
    0.000000    0.000000    0.000000    0.000000    0.000000    0.000000
    0.010000    0.010292    0.010299    0.010608    0.010784    0.011251
    0.011492    0.012469    0.012893    0.013806    0.014738    0.015348
 Highest eigenvalues
    1.905528    1.933136    1.952241    2.018186    2.099807    2.178328


........................................................................
.............................. CYCLE   43 ..............................
........................................................................
   1    -79.9092921 -0.799093E+02  0.127E-02    1.21       0.0  T
   2    -79.9092921 -0.524380E-07  0.715E-03    1.21       2.0  T
   3    -79.9092921  0.394915E-07  0.140E-03    1.21      10.2  T
   4    -79.9092921 -0.508227E-07  0.650E-04    1.21      22.0  T
   5    -79.9092921 -0.703753E-08  0.194E-04    1.21      73.6  T
     SCC iter.                  ...        0 min,  0.099 sec
     gradient                   ...        0 min,  0.014 sec
 * total energy  :   -78.7515928 Eh     change       -0.6498085E-05 Eh
   gradient norm :     0.0005224 Eh/α   predicted     0.0000000E+00 (-100.00%)
   displ. norm   :     0.0171168 α      lambda       -0.1886049E-05
   maximum displ.:     0.0085560 α      in ANC's #4, #5, #1, ...

........................................................................
.............................. CYCLE   44 ..............................
........................................................................
   1    -79.9093320 -0.799093E+02  0.298E-03    1.21       0.0  T
   2    -79.9093320 -0.655798E-08  0.165E-03    1.21       8.6  T
   3    -79.9093320  0.593968E-08  0.505E-04    1.21      28.3  T
   4    -79.9093320 -0.783170E-08  0.183E-04    1.21      77.9  T
     SCC iter.                  ...        0 min,  0.080 sec
     gradient                   ...        0 min,  0.014 sec
 * total energy  :   -78.7515953 Eh     change       -0.2460815E-05 Eh
   gradient norm :     0.0002123 Eh/α   predicted    -0.9528813E-06 ( -61.28%)
   displ. norm   :     0.0612335 α      lambda       -0.5034864E-05
   maximum displ.:     0.0300195 α      in ANC's #4, #1, #5, ...

   *** GEOMETRY OPTIMIZATION CONVERGED AFTER 44 ITERATIONS ***

------------------------------------------------------------------------
 total energy gain   :        -0.0275446 Eh      -17.2845 kcal/mol
 total RMSD          :         1.0025808 a0        0.5305 Å
 total power (kW/mol):        -1.6436003 (step)  -10.8931 (real)
------------------------------------------------------------------------

 ANCopt (total)                0 d,  0 h,  0 min,  6.639 sec
 optimizer setup                ...        0 min,  0.000 sec (  0.004%)
 model hessian                  ...        0 min,  0.045 sec (  0.685%)
 ANC generation                 ...        0 min,  0.038 sec (  0.566%)
 coordinate transformation      ...        0 min,  0.003 sec (  0.050%)
 single point calculation       ...        0 min,  6.521 sec ( 98.223%)
 optimization log               ...        0 min,  0.012 sec (  0.176%)
 hessian update                 ...        0 min,  0.003 sec (  0.040%)
 rational function              ...        0 min,  0.009 sec (  0.136%)

================
 final structure:
================
49
 xtb: 6.5.1 (fef0646)
N            3.42341320403888       -0.77990061110533        1.50455421425468
C            2.68854479457576       -0.57180442258513        0.23827965480865
C            3.46991199528239        0.35880658541279       -0.69288931785671
C            4.69924478116496       -0.28391686876840       -1.24129101170449
C            4.94630536753586       -0.69284269862702       -2.51689124276706
C            6.21343290544382       -1.28277168652364       -2.68382025690792
C            6.95399145456877       -1.33185614861095       -1.53119899760876
C            8.25545928101881       -1.86809788402256       -1.32095767041497
C            9.00228029180013       -1.86051162699850       -0.16888404404811
C           10.25224227242708       -2.48934730565702       -0.29462859221088
C           11.21842759077293       -2.53168295118052        0.84291494984365
C           10.46275743280176       -2.99081249083494       -1.56710057882560
C           11.57010653241715       -3.72869600871304       -2.11272622355704
C           12.47028805996726       -4.46609233454421       -1.36017947267831
C           13.52470297449362       -5.18811629774878       -1.92412737634752
C           13.76001604680337       -5.24963816285209       -3.28714717635435
C           14.83422279173420       -6.00441893428387       -3.88426063767697
C           15.46210271536813       -7.14902534973690       -3.44291903707606
C           15.11032505029223       -7.93661000251734       -2.22362557378816
C           16.48807322385875       -7.56300460741740       -4.32504726020746
C           16.63329444189081       -6.75376023881141       -5.40456951053596
S           15.50260621111804       -5.46268139147670       -5.40276136299812
C           12.86826707645400       -4.50035493584733       -4.09659242199499
N           12.88622297743039       -4.39620844879668       -5.42631582767483
S           11.67105684826191       -3.45786903466766       -5.89967741618901
N           11.05378451513863       -3.13854564234791       -4.44568567110554
C           11.78168817771354       -3.76045212885965       -3.51720997040070
S            9.11662302129892       -2.64450439719955       -2.62048576572340
S            6.07524900433508       -0.62249280269100       -0.22126196453928
H            2.91862119597123       -1.42443857213294        2.12169988659635
H            3.55702682174456        0.11455425605771        1.98917109066165
H            4.35833759845827       -1.16474779471267        1.30357771300146
H            1.71843002576759       -0.12644636129748        0.45404620528532
H            2.53501963110320       -1.53243667167650       -0.25201418137180
H            3.74186574022807        1.27018578301128       -0.15936049021583
H            2.83110134629831        0.63656289220924       -1.53014625847032
H            4.24671630914732       -0.57746547906781       -3.32485645489963
H            6.59070354726916       -1.66428797867906       -3.61645580520018
H            8.66757133759812       -1.40898052319583        0.74898170362091
H           10.98368158059798       -1.73894853550923        1.54846188392701
H           12.23944271614898       -2.39925438244653        0.49226872431656
H           11.15178529976937       -3.48275112591554        1.37059792915647
H           12.35055979148938       -4.51473507098731       -0.29227967146708
H           14.19353925713121       -5.70308253789268       -1.25611047544955
H           14.04549954880660       -7.87458675497193       -2.01293329375423
H           15.66139987949437       -7.57064084169288       -1.35756144661845
H           15.38164402739691       -8.97838129801531       -2.37545889491390
H           17.09028093014287       -8.43676325449035       -4.15213315131205
H           17.33027237542831       -6.83863692057770       -6.21363945060417

 Bond Distances (Angstroems)
 ---------------------------
N1-C2=1.4788         N1-H30=1.0252        N1-H31=1.0260        N1-H32=1.0308        C2-N1=1.4788         C2-C3=1.5309         
C2-H33=1.0890        C2-H34=1.0894        C3-C2=1.5309         C3-C4=1.4917         C3-H35=1.0905        C3-H36=1.0891        
C4-C3=1.4917         C4-C5=1.3621         C4-S29=1.7460        C5-C4=1.3621         C5-C6=1.4077         C5-H37=1.0750        
C6-C5=1.4077         C6-C7=1.3709         C6-H38=1.0760        C7-C6=1.3709         C7-C8=1.4232         C7-S29=1.7295        
C8-C7=1.4232         C8-C9=1.3730         C8-S28=1.7416        C9-C8=1.3730         C9-C10=1.4049        C9-H39=1.0763        
C10-C9=1.4049        C10-C11=1.4931       C10-C12=1.3838       C11-C10=1.4931       C11-H40=1.0869       C11-H41=1.0876       
C11-H42=1.0897       C12-C10=1.3838       C12-C13=1.4382       C12-S28=1.7440       C13-C12=1.4382       C13-C14=1.3858       
C13-C27=1.4207       C14-C13=1.3858       C14-C15=1.3968       C14-H43=1.0757       C15-C14=1.3968       C15-C16=1.3846       
C15-H44=1.0765       C16-C15=1.3846       C16-C17=1.4423       C16-C23=1.4184       C17-C16=1.4423       C17-C18=1.3781       
C17-S22=1.7453       C18-C17=1.3781       C18-C19=1.4936       C18-C20=1.4150       C19-C18=1.4936       C19-H45=1.0872       
C19-H46=1.0898       C19-H47=1.0872       C20-C18=1.4150       C20-C21=1.3570       C20-H48=1.0752       C21-C20=1.3570       
C21-S22=1.7162       C21-H49=1.0713       S22-C17=1.7453       S22-C21=1.7162       C23-C16=1.4184       C23-N24=1.3339       
C23-C27=1.4366       N24-C23=1.3339       N24-S25=1.6066       S25-N24=1.6066       S25-N26=1.6115       N26-S25=1.6115       
N26-C27=1.3337       C27-C13=1.4207       C27-C23=1.4366       C27-N26=1.3337       S28-C8=1.7416        S28-C12=1.7440       
S29-C4=1.7460        S29-C7=1.7295        H30-N1=1.0252        H31-N1=1.0260        H32-N1=1.0308        H33-C2=1.0890        
H34-C2=1.0894        H35-C3=1.0905        H36-C3=1.0891        H37-C5=1.0750        H38-C6=1.0760        H39-C9=1.0763        
H40-C11=1.0869       H41-C11=1.0876       H42-C11=1.0897       H43-C14=1.0757       H44-C15=1.0765       H45-C19=1.0872       
H46-C19=1.0898       H47-C19=1.0872       H48-C20=1.0752       H49-C21=1.0713       
 C  H  Rav=1.0831 sigma=0.0068  Rmin=1.0713  Rmax=1.0905    17
 C  C  Rav=1.4186 sigma=0.0465  Rmin=1.3570  Rmax=1.5309    22
 N  H  Rav=1.0274 sigma=0.0025  Rmin=1.0252  Rmax=1.0308     3
 N  C  Rav=1.3821 sigma=0.0683  Rmin=1.3337  Rmax=1.4788     3
 S  C  Rav=1.7371 sigma=0.0109  Rmin=1.7162  Rmax=1.7460     6
 S  N  Rav=1.6091 sigma=0.0025  Rmin=1.6066  Rmax=1.6115     2

 selected bond angles (degree)
 --------------------
H30-N1-C2=111.05               H31-N1-C2=110.27               H31-N1-H30=109.14              H32-N1-C2=109.65               
H32-N1-H30=109.22              H32-N1-H31=107.42              C3-C2-N1=110.66                H33-C2-N1=109.30               
H33-C2-C3=109.06               H34-C2-N1=109.35               H34-C2-C3=109.52               H34-C2-H33=108.92              
C4-C3-C2=112.48                H35-C3-C2=109.74               H35-C3-C4=109.54               H36-C3-C2=108.86               
H36-C3-C4=108.10               H36-C3-H35=108.01              C5-C4-C3=128.54                S29-C4-C3=121.22               
S29-C4-C5=110.24               C6-C5-C4=113.59                H37-C5-C4=123.61               H37-C5-C6=122.80               
C7-C6-C5=113.68                H38-C6-C5=124.54               H38-C6-C7=121.78               C8-C7-C6=129.17                
S29-C7-C6=110.34               S29-C7-C8=120.48               C9-C8-C7=128.26                S28-C8-C7=120.66               
S28-C8-C9=111.08               C10-C9-C8=113.98               H39-C9-C8=123.28               H39-C9-C10=122.74              
C11-C10-C9=121.35              C12-C10-C9=112.33              C12-C10-C11=126.29             

 selected dihedral angles (degree)
 ---------------------------------
C3-C2-N1-H30=181.68           C3-C2-N1-H31= 60.57           C3-C2-N1-H32=302.48           H33-C2-N1-H30= 61.56          
H33-C2-N1-H31=300.45          H33-C2-N1-H32=182.36          H34-C2-N1-H30=302.40          H34-C2-N1-H31=181.29          
H34-C2-N1-H32= 63.20          C4-C3-C2-N1= 70.39            C4-C3-C2-H33=190.65           C4-C3-C2-H34=309.76           
H35-C3-C2-N1=308.18           H35-C3-C2-H33= 68.44          H35-C3-C2-H34=187.56          H36-C3-C2-N1=190.16           
H36-C3-C2-H33=310.43          H36-C3-C2-H34= 69.54          C5-C4-C3-C2=109.52            C5-C4-C3-H35=231.84           
C5-C4-C3-H36=349.30           S29-C4-C3-C2=289.91           S29-C4-C3-H35= 52.23          S29-C4-C3-H36=169.70          
C6-C5-C4-C3=180.92            C6-C5-C4-S29=  0.56           H37-C5-C4-C3=  1.07           H37-C5-C4-S29=180.71          
C7-C6-C5-C4=  0.00            C7-C6-C5-H37=179.85           H38-C6-C5-C4=180.17           H38-C6-C5-H37=  0.03          
C8-C7-C6-C5=179.04            C8-C7-C6-H38=358.87           S29-C7-C6-C5=359.44           S29-C7-C6-H38=179.27          
C9-C8-C7-C6=177.18            C9-C8-C7-S29=356.75           S28-C8-C7-C6=357.79           S28-C8-C7-S29=177.36          
C10-C9-C8-C7=179.47           C10-C9-C8-S28=358.91          H39-C9-C8-C7=359.08           H39-C9-C8-S28=178.52          
C11-C10-C9-C8=177.73          C11-C10-C9-H39=358.11         C12-C10-C9-C8=359.82          C12-C10-C9-H39=180.20         
           -------------------------------------------------
          |                Final Singlepoint                |
           -------------------------------------------------

          ...................................................
          :                      SETUP                      :
          :.................................................:
          :  # basis functions                 160          :
          :  # atomic orbitals                 156          :
          :  # shells                           82          :
          :  # electrons                       146          :
          :  max. iterations                   250          :
          :  Hamiltonian                  GFN2-xTB          :
          :  restarted?                      false          :
          :  GBSA solvation                   true          :
          :  PC potential                    false          :
          :  electronic temp.          300.0000000     K    :
          :  accuracy                    1.0000000          :
          :  -> integral cutoff          0.2500000E+02      :
          :  -> integral neglect         0.1000000E-07      :
          :  -> SCF convergence          0.1000000E-05 Eh   :
          :  -> wf. convergence          0.1000000E-03 e    :
          :  Broyden damping             0.4000000          :
          ...................................................

 iter      E             dE          RMSdq      gap      omega  full diag
   1    -79.9093320 -0.799093E+02  0.714E-05    1.21       0.0  T
   2    -79.9093320 -0.455742E-10  0.460E-05    1.21     310.4  T
   3    -79.9093320 -0.441247E-10  0.263E-05    1.21     542.8  T

   *** convergence criteria satisfied after 3 iterations ***

         #    Occupation            Energy/Eh            Energy/eV
      -------------------------------------------------------------
         1        2.0000           -0.7710064             -20.9802
       ...           ...                  ...                  ...
        67        2.0000           -0.4203171             -11.4374
        68        2.0000           -0.4086925             -11.1211
        69        2.0000           -0.4023591             -10.9487
        70        2.0000           -0.3953898             -10.7591
        71        2.0000           -0.3921707             -10.6715
        72        2.0000           -0.3834311             -10.4337
        73        2.0000           -0.3616587              -9.8412 (HOMO)
        74                         -0.3170241              -8.6267 (LUMO)
        75                         -0.2791941              -7.5973
        76                         -0.2567094              -6.9854
        77                         -0.2320683              -6.3149
        78                         -0.2294654              -6.2441
       ...                                ...                  ...
       156                          0.7125604              19.3898
      -------------------------------------------------------------
                  HL-Gap            0.0446347 Eh            1.2146 eV
             Fermi-level           -0.3393414 Eh           -9.2339 eV

 SCC (total)                   0 d,  0 h,  0 min,  0.083 sec
 SCC setup                      ...        0 min,  0.001 sec (  0.631%)
 Dispersion                     ...        0 min,  0.001 sec (  0.940%)
 classical contributions        ...        0 min,  0.000 sec (  0.073%)
 integral evaluation            ...        0 min,  0.005 sec (  5.611%)
 iterations                     ...        0 min,  0.061 sec ( 73.653%)
 molecular gradient             ...        0 min,  0.013 sec ( 15.960%)
 printout                       ...        0 min,  0.002 sec (  2.772%)

         :::::::::::::::::::::::::::::::::::::::::::::::::::::
         ::                     SUMMARY                     ::
         :::::::::::::::::::::::::::::::::::::::::::::::::::::
         :: total energy             -78.751595305461 Eh    ::
         :: total w/o Gsasa/hb       -78.741951738975 Eh    ::
         :: gradient norm              0.000213690162 Eh/a0 ::
         :: HOMO-LUMO gap              1.214571117340 eV    ::
         ::.................................................::
         :: SCC energy               -79.909332034948 Eh    ::
         :: -> isotropic ES            0.161126548519 Eh    ::
         :: -> anisotropic ES         -0.034877798954 Eh    ::
         :: -> anisotropic XC          0.042332407735 Eh    ::
         :: -> dispersion             -0.065254029052 Eh    ::
         :: -> Gsolv                  -0.129601551278 Eh    ::
         ::    -> Gelec               -0.119957984793 Eh    ::
         ::    -> Gsasa                0.000673995875 Eh    ::
         ::    -> Ghb                 -0.011398322059 Eh    ::
         ::    -> Gshift               0.001080759698 Eh    ::
         :: repulsion energy           1.158268589702 Eh    ::
         :: add. restraining           0.000000000000 Eh    ::
         :: total charge               1.000000000000 e     ::
         :::::::::::::::::::::::::::::::::::::::::::::::::::::

           -------------------------------------------------
          |                Property Printout                |
           -------------------------------------------------

    * Orbital Energies and Occupations

         #    Occupation            Energy/Eh            Energy/eV
      -------------------------------------------------------------
         1        2.0000           -0.7710064             -20.9802
       ...           ...                  ...                  ...
        61        2.0000           -0.4479698             -12.1899
        62        2.0000           -0.4454501             -12.1213
        63        2.0000           -0.4405512             -11.9880
        64        2.0000           -0.4303285             -11.7098
        65        2.0000           -0.4229669             -11.5095
        66        2.0000           -0.4208757             -11.4526
        67        2.0000           -0.4203171             -11.4374
        68        2.0000           -0.4086925             -11.1211
        69        2.0000           -0.4023591             -10.9487
        70        2.0000           -0.3953898             -10.7591
        71        2.0000           -0.3921707             -10.6715
        72        2.0000           -0.3834311             -10.4337
        73        2.0000           -0.3616587              -9.8412 (HOMO)
        74                         -0.3170241              -8.6267 (LUMO)
        75                         -0.2791941              -7.5973
        76                         -0.2567094              -6.9854
        77                         -0.2320683              -6.3149
        78                         -0.2294654              -6.2441
        79                         -0.2256504              -6.1403
        80                         -0.2186319              -5.9493
        81                         -0.2030204              -5.5245
        82                         -0.2025107              -5.5106
        83                         -0.1945815              -5.2948
        84                         -0.1772985              -4.8245
       ...                                ...                  ...
       156                          0.7125604              19.3898
      -------------------------------------------------------------
                  HL-Gap            0.0446347 Eh            1.2146 eV
             Fermi-level           -0.3393414 Eh           -9.2339 eV

     #   Z          covCN         q      C6AA      α(0)
     1   7 N        3.485    -0.164    24.539     7.357
     2   6 C        3.733    -0.042    21.409     6.604
     3   6 C        3.822    -0.096    22.315     6.722
     4   6 C        2.984     0.026    27.414     8.589
     5   6 C        3.110    -0.059    29.308     8.869
     6   6 C        3.122    -0.052    29.096     8.834
     7   6 C        3.020     0.009    27.794     8.648
     8   6 C        3.023     0.021    27.523     8.605
     9   6 C        3.099    -0.068    29.561     8.910
    10   6 C        3.123     0.001    27.813     8.637
    11   6 C        3.755    -0.120    22.847     6.815
    12   6 C        2.995     0.008    27.830     8.654
    13   6 C        3.003    -0.011    28.280     8.723
    14   6 C        2.923    -0.049    29.227     8.866
    15   6 C        2.923    -0.048    29.182     8.859
    16   6 C        2.996    -0.009    28.241     8.717
    17   6 C        2.997     0.007    27.849     8.657
    18   6 C        3.135    -0.001    27.830     8.635
    19   6 C        3.755    -0.118    22.820     6.811
    20   6 C        3.117    -0.059    29.287     8.864
    21   6 C        2.932    -0.025    28.627     8.775
    22  16 S        2.329    -0.055   143.354    20.151
    23   6 C        3.344     0.068    23.972     7.732
    24   7 N        1.862    -0.302    28.669     7.936
    25  16 S        2.654     0.349   127.634    19.014
    26   7 N        1.884    -0.297    28.547     7.921
    27   6 C        3.343     0.070    23.971     7.736
    28  16 S        2.369    -0.082   144.478    20.230
    29  16 S        2.378    -0.024   142.047    20.059
    30   1 H        0.859     0.321     0.654     1.266
    31   1 H        0.859     0.315     0.670     1.282
    32   1 H        0.859     0.304     0.701     1.312
    33   1 H        0.925     0.126     1.565     1.956
    34   1 H        0.925     0.116     1.646     2.006
    35   1 H        0.924     0.106     1.727     2.055
    36   1 H        0.925     0.095     1.832     2.117
    37   1 H        0.926     0.050     2.320     2.382
    38   1 H        0.926     0.024     2.679     2.560
    39   1 H        0.926     0.068     2.109     2.271
    40   1 H        0.925     0.068     2.113     2.273
    41   1 H        0.925     0.048     2.339     2.392
    42   1 H        0.925     0.063     2.161     2.299
    43   1 H        0.926     0.067     2.121     2.278
    44   1 H        0.926     0.062     2.172     2.305
    45   1 H        0.925     0.055     2.260     2.351
    46   1 H        0.925     0.063     2.162     2.299
    47   1 H        0.925     0.061     2.191     2.315
    48   1 H        0.926     0.051     2.304     2.374
    49   1 H        0.926     0.058     2.216     2.328

 Mol. C6AA /au·bohr⁶  :      41494.541205
 Mol. C8AA /au·bohr⁸  :    1231542.088057
 Mol. α(0) /au        :        327.352285


Wiberg/Mayer (AO) data.
largest (>0.10) Wiberg bond orders for each atom

 ---------------------------------------------------------------------------
     #   Z sym  total        # sym  WBO       # sym  WBO       # sym  WBO
 ---------------------------------------------------------------------------
     1   7 N    3.649 --     2 C    0.973    31 H    0.885    30 H    0.883
                            32 H    0.873
     2   6 C    3.926 --     3 C    0.993     1 N    0.973    34 H    0.965
                            33 H    0.961
     3   6 C    3.983 --     4 C    1.026     2 C    0.993    36 H    0.958
                            35 H    0.952
     4   6 C    3.921 --     5 C    1.578    29 S    1.144     3 C    1.026
     5   6 C    3.985 --     4 C    1.578     6 C    1.299    37 H    0.962
     6   6 C    3.971 --     7 C    1.511     5 C    1.299    38 H    0.961
     7   6 C    3.954 --     6 C    1.511     8 C    1.164    29 S    1.109
     8   6 C    3.922 --     9 C    1.476     7 C    1.164    28 S    1.126
     9   6 C    3.974 --     8 C    1.476    10 C    1.312    39 H    0.959
    10   6 C    3.950 --    12 C    1.448     9 C    1.312    11 C    1.027
    11   6 C    3.992 --    10 C    1.027    40 H    0.978    41 H    0.974
                            42 H    0.961
    12   6 C    3.929 --    10 C    1.448    13 C    1.143    28 S    1.118
    13   6 C    3.950 --    14 C    1.429    27 C    1.189    12 C    1.143
    14   6 C    3.975 --    13 C    1.429    15 C    1.364    43 H    0.961
    15   6 C    3.987 --    16 C    1.437    14 C    1.364    44 H    0.963
    16   6 C    3.942 --    15 C    1.437    23 C    1.195    17 C    1.124
    17   6 C    3.941 --    18 C    1.488    16 C    1.124    22 S    1.121
    18   6 C    3.951 --    17 C    1.488    20 C    1.269    19 C    1.027
    19   6 C    3.993 --    18 C    1.027    47 H    0.978    45 H    0.976
                            46 H    0.962
    20   6 C    3.982 --    21 C    1.607    18 C    1.269    48 H    0.963
    21   6 C    3.925 --    20 C    1.607    22 S    1.202    49 H    0.968
    22  16 S    2.623 --    21 C    1.202    17 C    1.121
    23   6 C    3.970 --    24 N    1.384    16 C    1.195    27 C    1.171
    24   7 N    3.080 --    25 S    1.419    23 C    1.384    26 N    0.161
    25  16 S    3.165 --    24 N    1.419    26 N    1.408    27 C    0.102
    26   7 N    3.087 --    25 S    1.408    27 C    1.387    24 N    0.161
    27   6 C    3.968 --    26 N    1.387    13 C    1.189    23 C    1.171
                            25 S    0.102
    28  16 S    2.599 --     8 C    1.126    12 C    1.118
    29  16 S    2.575 --     4 C    1.144     7 C    1.109
    30   1 H    0.897 --     1 N    0.883
    31   1 H    0.901 --     1 N    0.885
    32   1 H    0.907 --     1 N    0.873
    33   1 H    0.983 --     2 C    0.961
    34   1 H    0.987 --     2 C    0.965
    35   1 H    0.987 --     3 C    0.952
    36   1 H    0.991 --     3 C    0.958
    37   1 H    0.997 --     5 C    0.962
    38   1 H    0.999 --     6 C    0.961
    39   1 H    0.995 --     9 C    0.959
    40   1 H    0.995 --    11 C    0.978
    41   1 H    0.997 --    11 C    0.974
    42   1 H    0.993 --    11 C    0.961
    43   1 H    0.994 --    14 C    0.961
    44   1 H    0.994 --    15 C    0.963
    45   1 H    0.996 --    19 C    0.976
    46   1 H    0.994 --    19 C    0.962
    47   1 H    0.996 --    19 C    0.978
    48   1 H    0.997 --    20 C    0.963
    49   1 H    0.996 --    21 C    0.968
 ---------------------------------------------------------------------------

Topologies differ in total number of bonds
Writing topology from bond orders to xtbtopo.mol

molecular dipole:
                 x           y           z       tot (Debye)
 q only:        5.621      -1.274       4.209
   full:        6.817      -1.831       3.629      20.174
molecular quadrupole (traceless):
                xx          xy          yy          xz          yz          zz
 q only:       27.386     -27.068      -6.138      78.455     -21.163     -21.248
  q+dip:       59.215     -50.686     -18.534      64.911     -15.886     -40.681
   full:       59.410     -47.676     -16.788      65.373     -16.333     -42.621

           -------------------------------------------------
          |                Geometry Summary                 |
           -------------------------------------------------

      molecular mass/u    :      454.6742641
   center of mass at/Å    :       10.3793762      -3.3125843      -2.5206043
  moments of inertia/u·Å² :        0.1214763E+04   0.1088248E+05   0.1175065E+05
rotational constants/cm⁻¹ :        0.1387730E-01   0.1549061E-02   0.1434613E-02

 * 50 selected distances

     #   Z          #   Z                                           value/Å
     1   7 N        2   6 C                                       1.4787790
     2   6 C        3   6 C                                       1.5308977
     4   6 C        5   6 C                                       1.3621364
     5   6 C        6   6 C                                       1.4076555
     6   6 C        7   6 C                                       1.3709020
     7   6 C        8   6 C                                       1.4232271
     8   6 C        9   6 C                                       1.3729797
     9   6 C       10   6 C                                       1.4048670
    10   6 C       11   6 C                                       1.4930881
    10   6 C       12   6 C                                       1.3838241
    13   6 C       14   6 C                                       1.3857875
    14   6 C       15   6 C                                       1.3968346
    15   6 C       16   6 C                                       1.3845507
    17   6 C       18   6 C                                       1.3780928
    18   6 C       19   6 C                                       1.4935575
    18   6 C       20   6 C                                       1.4149717
    20   6 C       21   6 C                                       1.3569577
    17   6 C       22  16 S                                       1.7452968
    21   6 C       22  16 S                                       1.7162005
    16   6 C       23   6 C                                       1.4183947
    23   6 C       24   7 N                                       1.3339166
    24   7 N       25  16 S                                       1.6066055
    25  16 S       26   7 N                                       1.6115474
    13   6 C       27   6 C                                       1.4206865
    23   6 C       27   6 C                                       1.4365912
    26   7 N       27   6 C                                       1.3336712
     8   6 C       28  16 S                                       1.7416038
    12   6 C       28  16 S                                       1.7440264
     4   6 C       29  16 S                                       1.7459900 (max)
     7   6 C       29  16 S                                       1.7295434
     1   7 N       30   1 H                                       1.0252381 (min)
     1   7 N       31   1 H                                       1.0260389
     1   7 N       32   1 H                                       1.0308165
     2   6 C       33   1 H                                       1.0890463
     2   6 C       34   1 H                                       1.0893909
     3   6 C       35   1 H                                       1.0905155
     3   6 C       36   1 H                                       1.0891405
     5   6 C       37   1 H                                       1.0749627
     6   6 C       38   1 H                                       1.0759633
     9   6 C       39   1 H                                       1.0762844
    11   6 C       40   1 H                                       1.0868902
    11   6 C       41   1 H                                       1.0876407
    11   6 C       42   1 H                                       1.0896887
    14   6 C       43   1 H                                       1.0756910
    15   6 C       44   1 H                                       1.0764660
    19   6 C       45   1 H                                       1.0872404
    19   6 C       46   1 H                                       1.0898092
    19   6 C       47   1 H                                       1.0871775
    20   6 C       48   1 H                                       1.0751780
    21   6 C       49   1 H                                       1.0712501

 * 6 distinct bonds (by element types)

   Z      Z             #   av. dist./Å        max./Å        min./Å
   1 H    6 C          17     1.0830786     1.0905155     1.0712501
   6 C    6 C          19     1.4124212     1.5308977     1.3569577
   1 H    7 N           3     1.0273645     1.0308165     1.0252381
   6 C    7 N           3     1.3821223     1.4787790     1.3336712
   6 C   16 S           6     1.7371102     1.7459900     1.7162005
   7 N   16 S           2     1.6090765     1.6115474     1.6066055


optimized geometry written to: xtbopt.xyz


           -------------------------------------------------
          | TOTAL ENERGY              -78.751595305461 Eh   |
          | GRADIENT NORM               0.000213690162 Eh/α |
          | HOMO-LUMO GAP               1.214571117340 eV   |
           -------------------------------------------------

------------------------------------------------------------------------
 * finished run on 2023/01/24 at 15:37:50.475     
------------------------------------------------------------------------
 total:
 * wall-time:     0 d,  0 h,  0 min,  7.056 sec
 *  cpu-time:     0 d,  0 h, 16 min, 43.420 sec
 * ratio c/w:   142.205 speedup
 SCF:
 * wall-time:     0 d,  0 h,  0 min,  0.309 sec
 *  cpu-time:     0 d,  0 h,  0 min, 43.907 sec
 * ratio c/w:   142.125 speedup
 ANC optimizer:
 * wall-time:     0 d,  0 h,  0 min,  6.724 sec
 *  cpu-time:     0 d,  0 h, 15 min, 56.368 sec
 * ratio c/w:   142.228 speedup

