 Entering Gaussian System
 *********************************************
 Gaussian 98:
 frequency output generated by the xtb code
 *********************************************
                         Standard orientation:
 --------------------------------------------------------------------
  Center     Atomic     Atomic              Coordinates (Angstroms)
  Number     Number      Type              X           Y           Z
 --------------------------------------------------------------------
    1          7             0       -0.820050   -0.958893    1.359335
    2          6             0       -0.736160   -2.164165    0.490496
    3          6             0       -0.377523   -1.848410   -0.960606
    4          6             0        1.004050   -1.198927   -1.132522
    5          6             0        1.026559    0.325183   -0.884944
    6          6             0        2.041204    0.718720    0.154932
    7          8             0        3.141346    1.372773   -0.285143
    8          8             0        1.847537    0.431123    1.316503
    9         17             0       -2.996434    1.302576   -0.175482
   10          1             0       -1.503588   -0.283530    0.979006
   11          1             0        0.099592   -0.480898    1.401721
   12          1             0       -1.100338   -1.190650    2.320766
   13          1             0       -1.692512   -2.699950    0.531851
   14          1             0        0.004598   -2.855939    0.907925
   15          1             0       -1.140811   -1.194537   -1.395754
   16          1             0       -0.425030   -2.773911   -1.548804
   17          1             0        1.397525   -1.411011   -2.135403
   18          1             0        1.712180   -1.685270   -0.451363
   19          1             0        0.041832    0.677579   -0.565751
   20          1             0        1.243898    0.872500   -1.808196
   21          1             0        3.713640    1.562712    0.472014
 --------------------------------------------------------------------
     1 basis functions        1 primitive gaussians
     1 alpha electrons        1 beta electrons

 Harmonic frequencies (cm**-1), IR intensities (km*mol⁻¹),
 Raman scattering activities (A**4/amu), Raman depolarization ratios,
 reduced masses (AMU), force constants (mDyne/A) and normal coordinates:
                      1                      2                      3
                        a                      a                      a 
 Frequencies --   -11.9204                41.5875                58.2478
 Red. masses --    27.5599                20.8269                17.0454
 Frc consts  --     0.0000                 0.0000                 0.0000
 IR Inten    --    81.3534                16.9244                16.0973
 Raman Activ --     0.0000                 0.0000                 0.0000
 Depolar     --     0.0000                 0.0000                 0.0000
 Atom AN      X      Y      Z        X      Y      Z        X      Y      Z
   1   7    -0.28   0.18  -0.14     0.18  -0.28   0.14     0.13   0.04   0.22
   2   6    -0.21   0.12  -0.06     0.15  -0.22   0.07    -0.01   0.11   0.09
   3   6    -0.08   0.04  -0.05    -0.01  -0.14   0.05    -0.24   0.27   0.07
   4   6    -0.05   0.00   0.04    -0.09   0.01  -0.04    -0.25   0.25  -0.08
   5   6    -0.05   0.01  -0.03    -0.22  -0.00   0.02    -0.13   0.21   0.14
   6   6    -0.08   0.06  -0.02    -0.23   0.04   0.00     0.05  -0.04   0.05
   7   8    -0.07   0.03  -0.02    -0.35   0.20  -0.00     0.03  -0.04  -0.01
   8   8    -0.14   0.15  -0.01    -0.17  -0.06  -0.01     0.28  -0.30   0.02
   9  17     0.68  -0.42   0.20     0.49   0.33  -0.17     0.08  -0.35  -0.35
  10   1    -0.06   0.05  -0.07     0.04  -0.07   0.05     0.03   0.02   0.08
  11   1    -0.07   0.04  -0.02     0.05  -0.07   0.03     0.04  -0.00   0.05
  12   1    -0.10   0.07  -0.04     0.06  -0.09   0.04     0.05  -0.01   0.06
  13   1    -0.07   0.04  -0.03     0.05  -0.08   0.04     0.00   0.03   0.05
  14   1    -0.08   0.04   0.01     0.07  -0.06  -0.01     0.02   0.02  -0.02
  15   1    -0.01   0.01  -0.04    -0.03  -0.05   0.04    -0.09   0.10   0.08
  16   1    -0.02   0.00  -0.00     0.01  -0.03   0.01    -0.10   0.10  -0.01
  17   1     0.01  -0.01   0.02    -0.05   0.03  -0.03    -0.13   0.11  -0.05
  18   1    -0.04   0.01   0.04     0.01   0.01  -0.04    -0.04   0.03  -0.08
  19   1    -0.02   0.01  -0.02    -0.07  -0.03   0.02    -0.02   0.06   0.09
  20   1    -0.01  -0.01  -0.01    -0.09   0.02   0.01    -0.07   0.10   0.05
  21   1    -0.03   0.02  -0.00    -0.09   0.06  -0.00     0.05  -0.07  -0.02
                      4                      5                      6
                        a                      a                      a 
 Frequencies --    84.5400               122.0651               139.4680
 Red. masses --    12.0113                14.3659                 9.2114
 Frc consts  --     0.0000                 0.0000                 0.0000
 IR Inten    --    27.7374                21.1791                14.3732
 Raman Activ --     0.0000                 0.0000                 0.0000
 Depolar     --     0.0000                 0.0000                 0.0000
 Atom AN      X      Y      Z        X      Y      Z        X      Y      Z
   1   7     0.20   0.29   0.01     0.12  -0.25   0.12    -0.34   0.10  -0.16
   2   6     0.28   0.18   0.14     0.03  -0.11  -0.08     0.27  -0.02   0.07
   3   6     0.03   0.02   0.05    -0.09   0.11  -0.05     0.24  -0.17   0.03
   4   6    -0.01   0.02  -0.31    -0.07   0.08  -0.06     0.04   0.19  -0.09
   5   6     0.07   0.01  -0.23    -0.04   0.06   0.06    -0.27   0.15   0.19
   6   6    -0.13  -0.11  -0.00    -0.01   0.06   0.03    -0.06  -0.01   0.05
   7   8    -0.00  -0.20   0.28     0.25  -0.45  -0.09    -0.00  -0.28  -0.17
   8   8    -0.47  -0.14  -0.06    -0.26   0.63   0.13     0.14  -0.04   0.08
   9  17    -0.00  -0.07   0.08     0.03  -0.05  -0.03    -0.00   0.08   0.02
  10   1     0.03   0.05  -0.01     0.02  -0.06   0.07    -0.11  -0.03  -0.12
  11   1     0.05   0.10  -0.02     0.02  -0.05   0.02    -0.13   0.08   0.02
  12   1     0.07   0.10   0.01     0.07  -0.11   0.03    -0.15   0.04  -0.06
  13   1     0.11   0.01   0.09     0.01  -0.03  -0.02     0.14  -0.12   0.02
  14   1     0.13   0.10   0.04     0.01  -0.06  -0.07     0.15   0.11   0.08
  15   1    -0.02  -0.01   0.03    -0.03   0.07   0.04     0.02  -0.13  -0.03
  16   1    -0.01  -0.01   0.05    -0.06   0.06  -0.06     0.15  -0.08   0.05
  17   1    -0.09   0.02  -0.13    -0.03   0.04  -0.03    -0.02   0.13  -0.05
  18   1     0.05  -0.01  -0.16    -0.02   0.00  -0.04     0.08   0.07  -0.08
  19   1     0.01   0.01  -0.12    -0.01   0.01   0.03    -0.08  -0.02   0.12
  20   1     0.09   0.01  -0.05    -0.02   0.03   0.02    -0.15   0.10   0.07
  21   1    -0.04  -0.07   0.11     0.07  -0.12  -0.03     0.08  -0.16  -0.08
                      7                      8                      9
                        a                      a                      a 
 Frequencies --   192.7493               221.8612               304.4224
 Red. masses --     9.9688                10.3286                 9.9266
 Frc consts  --     0.0000                 0.0000                 0.0000
 IR Inten    --    32.5830                 8.8738                12.1701
 Raman Activ --     0.0000                 0.0000                 0.0000
 Depolar     --     0.0000                 0.0000                 0.0000
 Atom AN      X      Y      Z        X      Y      Z        X      Y      Z
   1   7     0.51   0.24  -0.18    -0.01   0.12  -0.11     0.16   0.05  -0.48
   2   6    -0.14   0.16  -0.14     0.09   0.04  -0.01     0.08  -0.30   0.09
   3   6     0.10  -0.13  -0.15    -0.18  -0.06  -0.09    -0.27  -0.18   0.07
   4   6     0.06  -0.01   0.11    -0.14  -0.21  -0.36    -0.33   0.06   0.20
   5   6    -0.24  -0.02   0.21     0.11  -0.31   0.20    -0.02   0.12   0.00
   6   6    -0.14  -0.02   0.10     0.10  -0.12   0.17     0.08   0.09  -0.01
   7   8    -0.19  -0.17  -0.09    -0.14   0.16  -0.03     0.20   0.07   0.17
   8   8     0.01  -0.01   0.16     0.23   0.27   0.32     0.04   0.05  -0.03
   9  17    -0.04  -0.03   0.01    -0.01   0.01  -0.02    -0.01   0.01   0.02
  10   1     0.18   0.13  -0.02    -0.00   0.02  -0.05     0.03  -0.04  -0.20
  11   1     0.19  -0.03  -0.06    -0.01   0.04  -0.01     0.04   0.02  -0.21
  12   1     0.14   0.10  -0.04    -0.02   0.04  -0.03     0.07   0.16  -0.08
  13   1    -0.12   0.19  -0.04     0.05  -0.03   0.05     0.06  -0.14   0.13
  14   1    -0.14  -0.06  -0.03     0.07   0.06  -0.01     0.10  -0.01   0.02
  15   1     0.04  -0.08  -0.13    -0.06   0.00   0.01    -0.13  -0.07   0.08
  16   1     0.09  -0.07   0.01    -0.11  -0.02  -0.02    -0.04  -0.02  -0.03
  17   1     0.08   0.02   0.05    -0.16   0.03  -0.17    -0.05  -0.02   0.08
  18   1    -0.01   0.01   0.07     0.02  -0.16  -0.24    -0.12   0.03   0.10
  19   1    -0.08  -0.05   0.08     0.04  -0.09   0.07     0.02   0.12  -0.02
  20   1    -0.11   0.02   0.06     0.02  -0.03   0.09     0.03  -0.02  -0.03
  21   1     0.01  -0.07  -0.06    -0.07   0.21  -0.02     0.02  -0.03   0.08
                     10                     11                     12
                        a                      a                      a 
 Frequencies --   326.2673               412.5509               423.3784
 Red. masses --     7.6779                 7.4295                 2.9462
 Frc consts  --     0.0000                 0.0000                 0.0000
 IR Inten    --     5.8093                12.0532                10.8741
 Raman Activ --     0.0000                 0.0000                 0.0000
 Depolar     --     0.0000                 0.0000                 0.0000
 Atom AN      X      Y      Z        X      Y      Z        X      Y      Z
   1   7    -0.00   0.05  -0.12     0.04  -0.07  -0.11    -0.05   0.00  -0.03
   2   6     0.34   0.05  -0.08    -0.09  -0.17   0.09    -0.11  -0.01   0.00
   3   6    -0.11   0.36  -0.09     0.06   0.06   0.19     0.05  -0.07   0.02
   4   6     0.11  -0.12   0.28     0.02   0.15  -0.03    -0.00   0.08  -0.02
   5   6     0.01  -0.13   0.04     0.26   0.16  -0.17     0.13   0.09  -0.07
   6   6    -0.10  -0.08   0.06    -0.10  -0.02   0.19    -0.04  -0.00   0.13
   7   8    -0.25  -0.11  -0.18    -0.27  -0.12  -0.24    -0.15  -0.05  -0.11
   8   8    -0.04  -0.09   0.09     0.05  -0.03   0.24     0.07  -0.03   0.16
   9  17    -0.00   0.01   0.00    -0.01  -0.00   0.01     0.02   0.00  -0.01
  10   1    -0.06  -0.05  -0.03     0.20   0.07  -0.20    -0.34  -0.18   0.26
  11   1    -0.04   0.09  -0.04     0.08  -0.16   0.12    -0.12   0.23  -0.42
  12   1     0.03  -0.00  -0.03    -0.25   0.09  -0.08     0.52  -0.05   0.14
  13   1     0.17  -0.12   0.06    -0.06   0.01  -0.03    -0.04   0.01  -0.01
  14   1     0.23   0.12  -0.09    -0.09  -0.10   0.06    -0.04  -0.01   0.01
  15   1     0.02   0.25   0.11     0.00   0.03   0.10     0.00  -0.06  -0.04
  16   1    -0.18   0.18  -0.14     0.02   0.05   0.00     0.07  -0.04   0.04
  17   1     0.18  -0.11   0.15    -0.08   0.03  -0.04    -0.03   0.02  -0.02
  18   1    -0.09  -0.02   0.22     0.06   0.04  -0.07     0.02   0.02  -0.03
  19   1    -0.01  -0.03  -0.03     0.04   0.15  -0.26     0.01   0.09  -0.16
  20   1     0.03  -0.06   0.00     0.33  -0.00  -0.02     0.19  -0.00  -0.00
  21   1    -0.01   0.00  -0.10     0.05   0.00  -0.16     0.05  -0.03  -0.09
                     13                     14                     15
                        a                      a                      a 
 Frequencies --   488.4384               521.5376               577.3780
 Red. masses --     6.7027                 5.3906                 9.6848
 Frc consts  --     0.0000                 0.0000                 0.0000
 IR Inten    --    12.7392               146.4997               154.5833
 Raman Activ --     0.0000                 0.0000                 0.0000
 Depolar     --     0.0000                 0.0000                 0.0000
 Atom AN      X      Y      Z        X      Y      Z        X      Y      Z
   1   7    -0.01   0.00   0.25     0.00  -0.00   0.01     0.01   0.01   0.02
   2   6     0.15   0.21  -0.13     0.02   0.02  -0.02    -0.00   0.03  -0.02
   3   6    -0.16  -0.24  -0.32     0.03  -0.03  -0.02    -0.07  -0.07  -0.06
   4   6    -0.25   0.03   0.08    -0.09   0.19   0.10    -0.05  -0.02   0.04
   5   6     0.08   0.08  -0.16     0.09   0.11   0.11     0.23  -0.03   0.25
   6   6    -0.05   0.01   0.06     0.22  -0.22   0.02     0.24   0.07   0.14
   7   8    -0.04  -0.02   0.03     0.07  -0.15  -0.21     0.05   0.29  -0.27
   8   8     0.15   0.05   0.11    -0.27  -0.11  -0.02    -0.48  -0.18  -0.01
   9  17     0.00  -0.01   0.00     0.00  -0.00  -0.00     0.00  -0.00  -0.00
  10   1     0.04   0.06   0.08    -0.00   0.00   0.01     0.02   0.01   0.01
  11   1    -0.00  -0.01   0.21     0.00   0.00   0.00     0.01  -0.01   0.02
  12   1    -0.11  -0.13   0.00     0.01  -0.01   0.00    -0.02  -0.01  -0.00
  13   1     0.10  -0.03   0.06     0.01  -0.01   0.00     0.02  -0.02   0.03
  14   1     0.14   0.13  -0.10     0.02   0.01  -0.01     0.03   0.03  -0.02
  15   1    -0.10  -0.24  -0.25    -0.02  -0.08  -0.06    -0.03  -0.06  -0.05
  16   1     0.14  -0.18   0.06     0.10  -0.04   0.03     0.03  -0.04   0.02
  17   1     0.09  -0.06   0.10     0.01   0.05   0.04    -0.04   0.04  -0.01
  18   1    -0.18   0.04   0.16    -0.04   0.06   0.05    -0.02  -0.08  -0.04
  19   1     0.01   0.13  -0.18     0.07   0.07   0.13     0.09  -0.01   0.14
  20   1     0.20  -0.05  -0.05    -0.02   0.05   0.04    -0.01   0.00   0.06
  21   1     0.02  -0.07  -0.00    -0.27   0.72  -0.03     0.39  -0.27  -0.27
                     16                     17                     18
                        a                      a                      a 
 Frequencies --   702.6841               796.4310               841.6077
 Red. masses --    11.2298                 6.4684                 4.5113
 Frc consts  --     0.0000                 0.0000                 0.0000
 IR Inten    --    86.9476                 9.0690                39.2910
 Raman Activ --     0.0000                 0.0000                 0.0000
 Depolar     --     0.0000                 0.0000                 0.0000
 Atom AN      X      Y      Z        X      Y      Z        X      Y      Z
   1   7     0.01  -0.01  -0.02     0.02  -0.10  -0.13    -0.05  -0.04   0.03
   2   6     0.01  -0.01   0.01     0.03   0.18  -0.18    -0.33  -0.08   0.08
   3   6     0.08   0.07   0.05     0.10   0.18   0.19    -0.13   0.14  -0.03
   4   6    -0.06   0.19   0.04    -0.16   0.01   0.36     0.22   0.06  -0.04
   5   6     0.03   0.01  -0.06     0.05  -0.17   0.23     0.19   0.03  -0.01
   6   6     0.27  -0.70  -0.20    -0.09   0.03  -0.14    -0.02   0.07  -0.04
   7   8    -0.31   0.14   0.12    -0.05  -0.05   0.02    -0.15  -0.11   0.05
   8   8     0.00   0.27  -0.03     0.03   0.02  -0.19     0.04   0.03  -0.06
   9  17     0.00   0.00  -0.00     0.00  -0.00  -0.00    -0.00  -0.00  -0.00
  10   1    -0.01  -0.02  -0.02     0.01   0.01   0.03     0.14   0.16   0.04
  11   1    -0.01   0.02  -0.00     0.01  -0.04   0.01     0.13  -0.27  -0.18
  12   1     0.00   0.01  -0.00     0.01  -0.14  -0.06     0.09   0.19   0.09
  13   1    -0.01   0.03  -0.04     0.05  -0.03  -0.05     0.11  -0.37   0.21
  14   1    -0.03  -0.03   0.02     0.08   0.09  -0.10     0.24   0.25  -0.10
  15   1    -0.01  -0.03   0.00     0.05  -0.04  -0.12    -0.01  -0.08  -0.22
  16   1     0.09   0.01   0.02     0.19  -0.01   0.14     0.13  -0.05   0.11
  17   1     0.04  -0.01   0.05    -0.37   0.18  -0.07     0.05  -0.01  -0.01
  18   1    -0.05   0.09   0.07     0.16  -0.15  -0.23     0.04  -0.01  -0.01
  19   1     0.07   0.06   0.13     0.02   0.11  -0.08     0.04  -0.14   0.12
  20   1    -0.04   0.07   0.01     0.15  -0.21  -0.00    -0.10   0.11   0.02
  21   1     0.02  -0.28   0.04    -0.11  -0.08   0.10    -0.05  -0.04   0.03
                     19                     20                     21
                        a                      a                      a 
 Frequencies --   876.5536               885.8911               922.5175
 Red. masses --     6.9069                 8.5864                 5.8953
 Frc consts  --     0.0000                 0.0000                 0.0000
 IR Inten    --     1.1201                15.4392                15.3246
 Raman Activ --     0.0000                 0.0000                 0.0000
 Depolar     --     0.0000                 0.0000                 0.0000
 Atom AN      X      Y      Z        X      Y      Z        X      Y      Z
   1   7    -0.05   0.24   0.19    -0.03  -0.03  -0.06    -0.01   0.03   0.27
   2   6    -0.08  -0.19  -0.02    -0.14   0.09  -0.08     0.02  -0.20   0.08
   3   6     0.02  -0.35  -0.30     0.08  -0.03   0.10     0.07   0.24  -0.22
   4   6     0.11  -0.00   0.15     0.04  -0.09   0.05    -0.01   0.06  -0.03
   5   6     0.04   0.16   0.21    -0.45   0.04  -0.20    -0.21  -0.19   0.13
   6   6     0.02  -0.06  -0.11     0.08  -0.28   0.11    -0.06  -0.11  -0.01
   7   8    -0.09  -0.03   0.01     0.29   0.23  -0.08     0.19   0.13  -0.08
   8   8    -0.00   0.04  -0.15    -0.07  -0.00   0.23    -0.04  -0.01   0.01
   9  17    -0.00  -0.00  -0.00    -0.00  -0.00  -0.00    -0.00   0.00   0.00
  10   1     0.02   0.13   0.11     0.09   0.17   0.13     0.02  -0.15  -0.24
  11   1     0.03  -0.01   0.04     0.08  -0.18  -0.05    -0.03   0.06  -0.13
  12   1     0.02   0.03   0.05     0.06  -0.08  -0.01    -0.04   0.47   0.17
  13   1     0.01  -0.10   0.10     0.08  -0.18   0.04    -0.02  -0.01  -0.02
  14   1     0.03   0.05   0.07     0.13   0.20  -0.03    -0.02  -0.14  -0.09
  15   1     0.11   0.19   0.14     0.12   0.09   0.00    -0.01  -0.05  -0.18
  16   1    -0.23   0.09  -0.35    -0.08   0.01   0.01     0.18   0.01   0.00
  17   1    -0.05   0.21  -0.03    -0.08  -0.04  -0.02     0.05   0.09  -0.00
  18   1     0.15  -0.04  -0.12     0.14   0.08  -0.04    -0.06  -0.06  -0.01
  19   1     0.03   0.20  -0.04    -0.14   0.09  -0.21    -0.09   0.07  -0.21
  20   1     0.17  -0.06   0.03     0.04  -0.06  -0.06     0.17  -0.17   0.02
  21   1    -0.09  -0.06   0.07     0.14   0.08  -0.08    -0.02  -0.02   0.04
                     22                     23                     24
                        a                      a                      a 
 Frequencies --   973.6046               992.1682              1021.6289
 Red. masses --     5.1646                 7.2018                 7.2239
 Frc consts  --     0.0000                 0.0000                 0.0000
 IR Inten    --    15.8041               156.6298               232.7090
 Raman Activ --     0.0000                 0.0000                 0.0000
 Depolar     --     0.0000                 0.0000                 0.0000
 Atom AN      X      Y      Z        X      Y      Z        X      Y      Z
   1   7     0.15  -0.14  -0.01     0.01  -0.19  -0.20    -0.11  -0.26   0.04
   2   6    -0.08   0.11   0.07    -0.05   0.20   0.21     0.13   0.29   0.02
   3   6    -0.25  -0.06  -0.03    -0.12  -0.01   0.05     0.10  -0.05   0.00
   4   6     0.29  -0.17   0.14     0.18   0.00  -0.24    -0.09  -0.26  -0.10
   5   6    -0.05   0.30  -0.07    -0.01   0.07   0.38    -0.10   0.20   0.12
   6   6     0.05  -0.09  -0.01    -0.13  -0.11  -0.07     0.21   0.11  -0.03
   7   8    -0.03   0.00   0.02     0.14   0.11  -0.17    -0.21  -0.13   0.17
   8   8     0.00   0.02   0.02    -0.05  -0.00  -0.08     0.02   0.04  -0.13
   9  17     0.00   0.00   0.00    -0.00   0.00  -0.00    -0.00  -0.00   0.00
  10   1    -0.10  -0.31  -0.23     0.01   0.00   0.03     0.09  -0.01  -0.12
  11   1    -0.12   0.26   0.09     0.01  -0.07  -0.00     0.06  -0.21  -0.24
  12   1    -0.14   0.03  -0.04     0.01  -0.17  -0.08     0.05   0.27   0.11
  13   1    -0.05   0.09   0.27    -0.01   0.04   0.07     0.04   0.05  -0.21
  14   1     0.05  -0.07  -0.26    -0.02   0.06   0.09    -0.02   0.03   0.04
  15   1     0.11   0.05  -0.22    -0.07  -0.04   0.03     0.10   0.07  -0.00
  16   1    -0.12  -0.09   0.12    -0.09  -0.06   0.11    -0.20  -0.08   0.12
  17   1    -0.11   0.03  -0.05     0.28   0.02   0.02     0.06  -0.05   0.00
  18   1     0.23  -0.03  -0.11    -0.11  -0.01   0.10    -0.06  -0.04   0.03
  19   1    -0.02   0.04   0.01    -0.06   0.08  -0.15     0.06   0.29   0.03
  20   1    -0.04   0.10  -0.01     0.31   0.05   0.19     0.04  -0.07  -0.03
  21   1     0.01   0.03  -0.02    -0.24  -0.15   0.21     0.13   0.09  -0.13
                     25                     26                     27
                        a                      a                      a 
 Frequencies --  1053.1293              1085.9213              1109.5189
 Red. masses --     7.3785                 9.1428                 5.7236
 Frc consts  --     0.0000                 0.0000                 0.0000
 IR Inten    --   208.8528                41.0229                 7.2974
 Raman Activ --     0.0000                 0.0000                 0.0000
 Depolar     --     0.0000                 0.0000                 0.0000
 Atom AN      X      Y      Z        X      Y      Z        X      Y      Z
   1   7    -0.07   0.06   0.13    -0.03  -0.31  -0.08     0.13   0.02   0.06
   2   6     0.15  -0.02  -0.26    -0.00   0.36   0.32    -0.25   0.01  -0.15
   3   6     0.01  -0.05   0.10     0.09  -0.14  -0.27     0.29  -0.10   0.18
   4   6    -0.10  -0.25   0.10    -0.12   0.24   0.16    -0.27   0.07  -0.22
   5   6     0.18   0.30  -0.07     0.13  -0.21  -0.20     0.04  -0.18   0.10
   6   6    -0.20  -0.11   0.03    -0.12  -0.00   0.05     0.01   0.12   0.02
   7   8     0.16   0.12  -0.26     0.09   0.06  -0.12    -0.01  -0.01  -0.05
   8   8    -0.03  -0.04   0.16    -0.00  -0.04   0.15    -0.01  -0.03  -0.01
   9  17    -0.00   0.00  -0.00    -0.00   0.00  -0.00     0.00   0.00   0.00
  10   1     0.04   0.04  -0.03     0.02  -0.09  -0.11    -0.05  -0.14  -0.10
  11   1     0.03  -0.07  -0.09     0.02  -0.12  -0.11    -0.05   0.17   0.07
  12   1     0.04   0.21   0.10     0.02   0.10   0.03    -0.08   0.04  -0.01
  13   1     0.03   0.00  -0.23    -0.00   0.10   0.08     0.02  -0.12   0.15
  14   1    -0.01  -0.05  -0.06    -0.04   0.08   0.13     0.14   0.09  -0.24
  15   1     0.03   0.00   0.02     0.10   0.11   0.01     0.28   0.17  -0.02
  16   1    -0.07  -0.04   0.07    -0.09   0.05  -0.18    -0.12   0.01   0.00
  17   1    -0.13  -0.12  -0.00    -0.06   0.14   0.01     0.02  -0.21   0.03
  18   1     0.01  -0.05  -0.01     0.06   0.06  -0.05    -0.03   0.34   0.14
  19   1     0.04  -0.07   0.14     0.08  -0.08   0.11     0.10   0.14   0.10
  20   1    -0.07   0.25   0.06    -0.17  -0.05  -0.10     0.07  -0.02   0.06
  21   1    -0.30  -0.19   0.26    -0.11  -0.09   0.10    -0.10  -0.08   0.08
                     28                     29                     30
                        a                      a                      a 
 Frequencies --  1124.6379              1161.8757              1200.1743
 Red. masses --     7.7103                 4.1219                 6.6636
 Frc consts  --     0.0000                 0.0000                 0.0000
 IR Inten    --    14.3367                21.3361               166.5581
 Raman Activ --     0.0000                 0.0000                 0.0000
 Depolar     --     0.0000                 0.0000                 0.0000
 Atom AN      X      Y      Z        X      Y      Z        X      Y      Z
   1   7    -0.06  -0.02   0.10    -0.02   0.08   0.00    -0.00  -0.05   0.01
   2   6     0.11   0.11  -0.31     0.03  -0.10  -0.06     0.00   0.05   0.02
   3   6    -0.30  -0.26   0.21    -0.14   0.04   0.06     0.02  -0.00  -0.05
   4   6     0.21   0.38   0.06     0.20   0.05  -0.09    -0.03   0.00   0.04
   5   6     0.03  -0.27   0.03    -0.09  -0.04  -0.09    -0.12   0.06   0.02
   6   6     0.01  -0.00  -0.01     0.22   0.14   0.10     0.60   0.21   0.09
   7   8     0.00  -0.01   0.04    -0.06  -0.01  -0.15    -0.18  -0.08  -0.08
   8   8     0.01   0.01  -0.06    -0.05  -0.06   0.19    -0.08  -0.03   0.02
   9  17    -0.00   0.00   0.00     0.00  -0.00  -0.00     0.00   0.00   0.00
  10   1     0.04   0.01  -0.06     0.00   0.05   0.03     0.02  -0.00  -0.01
  11   1     0.01  -0.05  -0.09     0.00  -0.00   0.01    -0.01   0.02  -0.02
  12   1     0.02   0.18   0.08     0.01  -0.06  -0.02    -0.03   0.02   0.00
  13   1     0.02   0.05  -0.15    -0.01   0.01  -0.02    -0.00   0.02   0.02
  14   1     0.01  -0.03  -0.17    -0.01  -0.05  -0.03    -0.01   0.02   0.04
  15   1    -0.12  -0.05   0.16    -0.08  -0.06   0.00    -0.04  -0.02   0.03
  16   1    -0.25  -0.10   0.12    -0.04  -0.07   0.14     0.07   0.06  -0.12
  17   1     0.04   0.09   0.01     0.14   0.12  -0.02    -0.16  -0.19  -0.01
  18   1     0.17   0.25   0.01     0.04  -0.01  -0.02     0.02   0.03  -0.00
  19   1    -0.07  -0.18  -0.11     0.17   0.38   0.15    -0.25  -0.33  -0.32
  20   1     0.06   0.00   0.06    -0.22  -0.42  -0.31     0.03   0.05   0.03
  21   1     0.06   0.03  -0.04    -0.26  -0.17   0.21    -0.27  -0.15   0.20
                     31                     32                     33
                        a                      a                      a 
 Frequencies --  1209.4271              1247.5990              1259.6866
 Red. masses --     4.1743                 2.2463                 2.5263
 Frc consts  --     0.0000                 0.0000                 0.0000
 IR Inten    --    20.6656                 2.4744                10.0724
 Raman Activ --     0.0000                 0.0000                 0.0000
 Depolar     --     0.0000                 0.0000                 0.0000
 Atom AN      X      Y      Z        X      Y      Z        X      Y      Z
   1   7     0.18  -0.11   0.09     0.05   0.08  -0.03     0.22  -0.01   0.04
   2   6    -0.26   0.19  -0.22    -0.03  -0.14   0.05    -0.09  -0.05   0.02
   3   6     0.12  -0.11   0.16     0.13   0.01   0.00    -0.16   0.08  -0.14
   4   6     0.04  -0.01  -0.02    -0.16   0.13   0.05     0.07  -0.00   0.05
   5   6     0.02   0.11  -0.03     0.07   0.03  -0.07    -0.02  -0.07   0.01
   6   6    -0.02  -0.05  -0.01     0.08   0.00   0.01    -0.00   0.02   0.00
   7   8     0.01   0.01   0.00    -0.02  -0.01  -0.00     0.00  -0.00  -0.00
   8   8     0.01   0.00   0.03    -0.01   0.00   0.01     0.00  -0.01  -0.01
   9  17     0.00   0.00   0.00     0.00   0.00   0.00     0.00   0.00   0.00
  10   1    -0.03  -0.19  -0.13    -0.03   0.00   0.04    -0.06  -0.15  -0.05
  11   1    -0.06   0.18   0.01     0.00   0.04   0.05    -0.04   0.18   0.05
  12   1    -0.11   0.12   0.01    -0.01  -0.06  -0.03    -0.10  -0.01  -0.04
  13   1     0.06  -0.17  -0.06     0.03  -0.12  -0.14     0.10  -0.27  -0.45
  14   1     0.07   0.26   0.05     0.00  -0.03   0.02    -0.07   0.25   0.54
  15   1    -0.23  -0.11   0.36     0.28   0.15  -0.20    -0.02  -0.01  -0.13
  16   1     0.11   0.09  -0.15    -0.40  -0.19   0.33    -0.08  -0.06   0.09
  17   1     0.14   0.19   0.01     0.17   0.36   0.03    -0.12  -0.13  -0.01
  18   1    -0.21  -0.36  -0.03    -0.22  -0.26  -0.01     0.17   0.21  -0.00
  19   1    -0.04  -0.05  -0.05    -0.12  -0.26  -0.15     0.04   0.08   0.05
  20   1    -0.09  -0.08  -0.09    -0.05  -0.01  -0.04     0.05   0.04   0.04
  21   1     0.01   0.01  -0.01    -0.02  -0.01   0.01    -0.01  -0.00   0.00
                     34                     35                     36
                        a                      a                      a 
 Frequencies --  1312.9493              1331.7968              1353.7570
 Red. masses --     4.4434                 3.6612                 4.0288
 Frc consts  --     0.0000                 0.0000                 0.0000
 IR Inten    --    52.1265                21.1134                 5.0914
 Raman Activ --     0.0000                 0.0000                 0.0000
 Depolar     --     0.0000                 0.0000                 0.0000
 Atom AN      X      Y      Z        X      Y      Z        X      Y      Z
   1   7    -0.01  -0.04  -0.01    -0.03  -0.13   0.01    -0.01  -0.12   0.00
   2   6     0.01  -0.03  -0.05     0.04  -0.11  -0.33     0.10  -0.04  -0.22
   3   6     0.06  -0.00  -0.07     0.16   0.12  -0.11    -0.18   0.02   0.21
   4   6     0.04   0.16  -0.08     0.06   0.08   0.07    -0.18  -0.23  -0.08
   5   6     0.19   0.28   0.29    -0.09  -0.11  -0.09     0.12   0.09   0.06
   6   6    -0.18  -0.16  -0.05     0.03   0.05   0.02    -0.00  -0.03  -0.02
   7   8     0.04   0.03   0.02    -0.00  -0.00  -0.00    -0.01   0.00   0.01
   8   8     0.02   0.02  -0.01    -0.00  -0.01  -0.00     0.00   0.00   0.01
   9  17    -0.00   0.00   0.00    -0.00  -0.00  -0.00    -0.00  -0.00   0.00
  10   1     0.00   0.02   0.03     0.05   0.05   0.04     0.06   0.06   0.05
  11   1    -0.01   0.01   0.02    -0.05   0.05   0.02    -0.05   0.06   0.01
  12   1     0.01   0.05   0.02     0.01   0.12   0.04     0.00   0.12   0.04
  13   1    -0.01   0.03   0.10    -0.09   0.19   0.52    -0.05   0.14   0.20
  14   1    -0.02   0.02   0.09    -0.08   0.15   0.37    -0.05   0.13   0.31
  15   1     0.00  -0.01  -0.01    -0.10  -0.05   0.10     0.17   0.09  -0.19
  16   1    -0.14  -0.05   0.06    -0.20  -0.13   0.25     0.21   0.10  -0.12
  17   1    -0.20  -0.40  -0.01    -0.12  -0.06  -0.01     0.28   0.35   0.02
  18   1    -0.04   0.04   0.02    -0.08  -0.13   0.00     0.17   0.28   0.00
  19   1    -0.11  -0.21  -0.11     0.06   0.11   0.08    -0.06  -0.14  -0.11
  20   1    -0.20  -0.48  -0.29     0.08   0.16   0.11    -0.09  -0.10  -0.08
  21   1     0.06   0.05  -0.05    -0.01  -0.01   0.01     0.01   0.01  -0.01
                     37                     38                     39
                        a                      a                      a 
 Frequencies --  1364.4672              1410.5614              1420.7931
 Red. masses --     4.5433                 2.8070                 1.5697
 Frc consts  --     0.0000                 0.0000                 0.0000
 IR Inten    --     1.2357               217.9935                94.3777
 Raman Activ --     0.0000                 0.0000                 0.0000
 Depolar     --     0.0000                 0.0000                 0.0000
 Atom AN      X      Y      Z        X      Y      Z        X      Y      Z
   1   7    -0.01  -0.01   0.04    -0.02  -0.23  -0.26    -0.17   0.10   0.03
   2   6     0.11   0.02  -0.10    -0.03   0.00   0.10    -0.05   0.01  -0.05
   3   6    -0.25  -0.20   0.26    -0.02  -0.03  -0.01     0.02   0.01   0.01
   4   6     0.18   0.27  -0.07     0.04   0.01   0.00    -0.01  -0.02  -0.00
   5   6    -0.09  -0.06  -0.04    -0.04  -0.01  -0.03    -0.01   0.02  -0.00
   6   6    -0.00   0.02   0.01     0.02   0.02  -0.00     0.01   0.00  -0.00
   7   8     0.00   0.00  -0.01    -0.00  -0.00  -0.00    -0.00  -0.00   0.00
   8   8     0.00  -0.00  -0.00    -0.00  -0.01   0.00    -0.00   0.00  -0.00
   9  17    -0.00  -0.00   0.00    -0.00  -0.00  -0.00    -0.00   0.00   0.00
  10   1     0.02  -0.01  -0.04     0.07   0.24   0.31     0.15  -0.14  -0.56
  11   1     0.01  -0.02  -0.03    -0.17   0.27   0.53     0.03  -0.11   0.39
  12   1     0.01  -0.00   0.01     0.22   0.44   0.14     0.61  -0.19   0.14
  13   1     0.01   0.03  -0.01     0.00  -0.02  -0.16     0.01  -0.04   0.01
  14   1    -0.05   0.03   0.16     0.06  -0.00  -0.11    -0.02   0.05   0.08
  15   1     0.36   0.20  -0.31     0.01   0.02   0.01    -0.02  -0.03  -0.01
  16   1     0.17   0.12  -0.21     0.03  -0.00  -0.02    -0.03   0.01  -0.01
  17   1    -0.10  -0.22  -0.01    -0.03  -0.01  -0.01     0.01   0.02  -0.00
  18   1    -0.28  -0.37   0.01    -0.03  -0.03   0.01     0.01   0.02   0.00
  19   1     0.03   0.09   0.06     0.02   0.02   0.06    -0.01  -0.04   0.00
  20   1     0.05   0.03   0.03     0.05  -0.00   0.01     0.02  -0.02  -0.01
  21   1    -0.01  -0.00   0.01    -0.00  -0.00   0.00    -0.00  -0.00   0.00
                     40                     41                     42
                        a                      a                      a 
 Frequencies --  1443.1581              1480.8317              1489.5900
 Red. masses --     1.6706                 1.8900                 1.8353
 Frc consts  --     0.0000                 0.0000                 0.0000
 IR Inten    --    78.0931                12.9902                15.1016
 Raman Activ --     0.0000                 0.0000                 0.0000
 Depolar     --     0.0000                 0.0000                 0.0000
 Atom AN      X      Y      Z        X      Y      Z        X      Y      Z
   1   7     0.06   0.13  -0.10     0.00   0.01  -0.02    -0.01  -0.05   0.05
   2   6     0.02   0.01  -0.06     0.04   0.25  -0.10     0.01   0.04   0.00
   3   6    -0.02  -0.00   0.01    -0.02  -0.00  -0.02     0.05   0.02   0.06
   4   6    -0.02  -0.01  -0.01     0.03  -0.04  -0.02     0.00  -0.01  -0.01
   5   6    -0.09   0.07  -0.06     0.03  -0.01   0.02    -0.16   0.13  -0.13
   6   6     0.04   0.02   0.00     0.00  -0.00  -0.00     0.01   0.03  -0.01
   7   8    -0.01  -0.00  -0.00    -0.00  -0.00   0.00    -0.01  -0.00  -0.00
   8   8    -0.01   0.00   0.01     0.00  -0.00   0.00    -0.00  -0.01   0.02
   9  17     0.00   0.00  -0.00     0.00  -0.00  -0.00    -0.00   0.00  -0.00
  10   1    -0.48  -0.37   0.18    -0.02   0.01   0.04     0.18   0.14  -0.06
  11   1     0.24  -0.46   0.27    -0.00   0.01   0.05    -0.09   0.18  -0.17
  12   1    -0.04   0.21   0.02     0.01   0.04   0.01    -0.03  -0.08  -0.02
  13   1    -0.01   0.03   0.06     0.31  -0.52   0.24     0.04  -0.07   0.03
  14   1    -0.01   0.02   0.04    -0.47  -0.45   0.07    -0.06  -0.07  -0.00
  15   1     0.01   0.02   0.02     0.02   0.07   0.06    -0.06  -0.15  -0.13
  16   1     0.04  -0.01   0.01     0.08  -0.03   0.04    -0.14   0.08  -0.11
  17   1     0.04   0.02   0.01    -0.08   0.08  -0.05    -0.01   0.07  -0.02
  18   1     0.02   0.01  -0.02    -0.05   0.06   0.09    -0.01   0.04   0.03
  19   1     0.00  -0.15   0.20    -0.01   0.03  -0.06     0.03  -0.34   0.49
  20   1     0.25  -0.13  -0.02    -0.06   0.02   0.00     0.51  -0.27  -0.05
  21   1    -0.01  -0.00   0.00     0.00   0.00  -0.00    -0.00  -0.00   0.00
                     43                     44                     45
                        a                      a                      a 
 Frequencies --  1495.6681              1505.5549              1705.9033
 Red. masses --     1.8917                 1.8462                13.2968
 Frc consts  --     0.0000                 0.0000                 0.0000
 IR Inten    --     5.6767                 3.4646               658.7833
 Raman Activ --     0.0000                 0.0000                 0.0000
 Depolar     --     0.0000                 0.0000                 0.0000
 Atom AN      X      Y      Z        X      Y      Z        X      Y      Z
   1   7     0.01   0.01  -0.04     0.00  -0.01  -0.01     0.01   0.00  -0.00
   2   6     0.02   0.02  -0.00     0.01   0.05  -0.03    -0.00   0.00   0.00
   3   6     0.15   0.06   0.20     0.03   0.03   0.05     0.00   0.00   0.00
   4   6     0.07  -0.04  -0.00    -0.21   0.13   0.07     0.00  -0.02  -0.00
   5   6     0.05  -0.06   0.03    -0.01  -0.01   0.00    -0.03   0.01  -0.06
   6   6    -0.00  -0.01   0.00     0.00   0.01   0.02    -0.06  -0.15   0.77
   7   8     0.00  -0.00  -0.00    -0.00  -0.00  -0.00     0.01   0.01  -0.05
   8   8    -0.00   0.00  -0.00     0.00   0.00  -0.02     0.08   0.13  -0.58
   9  17     0.00  -0.00  -0.00     0.00  -0.00  -0.00    -0.00   0.00  -0.00
  10   1    -0.09  -0.05   0.08     0.00   0.02   0.02     0.00   0.00   0.00
  11   1     0.03  -0.07   0.07    -0.02   0.03   0.03    -0.02  -0.00   0.00
  12   1    -0.02   0.06   0.01     0.01   0.02   0.01     0.00   0.00   0.00
  13   1     0.01  -0.01   0.03     0.06  -0.10   0.05     0.00  -0.00  -0.00
  14   1    -0.02  -0.02   0.01    -0.10  -0.09   0.02     0.00   0.00   0.00
  15   1    -0.16  -0.47  -0.41    -0.04  -0.12  -0.10    -0.00  -0.00   0.00
  16   1    -0.44   0.24  -0.33    -0.11   0.05  -0.07     0.01   0.00  -0.00
  17   1    -0.11   0.10  -0.06     0.47  -0.35   0.26    -0.01   0.02  -0.01
  18   1    -0.08   0.05   0.12     0.34  -0.22  -0.51    -0.01   0.01   0.02
  19   1     0.01   0.13  -0.14     0.01   0.04  -0.00     0.01  -0.01   0.03
  20   1    -0.15   0.08   0.02    -0.01   0.04   0.02    -0.03  -0.04  -0.03
  21   1     0.00   0.00  -0.00    -0.00  -0.00   0.00    -0.06  -0.04   0.04
                     46                     47                     48
                        a                      a                      a 
 Frequencies --  2914.4883              2934.3267              2946.6160
 Red. masses --     1.9400                 1.8764                 1.9530
 Frc consts  --     0.0000                 0.0000                 0.0000
 IR Inten    --    22.7010                15.8543                11.3343
 Raman Activ --     0.0000                 0.0000                 0.0000
 Depolar     --     0.0000                 0.0000                 0.0000
 Atom AN      X      Y      Z        X      Y      Z        X      Y      Z
   1   7     0.00   0.00  -0.00    -0.00  -0.00   0.00     0.01   0.00   0.00
   2   6    -0.01   0.00  -0.00     0.01  -0.01   0.01    -0.28   0.02  -0.06
   3   6    -0.00  -0.03  -0.01    -0.06   0.25   0.08     0.02  -0.00   0.02
   4   6     0.02  -0.03   0.28     0.04  -0.02   0.03     0.02  -0.01   0.00
   5   6     0.02   0.01  -0.03     0.01  -0.00  -0.01    -0.01  -0.00   0.01
   6   6    -0.00   0.00  -0.00     0.00   0.00  -0.00    -0.00   0.00  -0.00
   7   8     0.00  -0.00   0.00     0.00  -0.00   0.00    -0.00  -0.00   0.00
   8   8    -0.00   0.00  -0.00     0.00   0.00  -0.00    -0.00  -0.00   0.00
   9  17    -0.00  -0.00  -0.00    -0.00   0.00  -0.00    -0.00   0.00  -0.00
  10   1    -0.00   0.00  -0.00    -0.00   0.00  -0.00    -0.02   0.02  -0.01
  11   1    -0.00  -0.00  -0.00     0.00   0.00  -0.00    -0.04  -0.02  -0.00
  12   1    -0.00  -0.00   0.00    -0.00  -0.00   0.00     0.00  -0.00   0.00
  13   1     0.01   0.01   0.00     0.03   0.01   0.00     0.60   0.34  -0.03
  14   1     0.01  -0.01   0.01    -0.06   0.06  -0.04     0.42  -0.41   0.24
  15   1     0.01  -0.01   0.00     0.26  -0.20   0.16    -0.09   0.08  -0.05
  16   1     0.00   0.11   0.07    -0.03  -0.71  -0.45     0.00  -0.07  -0.04
  17   1     0.28  -0.15  -0.70    -0.00   0.00   0.03    -0.02   0.01   0.06
  18   1    -0.36   0.24  -0.32    -0.15   0.10  -0.15    -0.05   0.03  -0.05
  19   1    -0.04   0.01   0.01    -0.02   0.01   0.01     0.04  -0.02  -0.01
  20   1    -0.02  -0.06   0.10    -0.00  -0.01   0.02     0.01   0.02  -0.03
  21   1    -0.00  -0.00  -0.00    -0.00  -0.00  -0.00    -0.00  -0.00  -0.00
                     49                     50                     51
                        a                      a                      a 
 Frequencies --  2950.4479              2961.6814              2973.1847
 Red. masses --     1.5967                 1.9019                 1.5190
 Frc consts  --     0.0000                 0.0000                 0.0000
 IR Inten    --    47.4953                22.3985                38.6158
 Raman Activ --     0.0000                 0.0000                 0.0000
 Depolar     --     0.0000                 0.0000                 0.0000
 Atom AN      X      Y      Z        X      Y      Z        X      Y      Z
   1   7     0.00  -0.00  -0.00    -0.00   0.00  -0.00    -0.01  -0.01   0.00
   2   6    -0.03  -0.00  -0.00    -0.01  -0.00  -0.00     0.05   0.16  -0.06
   3   6    -0.00   0.05   0.03    -0.00  -0.02  -0.01     0.09  -0.01   0.08
   4   6    -0.16   0.11  -0.00     0.06  -0.04  -0.04     0.01  -0.01   0.01
   5   6     0.07   0.01  -0.07     0.16   0.05  -0.21    -0.00   0.01  -0.01
   6   6     0.00   0.00  -0.00     0.01   0.00  -0.01    -0.00  -0.00   0.00
   7   8     0.00  -0.00  -0.00    -0.00  -0.00   0.00     0.00   0.00  -0.00
   8   8    -0.00  -0.00   0.00    -0.00  -0.00  -0.00     0.00   0.00  -0.00
   9  17    -0.00   0.00  -0.00    -0.00  -0.00  -0.00    -0.00   0.00  -0.00
  10   1    -0.00   0.00  -0.00     0.01  -0.01   0.00    -0.02   0.02  -0.01
  11   1    -0.00  -0.00   0.00     0.00   0.00   0.00     0.06   0.03   0.00
  12   1    -0.00  -0.00   0.00     0.00   0.00  -0.00    -0.00   0.00   0.00
  13   1     0.07   0.04  -0.00     0.02   0.01  -0.00    -0.55  -0.28   0.01
  14   1     0.03  -0.03   0.02     0.01  -0.01   0.01     0.39  -0.32   0.20
  15   1    -0.01   0.01  -0.00     0.00  -0.01   0.00    -0.31   0.28  -0.17
  16   1    -0.01  -0.18  -0.11     0.00   0.08   0.05     0.01  -0.23  -0.13
  17   1     0.15  -0.07  -0.47    -0.09   0.05   0.28     0.00  -0.00   0.00
  18   1     0.45  -0.31   0.48    -0.11   0.08  -0.13    -0.03   0.02  -0.04
  19   1    -0.23   0.08   0.07    -0.45   0.16   0.13     0.02  -0.00  -0.01
  20   1    -0.04  -0.11   0.19    -0.14  -0.36   0.62    -0.01  -0.02   0.04
  21   1     0.00   0.00   0.00    -0.00  -0.00  -0.00     0.00  -0.00   0.00
                     52                     53                     54
                        a                      a                      a 
 Frequencies --  2976.5888              2984.7858              3068.5796
 Red. masses --     1.6136                 1.5448                 1.9800
 Frc consts  --     0.0000                 0.0000                 0.0000
 IR Inten    --    43.0830                16.2712               627.6282
 Raman Activ --     0.0000                 0.0000                 0.0000
 Depolar     --     0.0000                 0.0000                 0.0000
 Atom AN      X      Y      Z        X      Y      Z        X      Y      Z
   1   7    -0.00  -0.00   0.01     0.00  -0.00   0.00    -0.26  -0.08  -0.02
   2   6    -0.03   0.11  -0.05    -0.00   0.01  -0.01    -0.02  -0.01  -0.00
   3   6    -0.14   0.07  -0.11    -0.03   0.02  -0.02    -0.00  -0.00  -0.00
   4   6    -0.02   0.01  -0.01    -0.02   0.02  -0.01    -0.00   0.00  -0.00
   5   6     0.03  -0.02   0.01    -0.16   0.13  -0.06    -0.00  -0.00   0.00
   6   6     0.00  -0.00   0.00    -0.00   0.00  -0.00    -0.01  -0.01   0.02
   7   8    -0.00  -0.00  -0.00     0.00   0.00   0.00     0.00   0.00  -0.00
   8   8     0.00   0.00  -0.00    -0.00  -0.00   0.00     0.01   0.01  -0.01
   9  17    -0.00   0.00  -0.00     0.00   0.00   0.00     0.00  -0.00   0.00
  10   1    -0.02   0.02  -0.01    -0.00   0.00  -0.00     0.12  -0.15   0.08
  11   1     0.02   0.01   0.00    -0.01  -0.00  -0.00     0.83   0.42   0.02
  12   1     0.00   0.00  -0.00     0.00   0.00  -0.00    -0.01   0.01  -0.05
  13   1    -0.23  -0.11  -0.00    -0.02  -0.01  -0.00     0.07   0.04   0.00
  14   1     0.33  -0.28   0.17     0.03  -0.03   0.02    -0.00   0.00  -0.00
  15   1     0.51  -0.46   0.28     0.11  -0.09   0.06     0.00  -0.00   0.00
  16   1    -0.01   0.23   0.12    -0.00   0.03   0.01     0.00   0.01   0.00
  17   1    -0.00   0.00  -0.00    -0.00  -0.00  -0.01     0.00  -0.00  -0.00
  18   1     0.05  -0.03   0.05     0.06  -0.04   0.06     0.00   0.00   0.00
  19   1    -0.12   0.03   0.04     0.70  -0.22  -0.25     0.01  -0.00  -0.00
  20   1     0.03   0.05  -0.10    -0.14  -0.26   0.48    -0.00   0.00  -0.00
  21   1     0.00   0.00   0.00    -0.00  -0.00  -0.00     0.00   0.00   0.01
                     55                     56                     57
                        a                      a                      a 
 Frequencies --  3150.8669              3254.0190              3468.9182
 Red. masses --     1.7887                 1.7046                 1.8619
 Frc consts  --     0.0000                 0.0000                 0.0000
 IR Inten    --   445.4069               110.7818               191.3459
 Raman Activ --     0.0000                 0.0000                 0.0000
 Depolar     --     0.0000                 0.0000                 0.0000
 Atom AN      X      Y      Z        X      Y      Z        X      Y      Z
   1   7    -0.11   0.19  -0.12    -0.07  -0.03   0.22     0.00   0.00   0.00
   2   6    -0.01   0.01  -0.00    -0.00   0.00   0.00    -0.00  -0.00  -0.00
   3   6    -0.00   0.00   0.00     0.00   0.00  -0.00     0.00   0.00  -0.00
   4   6    -0.00   0.00   0.00    -0.00   0.00   0.00     0.00  -0.00  -0.00
   5   6    -0.00   0.00   0.00     0.00  -0.00   0.00     0.00   0.00  -0.00
   6   6    -0.00   0.00  -0.00    -0.00  -0.00   0.00    -0.01  -0.01   0.00
   7   8    -0.00  -0.00   0.00     0.00   0.00   0.00    -0.14  -0.05  -0.19
   8   8    -0.00  -0.00   0.00     0.00   0.00  -0.00     0.00   0.00  -0.00
   9  17     0.00  -0.00   0.00    -0.00   0.00  -0.00    -0.00   0.00  -0.00
  10   1     0.63  -0.60   0.35     0.06  -0.07   0.06    -0.00   0.00  -0.00
  11   1    -0.20  -0.08  -0.02    -0.08  -0.04   0.02    -0.01  -0.00  -0.00
  12   1    -0.04  -0.01   0.09     0.27   0.24  -0.89     0.00   0.00  -0.00
  13   1    -0.02  -0.01  -0.00    -0.00  -0.00  -0.00     0.00  -0.00  -0.00
  14   1     0.03  -0.03   0.01     0.00  -0.00   0.00    -0.00  -0.00  -0.00
  15   1     0.00  -0.00   0.00    -0.00   0.00  -0.00     0.00  -0.00   0.00
  16   1     0.00  -0.01  -0.01    -0.00  -0.00  -0.00    -0.00  -0.00  -0.00
  17   1     0.00  -0.00  -0.00     0.00  -0.00  -0.00    -0.00   0.00   0.00
  18   1     0.00  -0.00   0.00     0.00  -0.00   0.00    -0.00   0.00  -0.00
  19   1     0.00  -0.00   0.00    -0.00   0.00   0.00     0.00  -0.00  -0.00
  20   1     0.00   0.00  -0.01     0.00   0.00  -0.00    -0.00  -0.00   0.01
  21   1    -0.00   0.00  -0.00    -0.00  -0.00  -0.00     0.59   0.20   0.75
