      -----------------------------------------------------------      
     |                   =====================                   |     
     |                           x T B                           |     
     |                   =====================                   |     
     |                         S. Grimme                         |     
     |          Mulliken Center for Theoretical Chemistry        |     
     |                    University of Bonn                     |     
      -----------------------------------------------------------      

   * xtb version 6.5.1 (fef0646) compiled by 'conda@b96dff2e9fd6' on 2023-01-04

   xtb is free software: you can redistribute it and/or modify it under
   the terms of the GNU Lesser General Public License as published by
   the Free Software Foundation, either version 3 of the License, or
   (at your option) any later version.
   
   xtb is distributed in the hope that it will be useful,
   but WITHOUT ANY WARRANTY; without even the implied warranty of
   MERCHANTABILITY or FITNESS FOR A PARTICULAR PURPOSE.  See the
   GNU Lesser General Public License for more details.
   
   Cite this work as:
   * C. Bannwarth, E. Caldeweyher, S. Ehlert, A. Hansen, P. Pracht,
     J. Seibert, S. Spicher, S. Grimme, WIREs Comput. Mol. Sci., 2020, 11,
     e01493. DOI: 10.1002/wcms.1493
   
   for GFN2-xTB:
   * C. Bannwarth, S. Ehlert and S. Grimme., J. Chem. Theory Comput., 2019,
     15, 1652-1671. DOI: 10.1021/acs.jctc.8b01176
   for GFN1-xTB:
   * S. Grimme, C. Bannwarth, P. Shushkov, J. Chem. Theory Comput., 2017,
     13, 1989-2009. DOI: 10.1021/acs.jctc.7b00118
   for GFN0-xTB:
   * P. Pracht, E. Caldeweyher, S. Ehlert, S. Grimme, ChemRxiv, 2019, preprint.
     DOI: 10.26434/chemrxiv.8326202.v1
   for GFN-FF:
   * S. Spicher and S. Grimme, Angew. Chem. Int. Ed., 2020, 59, 15665-15673.
     DOI: 10.1002/anie.202004239
   
   for ALPB and GBSA implicit solvation:
   * S. Ehlert, M. Stahn, S. Spicher, S. Grimme, J. Chem. Theory Comput.,
     2021, 17, 4250-4261. DOI: 10.1021/acs.jctc.1c00471
   
   for DFT-D4:
   * E. Caldeweyher, C. Bannwarth and S. Grimme, J. Chem. Phys., 2017,
     147, 034112. DOI: 10.1063/1.4993215
   * E. Caldeweyher, S. Ehlert, A. Hansen, H. Neugebauer, S. Spicher,
     C. Bannwarth and S. Grimme, J. Chem. Phys., 2019, 150, 154122.
     DOI: 10.1063/1.5090222
   * E. Caldeweyher, J.-M. Mewes, S. Ehlert and S. Grimme, Phys. Chem. Chem. Phys.
     2020, 22, 8499-8512. DOI: 10.1039/D0CP00502A
   
   for sTDA-xTB:
   * S. Grimme and C. Bannwarth, J. Chem. Phys., 2016, 145, 054103.
     DOI: 10.1063/1.4959605
   
   in the mass-spec context:
   * V. Asgeirsson, C. Bauer and S. Grimme, Chem. Sci., 2017, 8, 4879.
     DOI: 10.1039/c7sc00601b
   * J. Koopman and S. Grimme, ACS Omega 2019, 4, 12, 15120-15133.
     DOI: 10.1021/acsomega.9b02011
   
   for metadynamics refer to:
   * S. Grimme, J. Chem. Theory Comput., 2019, 155, 2847-2862
     DOI: 10.1021/acs.jctc.9b00143
   
   for SPH calculations refer to:
   * S. Spicher and S. Grimme, J. Chem. Theory Comput., 2021, 17, 1701-1714
     DOI: 10.1021/acs.jctc.0c01306
   
   with help from (in alphabetical order)
   P. Atkinson, C. Bannwarth, F. Bohle, G. Brandenburg, E. Caldeweyher
   M. Checinski, S. Dohm, S. Ehlert, S. Ehrlich, I. Gerasimov, C. Hölzer
   A. Katbashev, J. Koopman, C. Lavigne, S. Lehtola, F. März, M. Müller,
   F. Musil, H. Neugebauer, J. Pisarek, C. Plett, P. Pracht, F. Pultar,
   J. Seibert, P. Shushkov, S. Spicher, M. Stahn, M. Steiner, T. Strunk,
   J. Stückrath, T. Rose, and J. Unsleber
   
 * started run on 2023/01/23 at 19:54:26.792     

           -------------------------------------------------
          |                Calculation Setup                |
           -------------------------------------------------

          program call               : xtb init.xyz --opt -c 1 -u 0 -P 16 --input xtb.inp
          hostname                   : gpg-woodward
          coordinate file            : init.xyz
          omp threads                :                    16

   ID    Z sym.   atoms
    1    7 N      1
    2    6 C      2-5
    3    8 O      6, 7
    4    1 H      8-17

           -------------------------------------------------
          |                 G F N 2 - x T B                 |
           -------------------------------------------------

        Reference                      10.1021/acs.jctc.8b01176
      * Hamiltonian:
        H0-scaling (s, p, d)           1.850000    2.230000    2.230000
        zeta-weighting                 0.500000
      * Dispersion:
        s8                             2.700000
        a1                             0.520000
        a2                             5.000000
        s9                             5.000000
      * Repulsion:
        kExp                           1.500000    1.000000
        rExp                           1.000000
      * Coulomb:
        alpha                          2.000000
        third order                    shell-resolved
        anisotropic                    true
        a3                             3.000000
        a5                             4.000000
        cn-shift                       1.200000
        cn-exp                         4.000000
        max-rad                        5.000000


          ...................................................
          :                      SETUP                      :
          :.................................................:
          :  # basis functions                  38          :
          :  # atomic orbitals                  38          :
          :  # shells                           24          :
          :  # electrons                        42          :
          :  max. iterations                   250          :
          :  Hamiltonian                  GFN2-xTB          :
          :  restarted?                      false          :
          :  GBSA solvation                  false          :
          :  PC potential                    false          :
          :  electronic temp.          300.0000000     K    :
          :  accuracy                    1.0000000          :
          :  -> integral cutoff          0.2500000E+02      :
          :  -> integral neglect         0.1000000E-07      :
          :  -> SCF convergence          0.1000000E-05 Eh   :
          :  -> wf. convergence          0.1000000E-03 e    :
          :  Broyden damping             0.4000000          :
          ...................................................

 iter      E             dE          RMSdq      gap      omega  full diag
   1    -24.4042241 -0.244042E+02  0.461E+00    5.67       0.0  T
   2    -24.5225699 -0.118346E+00  0.237E+00    4.72       1.0  T
   3    -24.5270809 -0.451100E-02  0.140E+00    5.08       1.0  T
   4    -24.5273793 -0.298357E-03  0.426E-01    4.76       1.0  T
   5    -24.5288652 -0.148595E-02  0.122E-01    4.93       1.0  T
   6    -24.5288802 -0.149845E-04  0.395E-02    4.92       1.0  T
   7    -24.5288826 -0.232186E-05  0.107E-02    4.92       2.3  T
   8    -24.5288827 -0.141582E-06  0.434E-03    4.92       5.6  T
   9    -24.5288827 -0.479054E-07  0.171E-03    4.92      14.2  T
  10    -24.5288827 -0.441970E-08  0.513E-04    4.92      47.3  T
  11    -24.5288827 -0.104132E-08  0.147E-04    4.92     165.3  T

   *** convergence criteria satisfied after 11 iterations ***

         #    Occupation            Energy/Eh            Energy/eV
      -------------------------------------------------------------
         1        2.0000           -0.9096819             -24.7537
       ...           ...                  ...                  ...
        15        2.0000           -0.6551527             -17.8276
        16        2.0000           -0.6449490             -17.5500
        17        2.0000           -0.6267611             -17.0550
        18        2.0000           -0.6155244             -16.7493
        19        2.0000           -0.6043030             -16.4439
        20        2.0000           -0.5806618             -15.8006
        21        2.0000           -0.5341347             -14.5345 (HOMO)
        22                         -0.3532093              -9.6113 (LUMO)
        23                         -0.2741163              -7.4591
        24                         -0.1564632              -4.2576
        25                         -0.1234697              -3.3598
        26                         -0.1194251              -3.2497
       ...                                ...                  ...
        38                          0.4644127              12.6373
      -------------------------------------------------------------
                  HL-Gap            0.1809254 Eh            4.9232 eV
             Fermi-level           -0.4436720 Eh          -12.0729 eV

 SCC (total)                   0 d,  0 h,  0 min,  0.040 sec
 SCC setup                      ...        0 min,  0.000 sec (  1.113%)
 Dispersion                     ...        0 min,  0.000 sec (  0.816%)
 classical contributions        ...        0 min,  0.000 sec (  0.457%)
 integral evaluation            ...        0 min,  0.001 sec (  3.327%)
 iterations                     ...        0 min,  0.034 sec ( 84.408%)
 molecular gradient             ...        0 min,  0.004 sec (  9.123%)
 printout                       ...        0 min,  0.000 sec (  0.417%)

         :::::::::::::::::::::::::::::::::::::::::::::::::::::
         ::                     SUMMARY                     ::
         :::::::::::::::::::::::::::::::::::::::::::::::::::::
         :: total energy             -24.271799212877 Eh    ::
         :: gradient norm              0.061508745654 Eh/a0 ::
         :: HOMO-LUMO gap              4.923231505458 eV    ::
         ::.................................................::
         :: SCC energy               -24.528882748948 Eh    ::
         :: -> isotropic ES            0.162074081861 Eh    ::
         :: -> anisotropic ES         -0.007786073743 Eh    ::
         :: -> anisotropic XC          0.008138046036 Eh    ::
         :: -> dispersion             -0.008148176995 Eh    ::
         :: repulsion energy           0.257088243783 Eh    ::
         :: add. restraining           0.000000000000 Eh    ::
         :: total charge               1.000000000000 e     ::
         :::::::::::::::::::::::::::::::::::::::::::::::::::::

      ----------------------------------------------------------- 
     |                   =====================                   |
     |                        A N C O P T                        |
     |                   =====================                   |
     |               Approximate Normal Coordinate               |
     |                Rational Function Optimizer                |
      ----------------------------------------------------------- 

          ...................................................
          :                      SETUP                      :
          :.................................................:
          :   optimization level            normal          :
          :   max. optcycles                   200          :
          :   ANC micro-cycles                  20          :
          :   degrees of freedom                45          :
          :.................................................:
          :   RF solver                   davidson          :
          :   write xtbopt.log                true          :
          :   linear?                        false          :
          :   energy convergence         0.5000000E-05 Eh   :
          :   grad. convergence          0.1000000E-02 Eh/α :
          :   maximium RF displ.         1.0000000          :
          :   Hlow (freq-cutoff)         0.1000000E-01      :
          :   Hmax (freq-cutoff)         5.0000000          :
          :   S6 in model hess.         20.0000000          :
          ...................................................

generating ANC from model Hessian ...
Using Lindh-Hessian (1995)
 Shifting diagonal of input Hessian by    7.3660086219002694E-003
 Lowest  eigenvalues of input Hessian
    0.000000    0.000000    0.000000    0.000000    0.000000    0.000000
    0.010000    0.011103    0.011297    0.016112    0.022206    0.023263
    0.025305    0.043839    0.050373    0.050668    0.059376    0.062598
 Highest eigenvalues
    1.320179    1.393803    1.396522    1.453162    1.714922    2.259393


........................................................................
.............................. CYCLE    1 ..............................
........................................................................
   1    -24.5288827 -0.245289E+02  0.591E-05    4.92       0.0  T
   2    -24.5288827 -0.126086E-10  0.335E-05    4.92     725.0  T
   3    -24.5288827 -0.182965E-11  0.210E-05    4.92    1154.7  T
     SCC iter.                  ...        0 min,  0.009 sec
     gradient                   ...        0 min,  0.003 sec
 * total energy  :   -24.2717992 Eh     change       -0.8934364E-10 Eh
   gradient norm :     0.0615118 Eh/α   predicted     0.0000000E+00 (-100.00%)
   displ. norm   :     0.1740140 α      lambda       -0.4445623E-02
   maximum displ.:     0.0917240 α      in ANC's #2, #15, #7, ...

........................................................................
.............................. CYCLE    2 ..............................
........................................................................
   1    -24.5410388 -0.245410E+02  0.155E-01    5.18       0.0  T
   2    -24.5410992 -0.604382E-04  0.927E-02    5.15       1.0  T
   3    -24.5411007 -0.154528E-05  0.403E-02    5.17       1.0  T
   4    -24.5411040 -0.325664E-05  0.600E-03    5.16       4.0  T
   5    -24.5411042 -0.212344E-06  0.346E-03    5.16       7.0  T
   6    -24.5411042 -0.323454E-07  0.111E-03    5.16      21.8  T
   7    -24.5411042 -0.163388E-08  0.528E-04    5.16      46.0  T
   8    -24.5411042 -0.501643E-09  0.121E-04    5.16     199.7  T
     SCC iter.                  ...        0 min,  0.019 sec
     gradient                   ...        0 min,  0.004 sec
 * total energy  :   -24.2745661 Eh     change       -0.2766915E-02 Eh
   gradient norm :     0.0149894 Eh/α   predicted    -0.2290121E-02 ( -17.23%)
   displ. norm   :     0.1496865 α      lambda       -0.6541314E-03
   maximum displ.:     0.1230640 α      in ANC's #2, #7, #29, ...

........................................................................
.............................. CYCLE    3 ..............................
........................................................................
   1    -24.5437098 -0.245437E+02  0.571E-02    5.22       0.0  T
   2    -24.5437186 -0.882479E-05  0.335E-02    5.21       1.0  T
   3    -24.5437189 -0.322139E-06  0.144E-02    5.21       1.7  T
   4    -24.5437192 -0.236684E-06  0.286E-03    5.21       8.5  T
   5    -24.5437192 -0.394454E-07  0.137E-03    5.21      17.6  T
   6    -24.5437192 -0.393133E-08  0.452E-04    5.21      53.7  T
   7    -24.5437192 -0.379345E-09  0.172E-04    5.21     141.0  T
     SCC iter.                  ...        0 min,  0.016 sec
     gradient                   ...        0 min,  0.003 sec
 * total energy  :   -24.2749735 Eh     change       -0.4073267E-03 Eh
   gradient norm :     0.0069419 Eh/α   predicted    -0.3343946E-03 ( -17.91%)
   displ. norm   :     0.1188533 α      lambda       -0.1576638E-03
   maximum displ.:     0.1152581 α      in ANC's #2, #7, #19, ...

........................................................................
.............................. CYCLE    4 ..............................
........................................................................
   1    -24.5435741 -0.245436E+02  0.369E-02    5.20       0.0  T
   2    -24.5435795 -0.536223E-05  0.193E-02    5.19       1.3  T
   3    -24.5435796 -0.126753E-06  0.936E-03    5.19       2.6  T
   4    -24.5435796 -0.304425E-07  0.217E-03    5.19      11.2  T
   5    -24.5435796 -0.312504E-07  0.973E-04    5.19      24.9  T
   6    -24.5435796 -0.854072E-09  0.241E-04    5.19     100.6  T
     SCC iter.                  ...        0 min,  0.011 sec
     gradient                   ...        0 min,  0.002 sec
 * total energy  :   -24.2750841 Eh     change       -0.1106024E-03 Eh
   gradient norm :     0.0034589 Eh/α   predicted    -0.7994532E-04 ( -27.72%)
   displ. norm   :     0.0698680 α      lambda       -0.5213758E-04
   maximum displ.:     0.0690455 α      in ANC's #2, #6, #15, ...

........................................................................
.............................. CYCLE    5 ..............................
........................................................................
   1    -24.5434376 -0.245434E+02  0.248E-02    5.19       0.0  T
   2    -24.5434401 -0.251808E-05  0.127E-02    5.18       1.9  T
   3    -24.5434402 -0.771119E-07  0.648E-03    5.19       3.7  T
   4    -24.5434402 -0.277672E-07  0.170E-03    5.18      14.3  T
   5    -24.5434402 -0.188132E-07  0.514E-04    5.18      47.2  T
   6    -24.5434402 -0.211259E-09  0.211E-04    5.18     114.9  T
     SCC iter.                  ...        0 min,  0.004 sec
     gradient                   ...        0 min,  0.001 sec
 * total energy  :   -24.2751241 Eh     change       -0.4006676E-04 Eh
   gradient norm :     0.0016091 Eh/α   predicted    -0.2619645E-04 ( -34.62%)
   displ. norm   :     0.0745274 α      lambda       -0.2440245E-04
   maximum displ.:     0.0719801 α      in ANC's #2, #6, #7, ...

........................................................................
.............................. CYCLE    6 ..............................
........................................................................
   1    -24.5434835 -0.245435E+02  0.246E-02    5.19       0.0  T
   2    -24.5434856 -0.201762E-05  0.134E-02    5.18       1.8  T
   3    -24.5434857 -0.107461E-06  0.671E-03    5.18       3.6  T
   4    -24.5434857 -0.606354E-07  0.146E-03    5.18      16.6  T
   5    -24.5434857 -0.119884E-07  0.437E-04    5.18      55.5  T
   6    -24.5434857 -0.169699E-09  0.187E-04    5.18     129.4  T
     SCC iter.                  ...        0 min,  0.004 sec
     gradient                   ...        0 min,  0.002 sec
 * total energy  :   -24.2751479 Eh     change       -0.2382548E-04 Eh
   gradient norm :     0.0016123 Eh/α   predicted    -0.1222929E-04 ( -48.67%)
   displ. norm   :     0.0321620 α      lambda       -0.5726754E-05
   maximum displ.:     0.0318141 α      in ANC's #2, #6, #7, ...

........................................................................
.............................. CYCLE    7 ..............................
........................................................................
   1    -24.5435248 -0.245435E+02  0.868E-03    5.19       0.0  T
   2    -24.5435248 -0.433447E-07  0.509E-03    5.19       4.8  T
   3    -24.5435248  0.129315E-08  0.116E-03    5.19      21.0  T
   4    -24.5435248 -0.986589E-08  0.329E-04    5.19      73.7  T
   5    -24.5435248 -0.220961E-09  0.160E-04    5.19     152.1  T
     SCC iter.                  ...        0 min,  0.003 sec
     gradient                   ...        0 min,  0.002 sec
 * total energy  :   -24.2751545 Eh     change       -0.6544444E-05 Eh
   gradient norm :     0.0008375 Eh/α   predicted    -0.2865795E-05 ( -56.21%)
   displ. norm   :     0.0217153 α      lambda       -0.2472647E-05
   maximum displ.:     0.0214205 α      in ANC's #2, #30, #8, ...

........................................................................
.............................. CYCLE    8 ..............................
........................................................................
   1    -24.5435635 -0.245436E+02  0.619E-03    5.19       0.0  T
   2    -24.5435636 -0.426599E-07  0.365E-03    5.19       6.7  T
   3    -24.5435636 -0.273038E-08  0.922E-04    5.19      26.3  T
   4    -24.5435636 -0.221621E-08  0.264E-04    5.19      92.0  T
     SCC iter.                  ...        0 min,  0.003 sec
     gradient                   ...        0 min,  0.002 sec
 * total energy  :   -24.2751568 Eh     change       -0.2332155E-05 Eh
   gradient norm :     0.0003045 Eh/α   predicted    -0.1237094E-05 ( -46.95%)
   displ. norm   :     0.0138633 α      lambda       -0.1063256E-05
   maximum displ.:     0.0132682 α      in ANC's #2, #4, #22, ...

   *** GEOMETRY OPTIMIZATION CONVERGED AFTER 8 ITERATIONS ***

------------------------------------------------------------------------
 total energy gain   :        -0.0033576 Eh       -2.1069 kcal/mol
 total RMSD          :         0.1388233 a0        0.0735 Å
 total power (kW/mol):        -1.1019264 (step)  -73.0676 (real)
------------------------------------------------------------------------

 ANCopt (total)                0 d,  0 h,  0 min,  0.121 sec
 optimizer setup                ...        0 min,  0.000 sec (  0.084%)
 model hessian                  ...        0 min,  0.016 sec ( 13.642%)
 ANC generation                 ...        0 min,  0.002 sec (  1.421%)
 coordinate transformation      ...        0 min,  0.000 sec (  0.092%)
 single point calculation       ...        0 min,  0.098 sec ( 81.615%)
 optimization log               ...        0 min,  0.001 sec (  0.612%)
 hessian update                 ...        0 min,  0.001 sec (  0.925%)
 rational function              ...        0 min,  0.001 sec (  1.030%)

================
 final structure:
================
17
 xtb: 6.5.1 (fef0646)
N            1.01658631472487        0.07260907307955       -0.05831167433689
C            2.51214022519209        0.06052974131748       -0.01648444541479
C            3.05866716947350        0.39845516426005       -1.39474213639717
C            4.58652946213404        0.40792975691627       -1.43754731627869
C            5.02866881847909        0.75799844763737       -2.86688019960540
O            6.33939644711002        0.80560223393980       -3.06930113353952
O            4.23786242502043        0.97065956677330       -3.73608183216068
H            0.60674539841888       -0.15183520778260        0.85725197087578
H            0.68358417919429       -0.61324780826074       -0.75008258580093
H            0.68553786649958        1.00170252669643       -0.35331111559869
H            2.84168897759780       -0.93075563320141        0.29911650503241
H            2.84375282760872        0.79198986139884        0.72233476310599
H            2.71017284699976        1.38306335862603       -1.71229345059957
H            2.70894745176447       -0.32668952005785       -2.13203968955608
H            4.99071040213189       -0.57082978593435       -1.17053482973512
H            4.99178752501682        1.15207812811239       -0.74864154817014
H            6.88454166263370        0.61564009647940       -2.29416128182053

 Bond Distances (Angstroems)
 ---------------------------
N1-C2=1.4962         N1-H8=1.0279         N1-H9=1.0295         N1-H10=1.0295        C2-N1=1.4962         C2-C3=1.5207         
C2-H11=1.0913        C2-H12=1.0913        C3-C2=1.5207         C3-C4=1.5285         C3-H13=1.0917        C3-H14=1.0917        
C4-C3=1.5285         C4-C5=1.5366         C4-H15=1.0921        C4-H16=1.0921        C5-C4=1.5366         C5-O6=1.3271         
C5-O7=1.1942         O6-C5=1.3271         O6-H17=0.9665        O7-C5=1.1942         H8-N1=1.0279         H9-N1=1.0295         
H10-N1=1.0295        H11-C2=1.0913        H12-C2=1.0913        H13-C3=1.0917        H14-C3=1.0917        H15-C4=1.0921        
H16-C4=1.0921        H17-O6=0.9665        
 C  H  Rav=1.0917 sigma=0.0003  Rmin=1.0913  Rmax=1.0921     6
 C  C  Rav=1.5286 sigma=0.0065  Rmin=1.5207  Rmax=1.5366     3
 N  H  Rav=1.0290 sigma=0.0007  Rmin=1.0279  Rmax=1.0295     3
 N  C  Rav=1.4962 sigma=0.0000  Rmin=1.4962  Rmax=1.4962     1
 O  H  Rav=0.9665 sigma=0.0000  Rmin=0.9665  Rmax=0.9665     1
 O  C  Rav=1.2607 sigma=0.0665  Rmin=1.1942  Rmax=1.3271     2

 selected bond angles (degree)
 --------------------
H8-N1-C2=111.83                H9-N1-C2=109.68                H9-N1-H8=108.91                H10-N1-C2=109.68               
H10-N1-H8=108.91               H10-N1-H9=107.74               C3-C2-N1=109.40                H11-C2-N1=108.50               
H11-C2-C3=110.82               H12-C2-N1=108.50               H12-C2-C3=110.82               H12-C2-H11=108.74              
C4-C3-C2=112.71                H13-C3-C2=110.45               H13-C3-C4=107.78               H14-C3-C2=110.45               
H14-C3-C4=107.78               H14-C3-H13=107.48              C5-C4-C3=108.37                H15-C4-C3=110.95               
H15-C4-C5=108.97               H16-C4-C3=110.95               H16-C4-C5=108.95               H16-C4-H15=108.61              
O6-C5-C4=115.74                O7-C5-C4=121.81                O7-C5-O6=122.45                H17-O6-C5=115.32               

 selected dihedral angles (degree)
 ---------------------------------
C3-C2-N1-H8=180.00            C3-C2-N1-H9= 59.07            C3-C2-N1-H10=300.93           H11-C2-N1-H8= 58.99           
H11-C2-N1-H9=298.06           H11-C2-N1-H10=179.92          H12-C2-N1-H8=301.01           H12-C2-N1-H9=180.07           
H12-C2-N1-H10= 61.94          C4-C3-C2-N1=179.97            C4-C3-C2-H11=299.56           C4-C3-C2-H12= 60.38           
H13-C3-C2-N1= 59.35           H13-C3-C2-H11=178.94          H13-C3-C2-H12=299.76          H14-C3-C2-N1=300.59           
H14-C3-C2-H11= 60.18          H14-C3-C2-H12=181.00          C5-C4-C3-C2=179.98            C5-C4-C3-H13=302.11           
C5-C4-C3-H14= 57.84           H15-C4-C3-C2= 60.38           H15-C4-C3-H13=182.51          H15-C4-C3-H14=298.24          
H16-C4-C3-C2=299.55           H16-C4-C3-H13= 61.69          H16-C4-C3-H14=177.42          O6-C5-C4-C3=180.05            
O6-C5-C4-H15=300.89           O6-C5-C4-H16= 59.24           O7-C5-C4-C3=359.95            O7-C5-C4-H15=120.78           
O7-C5-C4-H16=239.13           H17-O6-C5-C4=359.93           H17-O6-C5-O7=180.03           
           -------------------------------------------------
          |                Final Singlepoint                |
           -------------------------------------------------

          ...................................................
          :                      SETUP                      :
          :.................................................:
          :  # basis functions                  38          :
          :  # atomic orbitals                  38          :
          :  # shells                           24          :
          :  # electrons                        42          :
          :  max. iterations                   250          :
          :  Hamiltonian                  GFN2-xTB          :
          :  restarted?                      false          :
          :  GBSA solvation                  false          :
          :  PC potential                    false          :
          :  electronic temp.          300.0000000     K    :
          :  accuracy                    1.0000000          :
          :  -> integral cutoff          0.2500000E+02      :
          :  -> integral neglect         0.1000000E-07      :
          :  -> SCF convergence          0.1000000E-05 Eh   :
          :  -> wf. convergence          0.1000000E-03 e    :
          :  Broyden damping             0.4000000          :
          ...................................................

 iter      E             dE          RMSdq      gap      omega  full diag
   1    -24.5435636 -0.245436E+02  0.133E-04    5.19       0.0  T
   2    -24.5435636 -0.272671E-10  0.789E-05    5.19     307.4  T
   3    -24.5435636 -0.428813E-11  0.408E-05    5.19     594.0  T

   *** convergence criteria satisfied after 3 iterations ***

         #    Occupation            Energy/Eh            Energy/eV
      -------------------------------------------------------------
         1        2.0000           -0.9055055             -24.6401
       ...           ...                  ...                  ...
        15        2.0000           -0.6560065             -17.8508
        16        2.0000           -0.6457500             -17.5718
        17        2.0000           -0.6272794             -17.0691
        18        2.0000           -0.6160498             -16.7636
        19        2.0000           -0.6027749             -16.4023
        20        2.0000           -0.5857543             -15.9392
        21        2.0000           -0.5356686             -14.5763 (HOMO)
        22                         -0.3450537              -9.3894 (LUMO)
        23                         -0.2751681              -7.4877
        24                         -0.1707846              -4.6473
        25                         -0.1175849              -3.1996
        26                         -0.1127373              -3.0677
       ...                                ...                  ...
        38                          0.5391207              14.6702
      -------------------------------------------------------------
                  HL-Gap            0.1906149 Eh            5.1869 eV
             Fermi-level           -0.4403611 Eh          -11.9828 eV

 SCC (total)                   0 d,  0 h,  0 min,  0.004 sec
 SCC setup                      ...        0 min,  0.000 sec (  2.463%)
 Dispersion                     ...        0 min,  0.000 sec (  2.071%)
 classical contributions        ...        0 min,  0.000 sec (  0.733%)
 integral evaluation            ...        0 min,  0.000 sec ( 10.180%)
 iterations                     ...        0 min,  0.002 sec ( 44.322%)
 molecular gradient             ...        0 min,  0.002 sec ( 37.136%)
 printout                       ...        0 min,  0.000 sec (  1.911%)

         :::::::::::::::::::::::::::::::::::::::::::::::::::::
         ::                     SUMMARY                     ::
         :::::::::::::::::::::::::::::::::::::::::::::::::::::
         :: total energy             -24.275156825979 Eh    ::
         :: gradient norm              0.000304979274 Eh/a0 ::
         :: HOMO-LUMO gap              5.186894286978 eV    ::
         ::.................................................::
         :: SCC energy               -24.543563582048 Eh    ::
         :: -> isotropic ES            0.159479361430 Eh    ::
         :: -> anisotropic ES         -0.008743951077 Eh    ::
         :: -> anisotropic XC          0.007791991551 Eh    ::
         :: -> dispersion             -0.008188361020 Eh    ::
         :: repulsion energy           0.268411436815 Eh    ::
         :: add. restraining           0.000000000000 Eh    ::
         :: total charge               1.000000000000 e     ::
         :::::::::::::::::::::::::::::::::::::::::::::::::::::

           -------------------------------------------------
          |                Property Printout                |
           -------------------------------------------------

    * Orbital Energies and Occupations

         #    Occupation            Energy/Eh            Energy/eV
      -------------------------------------------------------------
         1        2.0000           -0.9055055             -24.6401
       ...           ...                  ...                  ...
         9        2.0000           -0.7561713             -20.5765
        10        2.0000           -0.7396732             -20.1275
        11        2.0000           -0.7073862             -19.2490
        12        2.0000           -0.7019784             -19.1018
        13        2.0000           -0.6916211             -18.8200
        14        2.0000           -0.6778703             -18.4458
        15        2.0000           -0.6560065             -17.8508
        16        2.0000           -0.6457500             -17.5718
        17        2.0000           -0.6272794             -17.0691
        18        2.0000           -0.6160498             -16.7636
        19        2.0000           -0.6027749             -16.4023
        20        2.0000           -0.5857543             -15.9392
        21        2.0000           -0.5356686             -14.5763 (HOMO)
        22                         -0.3450537              -9.3894 (LUMO)
        23                         -0.2751681              -7.4877
        24                         -0.1707846              -4.6473
        25                         -0.1175849              -3.1996
        26                         -0.1127373              -3.0677
        27                         -0.0811980              -2.2095
        28                         -0.0651259              -1.7722
        29                         -0.0316614              -0.8616
        30                         -0.0213084              -0.5798
        31                         -0.0161096              -0.4384
        32                          0.0038041               0.1035
       ...                                ...                  ...
        38                          0.5391207              14.6702
      -------------------------------------------------------------
                  HL-Gap            0.1906149 Eh            5.1869 eV
             Fermi-level           -0.4403611 Eh          -11.9828 eV

     #   Z          covCN         q      C6AA      α(0)
     1   7 N        3.483    -0.128    23.765     7.240
     2   6 C        3.730    -0.034    21.282     6.585
     3   6 C        3.806    -0.082    22.057     6.686
     4   6 C        3.800    -0.111    22.621     6.772
     5   6 C        2.689     0.361    20.870     7.476
     6   8 O        1.660    -0.341    19.731     5.996
     7   8 O        0.857    -0.355    20.797     6.114
     8   1 H        0.859     0.272     0.802     1.403
     9   1 H        0.859     0.277     0.788     1.390
    10   1 H        0.859     0.277     0.788     1.390
    11   1 H        0.924     0.109     1.705     2.042
    12   1 H        0.924     0.109     1.705     2.042
    13   1 H        0.924     0.084     1.941     2.179
    14   1 H        0.924     0.084     1.941     2.178
    15   1 H        0.924     0.072     2.062     2.246
    16   1 H        0.924     0.072     2.062     2.246
    17   1 H        0.805     0.334     0.628     1.245

 Mol. C6AA /au·bohr⁶  :       1947.353196
 Mol. C8AA /au·bohr⁸  :      41559.140878
 Mol. α(0) /au        :         65.230966


Wiberg/Mayer (AO) data.
largest (>0.10) Wiberg bond orders for each atom

 ---------------------------------------------------------------------------
     #   Z sym  total        # sym  WBO       # sym  WBO       # sym  WBO
 ---------------------------------------------------------------------------
     1   7 N    3.675 --     2 C    0.927     8 H    0.911    10 H    0.907
                             9 H    0.907
     2   6 C    3.889 --     3 C    1.009    11 H    0.966    12 H    0.966
                             1 N    0.927
     3   6 C    3.979 --     2 C    1.009     4 C    1.004    13 H    0.968
                            14 H    0.968
     4   6 C    3.993 --     3 C    1.004    16 H    0.961    15 H    0.961
                             5 C    0.946
     5   6 C    3.927 --     7 O    1.797     6 O    1.157     4 C    0.946
     6   8 O    2.243 --     5 C    1.157    17 H    0.866     7 O    0.172
     7   8 O    2.086 --     5 C    1.797     6 O    0.172
     8   1 H    0.925 --     1 N    0.911
     9   1 H    0.924 --     1 N    0.907
    10   1 H    0.924 --     1 N    0.907
    11   1 H    0.988 --     2 C    0.966
    12   1 H    0.988 --     2 C    0.966
    13   1 H    0.993 --     3 C    0.968
    14   1 H    0.993 --     3 C    0.968
    15   1 H    0.995 --     4 C    0.961
    16   1 H    0.995 --     4 C    0.961
    17   1 H    0.889 --     6 O    0.866
 ---------------------------------------------------------------------------

Topologies differ in total number of bonds
Writing topology from bond orders to xtbtopo.mol

molecular dipole:
                 x           y           z       tot (Debye)
 q only:        3.429      -0.089       0.813
   full:        3.339      -0.195       1.248       9.074
molecular quadrupole (traceless):
                xx          xy          yy          xz          yz          zz
 q only:       33.574      -1.466      -8.256       8.242       4.580     -25.319
  q+dip:       34.826      -2.804      -4.936      13.685       6.709     -29.890
   full:       35.616      -2.746      -5.248      13.445       6.752     -30.368

           -------------------------------------------------
          |                Geometry Summary                 |
           -------------------------------------------------

      molecular mass/u    :      104.1278642
   center of mass at/Å    :        3.8034900       0.4928780      -1.7832715
  moments of inertia/u·Å² :        0.6426882E+02   0.4800312E+03   0.5320451E+03
rotational constants/cm⁻¹ :        0.2622988E+00   0.3511779E-01   0.3168459E-01

 * 15 selected distances

     #   Z          #   Z                                           value/Å
     1   7 N        2   6 C                                       1.4961876
     2   6 C        3   6 C                                       1.5206841
     3   6 C        4   6 C                                       1.5284913 (max)
     5   6 C        6   8 O                                       1.3271200
     5   6 C        7   8 O                                       1.1941990
     1   7 N        8   1 H                                       1.0279114
     1   7 N        9   1 H                                       1.0294840
     1   7 N       10   1 H                                       1.0294817
     2   6 C       11   1 H                                       1.0912622
     2   6 C       12   1 H                                       1.0912630
     3   6 C       13   1 H                                       1.0916687
     3   6 C       14   1 H                                       1.0916715
     4   6 C       15   1 H                                       1.0920753
     4   6 C       16   1 H                                       1.0920542
     6   8 O       17   1 H                                       0.9664941 (min)

 * 6 distinct bonds (by element types)

   Z      Z             #   av. dist./Å        max./Å        min./Å
   1 H    6 C           6     1.0916658     1.0920753     1.0912622
   6 C    6 C           2     1.5245877     1.5284913     1.5206841
   1 H    7 N           3     1.0289590     1.0294840     1.0279114
   6 C    7 N           1     1.4961876     1.4961876     1.4961876
   1 H    8 O           1     0.9664941     0.9664941     0.9664941
   6 C    8 O           2     1.2606595     1.3271200     1.1941990


optimized geometry written to: xtbopt.xyz


           -------------------------------------------------
          | TOTAL ENERGY              -24.275156825979 Eh   |
          | GRADIENT NORM               0.000304979274 Eh/α |
          | HOMO-LUMO GAP               5.186894286978 eV   |
           -------------------------------------------------

------------------------------------------------------------------------
 * finished run on 2023/01/23 at 19:54:26.978     
------------------------------------------------------------------------
 total:
 * wall-time:     0 d,  0 h,  0 min,  0.186 sec
 *  cpu-time:     0 d,  0 h,  0 min, 19.192 sec
 * ratio c/w:   102.914 speedup
 SCF:
 * wall-time:     0 d,  0 h,  0 min,  0.040 sec
 *  cpu-time:     0 d,  0 h,  0 min,  5.086 sec
 * ratio c/w:   126.900 speedup
 ANC optimizer:
 * wall-time:     0 d,  0 h,  0 min,  0.126 sec
 *  cpu-time:     0 d,  0 h,  0 min, 11.632 sec
 * ratio c/w:    92.410 speedup

