 Entering Gaussian System
 *********************************************
 Gaussian 98:
 frequency output generated by the xtb code
 *********************************************
                         Standard orientation:
 --------------------------------------------------------------------
  Center     Atomic     Atomic              Coordinates (Angstroms)
  Number     Number      Type              X           Y           Z
 --------------------------------------------------------------------
    1          7             0       -1.746425   -0.816381   -0.068332
    2          6             0       -1.129966    0.421847    0.493023
    3          6             0        0.005754    0.990309   -0.371222
    4          6             0        1.417763    0.561863    0.055524
    5          6             0        1.704185   -0.925619   -0.088394
    6          1             0       -2.162687   -0.635990   -0.993351
    7          1             0       -2.499834   -1.172336    0.538831
    8          1             0       -1.060859   -1.575695   -0.181734
    9          1             0       -0.768254    0.228297    1.510402
   10          1             0       -1.927532    1.169231    0.610145
   11          1             0       -0.047300    2.088020   -0.366314
   12          1             0       -0.163681    0.706098   -1.416091
   13          1             0        1.588029    0.871244    1.094933
   14          1             0        2.158044    1.126308   -0.528870
   15          1             0        1.067794   -1.523205    0.565699
   16          1             0        2.739075   -1.165754    0.169322
   17          1             0        1.540360   -1.264750   -1.113093
 --------------------------------------------------------------------
     1 basis functions        1 primitive gaussians
     1 alpha electrons        1 beta electrons

 Harmonic frequencies (cm**-1), IR intensities (km*mol⁻¹),
 Raman scattering activities (A**4/amu), Raman depolarization ratios,
 reduced masses (AMU), force constants (mDyne/A) and normal coordinates:
                      1                      2                      3
                        a                      a                      a 
 Frequencies --    78.3238               121.5958               178.3066
 Red. masses --     8.2977                 6.1323                 2.1721
 Frc consts  --     0.0000                 0.0000                 0.0000
 IR Inten    --    22.0281                 3.7382                 0.9883
 Raman Activ --     0.0000                 0.0000                 0.0000
 Depolar     --     0.0000                 0.0000                 0.0000
 Atom AN      X      Y      Z        X      Y      Z        X      Y      Z
   1   7     0.51  -0.18   0.11     0.18  -0.01  -0.21     0.05   0.00   0.09
   2   6    -0.13   0.22  -0.11     0.17  -0.16   0.12    -0.06   0.14  -0.11
   3   6    -0.00   0.22   0.08    -0.04   0.14   0.04     0.02  -0.03  -0.11
   4   6    -0.09  -0.10   0.05     0.02   0.08  -0.25    -0.07  -0.07   0.17
   5   6    -0.34  -0.13  -0.13    -0.34  -0.04   0.31     0.04  -0.03  -0.07
   6   1     0.23  -0.18  -0.04    -0.13   0.11   0.04    -0.44   0.06   0.24
   7   1     0.10  -0.06  -0.02     0.18  -0.16   0.01     0.36  -0.28   0.29
   8   1     0.23   0.01   0.19     0.09   0.08  -0.30     0.15   0.19  -0.41
   9   1    -0.12   0.20   0.02     0.12  -0.13  -0.01    -0.02   0.09  -0.02
  10   1    -0.11   0.01  -0.19     0.04  -0.07   0.16    -0.03   0.03  -0.07
  11   1     0.04   0.07   0.10    -0.02   0.04   0.07     0.02  -0.01  -0.08
  12   1    -0.00   0.14   0.00    -0.06   0.10   0.00     0.04  -0.05  -0.02
  13   1    -0.02  -0.08   0.03     0.11   0.13  -0.12    -0.10  -0.08   0.08
  14   1     0.00  -0.04   0.04    -0.01  -0.08  -0.20     0.02   0.02   0.14
  15   1    -0.09  -0.03  -0.02    -0.05   0.11   0.25    -0.06  -0.06  -0.14
  16   1    -0.10  -0.09  -0.08    -0.08  -0.04  -0.01    -0.02  -0.02   0.08
  17   1    -0.15  -0.01  -0.04    -0.24  -0.14   0.15     0.13   0.06  -0.06
                      4                      5                      6
                        a                      a                      a 
 Frequencies --   273.7104               315.3383               362.5125
 Red. masses --     3.5451                 6.2534                 7.5087
 Frc consts  --     0.0000                 0.0000                 0.0000
 IR Inten    --     1.4687                 3.5234                11.7683
 Raman Activ --     0.0000                 0.0000                 0.0000
 Depolar     --     0.0000                 0.0000                 0.0000
 Atom AN      X      Y      Z        X      Y      Z        X      Y      Z
   1   7     0.09  -0.03   0.05     0.09   0.10  -0.08     0.33   0.29  -0.12
   2   6     0.26  -0.13   0.07    -0.24   0.13   0.15     0.06   0.10   0.30
   3   6     0.02   0.02  -0.14    -0.19   0.06   0.19    -0.22  -0.24  -0.19
   4   6    -0.03   0.10   0.01    -0.06  -0.17  -0.33    -0.29  -0.09   0.10
   5   6    -0.30   0.07  -0.01     0.32  -0.16   0.10     0.03  -0.03  -0.02
   6   1     0.10   0.00  -0.02     0.06   0.04  -0.03     0.20   0.15  -0.07
   7   1    -0.04   0.07  -0.03     0.02  -0.07  -0.08     0.03  -0.02  -0.17
   8   1    -0.03  -0.07   0.07     0.10   0.09  -0.03     0.15   0.12  -0.02
   9   1     0.16  -0.09  -0.02    -0.12   0.05   0.06     0.10  -0.03   0.04
  10   1     0.08  -0.05   0.13    -0.09   0.02  -0.01     0.02   0.02   0.18
  11   1    -0.04   0.00  -0.09     0.03   0.02   0.15    -0.06  -0.07  -0.28
  12   1     0.01  -0.05  -0.03    -0.15   0.13   0.04    -0.08  -0.28   0.01
  13   1    -0.06   0.02   0.01     0.09   0.03  -0.13    -0.17  -0.05   0.05
  14   1     0.04   0.01   0.04    -0.08  -0.08  -0.21    -0.06   0.02   0.10
  15   1    -0.43   0.02  -0.33    -0.05  -0.06  -0.13     0.12  -0.07   0.05
  16   1    -0.22  -0.11   0.42     0.04   0.04   0.33     0.05   0.07  -0.10
  17   1     0.32   0.13  -0.10     0.41  -0.11  -0.00    -0.05  -0.01   0.00
                      7                      8                      9
                        a                      a                      a 
 Frequencies --   458.6741               785.7837               805.7053
 Red. masses --     6.6216                 3.7407                 3.9628
 Frc consts  --     0.0000                 0.0000                 0.0000
 IR Inten    --     3.1001                39.7692                 5.4671
 Raman Activ --     0.0000                 0.0000                 0.0000
 Depolar     --     0.0000                 0.0000                 0.0000
 Atom AN      X      Y      Z        X      Y      Z        X      Y      Z
   1   7    -0.02  -0.02   0.09    -0.15  -0.07  -0.07     0.13   0.07  -0.04
   2   6     0.25  -0.06  -0.14    -0.22   0.14  -0.03     0.19  -0.02  -0.17
   3   6    -0.10   0.39  -0.23    -0.03   0.28  -0.03    -0.00  -0.05   0.19
   4   6    -0.35  -0.18   0.02     0.14   0.02   0.15    -0.30  -0.08   0.18
   5   6     0.15  -0.14   0.09     0.05  -0.14   0.02    -0.08   0.04   0.06
   6   1    -0.02  -0.04   0.02    -0.04  -0.34  -0.08    -0.07   0.02   0.04
   7   1    -0.01   0.10   0.08     0.04  -0.11   0.03     0.05   0.21   0.12
   8   1    -0.08  -0.08   0.05     0.21   0.17   0.20    -0.13  -0.13  -0.03
   9   1     0.24  -0.08  -0.11     0.19  -0.27  -0.15     0.01   0.04  -0.02
  10   1     0.06  -0.06   0.15    -0.01   0.02   0.40     0.03  -0.02  -0.12
  11   1     0.03   0.11   0.17    -0.03   0.08  -0.24    -0.01  -0.01  -0.03
  12   1    -0.06   0.33  -0.12     0.10  -0.14   0.03     0.09  -0.09   0.06
  13   1    -0.24  -0.11   0.05     0.20   0.10  -0.02     0.25   0.28  -0.10
  14   1    -0.00  -0.02   0.16     0.01  -0.12  -0.12    -0.22  -0.25  -0.35
  15   1     0.16  -0.12   0.06     0.03  -0.13  -0.06     0.11  -0.29  -0.14
  16   1     0.09   0.13   0.01     0.02  -0.07  -0.05     0.04   0.17  -0.08
  17   1     0.07  -0.10   0.04     0.01   0.07  -0.03     0.04   0.24  -0.07
                     10                     11                     12
                        a                      a                      a 
 Frequencies --   845.7824               886.1338               928.7110
 Red. masses --     5.5804                 3.8088                 7.0258
 Frc consts  --     0.0000                 0.0000                 0.0000
 IR Inten    --    15.9013                32.6386                32.5562
 Raman Activ --     0.0000                 0.0000                 0.0000
 Depolar     --     0.0000                 0.0000                 0.0000
 Atom AN      X      Y      Z        X      Y      Z        X      Y      Z
   1   7    -0.00   0.29   0.06    -0.09  -0.10   0.17     0.27   0.23   0.02
   2   6    -0.05  -0.10  -0.21    -0.11  -0.02   0.11    -0.14  -0.14  -0.17
   3   6     0.02  -0.46   0.00    -0.02   0.00  -0.34    -0.39  -0.01  -0.02
   4   6    -0.05  -0.05  -0.01     0.12   0.02   0.14     0.22   0.14   0.10
   5   6    -0.04   0.19   0.04     0.06  -0.05   0.13     0.21  -0.23   0.03
   6   1     0.01  -0.21  -0.04     0.18   0.32   0.02    -0.06   0.04   0.06
   7   1     0.08  -0.03   0.05    -0.15  -0.27  -0.25     0.09   0.31   0.17
   8   1     0.25   0.27   0.19     0.03   0.04  -0.13    -0.14  -0.13  -0.01
   9   1     0.08  -0.17  -0.11     0.08   0.17   0.02     0.05  -0.01  -0.07
  10   1     0.13   0.10   0.10    -0.06  -0.03  -0.00    -0.12  -0.13   0.03
  11   1     0.09  -0.12   0.39     0.03   0.00   0.15    -0.18  -0.01   0.04
  12   1    -0.02   0.26  -0.10    -0.01   0.23  -0.15    -0.09   0.03  -0.02
  13   1    -0.05   0.06  -0.02     0.01   0.26  -0.04     0.02   0.06   0.03
  14   1    -0.07   0.03  -0.04     0.07  -0.16  -0.08     0.01   0.10   0.02
  15   1    -0.04   0.05  -0.01     0.01  -0.18  -0.13    -0.11   0.07  -0.03
  16   1    -0.02  -0.01  -0.02     0.02  -0.16  -0.14    -0.00  -0.40  -0.06
  17   1    -0.05   0.12  -0.01    -0.08   0.32  -0.07    -0.11   0.06  -0.01
                     13                     14                     15
                        a                      a                      a 
 Frequencies --   979.3919              1012.2976              1040.8200
 Red. masses --     5.8162                 5.2154                 6.9794
 Frc consts  --     0.0000                 0.0000                 0.0000
 IR Inten    --    13.9462                 6.0576                10.4860
 Raman Activ --     0.0000                 0.0000                 0.0000
 Depolar     --     0.0000                 0.0000                 0.0000
 Atom AN      X      Y      Z        X      Y      Z        X      Y      Z
   1   7    -0.04  -0.22  -0.30    -0.05   0.25   0.01     0.22   0.08   0.01
   2   6     0.17   0.34   0.27     0.05  -0.42   0.11    -0.44  -0.11   0.09
   3   6    -0.02  -0.10  -0.04     0.05   0.19  -0.09     0.15   0.00  -0.16
   4   6     0.01  -0.07  -0.07     0.06   0.15  -0.09     0.20  -0.24  -0.08
   5   6     0.08   0.07   0.13    -0.06  -0.16   0.07    -0.18   0.28   0.05
   6   1    -0.16  -0.28  -0.05    -0.04  -0.15  -0.03    -0.05   0.06   0.06
   7   1     0.07   0.13   0.13     0.07   0.01   0.07     0.05   0.23   0.12
   8   1    -0.09  -0.15   0.03     0.14   0.18   0.14    -0.15  -0.15  -0.03
   9   1    -0.08  -0.02   0.10    -0.38  -0.10   0.17    -0.02  -0.12  -0.03
  10   1     0.03   0.09   0.01     0.10   0.04  -0.28    -0.20  -0.14   0.19
  11   1     0.20  -0.01   0.03    -0.14   0.04  -0.07     0.18   0.00  -0.01
  12   1    -0.36   0.06   0.02    -0.14  -0.04   0.02    -0.01   0.02  -0.04
  13   1    -0.22   0.13  -0.03    -0.17   0.11  -0.01    -0.02  -0.09  -0.00
  14   1     0.07  -0.04   0.05     0.22  -0.10   0.09     0.22  -0.19   0.06
  15   1    -0.06  -0.02  -0.08     0.10  -0.26  -0.06     0.07  -0.06  -0.00
  16   1     0.00  -0.19  -0.10     0.03   0.07  -0.06     0.00   0.29   0.01
  17   1    -0.11   0.27  -0.03     0.04   0.09  -0.03     0.05   0.09  -0.01
                     16                     17                     18
                        a                      a                      a 
 Frequencies --  1102.0695              1130.8806              1151.4968
 Red. masses --     6.4288                 8.1516                 6.8709
 Frc consts  --     0.0000                 0.0000                 0.0000
 IR Inten    --    10.0380                 7.0301                 7.3476
 Raman Activ --     0.0000                 0.0000                 0.0000
 Depolar     --     0.0000                 0.0000                 0.0000
 Atom AN      X      Y      Z        X      Y      Z        X      Y      Z
   1   7     0.04   0.08   0.08    -0.09   0.04   0.07     0.04  -0.05   0.17
   2   6    -0.14  -0.25   0.03     0.22  -0.06  -0.22    -0.08   0.09  -0.34
   3   6     0.29   0.23  -0.03    -0.35   0.15   0.13     0.13  -0.04   0.39
   4   6    -0.35  -0.20  -0.05     0.20  -0.44  -0.02    -0.05   0.15  -0.35
   5   6     0.27   0.13   0.03     0.04   0.35   0.10    -0.03  -0.11   0.18
   6   1     0.02   0.05   0.02     0.06   0.03  -0.02     0.09   0.18   0.04
   7   1     0.00  -0.01  -0.00    -0.03  -0.12  -0.07    -0.07  -0.07  -0.09
   8   1     0.02   0.03   0.01     0.08   0.11   0.01    -0.03  -0.03  -0.09
   9   1    -0.16  -0.13   0.04     0.04   0.06  -0.04     0.11  -0.15  -0.17
  10   1    -0.00  -0.03  -0.02     0.06  -0.01  -0.12     0.01   0.02   0.12
  11   1     0.27   0.07  -0.16    -0.10   0.03  -0.13     0.08  -0.01  -0.09
  12   1     0.10  -0.09   0.02    -0.24  -0.11   0.09    -0.09  -0.16   0.15
  13   1    -0.06   0.04  -0.05     0.11  -0.23   0.02    -0.33   0.03  -0.03
  14   1    -0.22   0.03  -0.09     0.12  -0.18   0.03     0.11   0.11   0.14
  15   1    -0.18   0.27  -0.01    -0.05   0.13  -0.00     0.04  -0.22  -0.09
  16   1    -0.02  -0.35  -0.02    -0.00  -0.01  -0.02     0.02  -0.04  -0.10
  17   1    -0.17   0.12   0.01    -0.07   0.20   0.00    -0.02   0.19  -0.03
                     19                     20                     21
                        a                      a                      a 
 Frequencies --  1218.9913              1248.2158              1268.5146
 Red. masses --     3.5460                 2.3755                 2.2627
 Frc consts  --     0.0000                 0.0000                 0.0000
 IR Inten    --     3.9584                17.0716                 0.6551
 Raman Activ --     0.0000                 0.0000                 0.0000
 Depolar     --     0.0000                 0.0000                 0.0000
 Atom AN      X      Y      Z        X      Y      Z        X      Y      Z
   1   7    -0.06   0.04  -0.14    -0.15   0.13  -0.09    -0.00   0.01   0.01
   2   6     0.00  -0.01   0.19     0.04  -0.19   0.00     0.01  -0.07   0.02
   3   6     0.05   0.00   0.04     0.10  -0.01   0.11    -0.04   0.02  -0.15
   4   6    -0.08  -0.07  -0.31     0.00   0.06   0.04     0.11   0.06  -0.04
   5   6     0.04   0.05   0.23    -0.03  -0.04  -0.07    -0.12  -0.08   0.21
   6   1    -0.06  -0.13  -0.04    -0.02  -0.10  -0.06     0.01  -0.00  -0.00
   7   1     0.05   0.04   0.06     0.04  -0.02   0.04    -0.00  -0.00  -0.00
   8   1     0.03   0.03   0.08     0.10   0.13   0.11     0.00   0.01  -0.00
   9   1     0.16   0.30   0.05     0.36   0.46  -0.03    -0.06  -0.03   0.02
  10   1    -0.11  -0.11  -0.00    -0.33  -0.40  -0.05     0.01  -0.00  -0.04
  11   1    -0.34  -0.02   0.09     0.31   0.01  -0.08     0.30   0.02  -0.07
  12   1     0.53  -0.01  -0.06    -0.25  -0.07   0.09    -0.18   0.04  -0.03
  13   1    -0.02  -0.26  -0.01    -0.09   0.15  -0.01     0.32  -0.39   0.06
  14   1     0.02   0.07   0.06    -0.00   0.02   0.01    -0.36   0.50  -0.04
  15   1    -0.03  -0.11  -0.09     0.02   0.01   0.02     0.06  -0.23  -0.06
  16   1     0.02  -0.09  -0.09    -0.01   0.03   0.02     0.02   0.06  -0.06
  17   1    -0.07   0.25  -0.02     0.02  -0.08   0.00     0.03   0.18  -0.02
                     22                     23                     24
                        a                      a                      a 
 Frequencies --  1319.9981              1354.4379              1359.6121
 Red. masses --     3.4309                 4.0915                 4.4037
 Frc consts  --     0.0000                 0.0000                 0.0000
 IR Inten    --    12.9670                 5.5209                 0.4830
 Raman Activ --     0.0000                 0.0000                 0.0000
 Depolar     --     0.0000                 0.0000                 0.0000
 Atom AN      X      Y      Z        X      Y      Z        X      Y      Z
   1   7    -0.03   0.13   0.11     0.05  -0.06  -0.07     0.00   0.03   0.03
   2   6     0.21   0.23  -0.08    -0.24  -0.09   0.01     0.03   0.05  -0.03
   3   6     0.25  -0.03  -0.08     0.43   0.03  -0.05     0.06  -0.12  -0.03
   4   6     0.01  -0.11   0.03    -0.09  -0.04   0.05    -0.34   0.39  -0.03
   5   6    -0.01  -0.00   0.01     0.03  -0.01   0.01     0.11   0.05   0.05
   6   1     0.02  -0.11  -0.02    -0.06   0.07   0.03    -0.00  -0.04  -0.00
   7   1    -0.03  -0.14  -0.09    -0.00   0.07   0.01    -0.02  -0.03  -0.04
   8   1    -0.06  -0.01  -0.05     0.02  -0.02   0.05    -0.02  -0.00  -0.02
   9   1    -0.27  -0.25   0.04     0.23   0.19  -0.07    -0.03  -0.07  -0.01
  10   1    -0.42  -0.45   0.09     0.18   0.22   0.03    -0.10  -0.11   0.00
  11   1    -0.38  -0.03   0.07    -0.50  -0.02   0.01     0.11  -0.02   0.03
  12   1    -0.16   0.01   0.01    -0.49   0.01   0.07    -0.14   0.02   0.01
  13   1    -0.02   0.02  -0.01     0.11  -0.08   0.01     0.37  -0.41   0.06
  14   1    -0.14   0.10  -0.05    -0.09   0.04  -0.02     0.32  -0.39   0.04
  15   1    -0.02   0.03   0.01    -0.03   0.03   0.00    -0.01  -0.07  -0.08
  16   1     0.00   0.03   0.00     0.00   0.00   0.01    -0.01  -0.19  -0.03
  17   1    -0.01   0.03  -0.01    -0.03   0.04  -0.00    -0.04  -0.09   0.05
                     25                     26                     27
                        a                      a                      a 
 Frequencies --  1389.1797              1432.5459              1435.5970
 Red. masses --     2.9688                 1.7044                 2.2621
 Frc consts  --     0.0000                 0.0000                 0.0000
 IR Inten    --   187.1463                71.4142                45.9321
 Raman Activ --     0.0000                 0.0000                 0.0000
 Depolar     --     0.0000                 0.0000                 0.0000
 Atom AN      X      Y      Z        X      Y      Z        X      Y      Z
   1   7     0.15   0.33   0.09     0.00   0.04  -0.20     0.17  -0.04   0.04
   2   6    -0.08  -0.07   0.04     0.03   0.03  -0.04     0.02  -0.00   0.01
   3   6    -0.02   0.02   0.01    -0.02   0.01  -0.02    -0.01   0.03  -0.01
   4   6     0.01  -0.00   0.00     0.02  -0.01   0.00     0.05  -0.06   0.01
   5   6     0.00  -0.03  -0.00    -0.02   0.10   0.01    -0.07   0.25   0.02
   6   1    -0.12  -0.44  -0.03    -0.15   0.41   0.13    -0.47  -0.08   0.21
   7   1     0.01  -0.47  -0.28     0.25  -0.37   0.07    -0.37   0.17  -0.38
   8   1    -0.40  -0.33  -0.08    -0.11  -0.19   0.65     0.14   0.10   0.02
   9   1     0.14   0.06  -0.04    -0.05  -0.05  -0.00     0.03   0.00  -0.00
  10   1     0.11   0.12  -0.08    -0.02  -0.02   0.01    -0.01  -0.02  -0.04
  11   1     0.04   0.01  -0.00     0.01  -0.00   0.06    -0.01   0.00   0.06
  12   1     0.01  -0.01   0.01     0.00  -0.06   0.02     0.02  -0.07   0.02
  13   1    -0.00   0.02  -0.00    -0.02   0.00   0.00    -0.06   0.04  -0.00
  14   1     0.01   0.01   0.01    -0.02   0.02  -0.01    -0.06   0.05  -0.02
  15   1    -0.03   0.02  -0.01     0.05  -0.12  -0.06     0.14  -0.23  -0.08
  16   1     0.01   0.05   0.00    -0.03  -0.10  -0.01    -0.06  -0.29  -0.08
  17   1    -0.02   0.02  -0.00     0.01  -0.12   0.04     0.12  -0.27   0.08
                     28                     29                     30
                        a                      a                      a 
 Frequencies --  1437.3870              1479.7265              1484.6664
 Red. masses --     2.6049                 1.8525                 1.8593
 Frc consts  --     0.0000                 0.0000                 0.0000
 IR Inten    --    40.9004                15.1933                10.4707
 Raman Activ --     0.0000                 0.0000                 0.0000
 Depolar     --     0.0000                 0.0000                 0.0000
 Atom AN      X      Y      Z        X      Y      Z        X      Y      Z
   1   7    -0.12   0.04   0.04    -0.01  -0.00   0.00     0.02   0.01  -0.01
   2   6    -0.05  -0.00   0.03    -0.08   0.11   0.23     0.02  -0.04  -0.03
   3   6     0.04   0.02   0.00     0.01  -0.03   0.03     0.03  -0.16   0.21
   4   6     0.04  -0.08   0.01    -0.01  -0.04  -0.01     0.01   0.00   0.00
   5   6    -0.08   0.32   0.04     0.03  -0.01  -0.02     0.01   0.04  -0.01
   6   1     0.40  -0.09  -0.20    -0.01   0.06   0.02    -0.07   0.01   0.03
   7   1     0.21  -0.05   0.25    -0.00   0.03   0.02    -0.02  -0.02  -0.04
   8   1    -0.11  -0.05  -0.23     0.04   0.04   0.04    -0.01  -0.02   0.05
   9   1     0.05  -0.01  -0.02     0.40  -0.46  -0.22    -0.10   0.08   0.06
  10   1     0.03   0.05  -0.04    -0.14  -0.04  -0.64     0.01  -0.02   0.12
  11   1    -0.07   0.00  -0.02    -0.05  -0.00  -0.12    -0.08  -0.00  -0.65
  12   1    -0.02   0.02  -0.00     0.02   0.13  -0.04     0.02   0.64  -0.17
  13   1    -0.06   0.04  -0.00     0.05   0.05  -0.02    -0.05  -0.02   0.01
  14   1    -0.07   0.05  -0.03     0.02   0.04   0.07    -0.01  -0.02  -0.03
  15   1     0.16  -0.29  -0.12    -0.00  -0.01  -0.01     0.02  -0.05  -0.03
  16   1    -0.07  -0.37  -0.12    -0.01   0.04   0.08    -0.02  -0.02   0.04
  17   1     0.14  -0.36   0.11    -0.09   0.02   0.01    -0.05  -0.04   0.02
                     31                     32                     33
                        a                      a                      a 
 Frequencies --  1508.6475              1513.1178              1514.5451
 Red. masses --     1.5582                 1.8591                 1.5849
 Frc consts  --     0.0000                 0.0000                 0.0000
 IR Inten    --     7.1265                 3.2593                11.3533
 Raman Activ --     0.0000                 0.0000                 0.0000
 Depolar     --     0.0000                 0.0000                 0.0000
 Atom AN      X      Y      Z        X      Y      Z        X      Y      Z
   1   7     0.00  -0.01   0.01    -0.00  -0.01   0.01    -0.00   0.01   0.01
   2   6     0.02  -0.01  -0.03    -0.01  -0.01   0.01     0.01  -0.00  -0.02
   3   6    -0.02  -0.00  -0.01    -0.00   0.03  -0.02    -0.00   0.01  -0.01
   4   6    -0.07  -0.13  -0.04     0.18   0.13   0.07    -0.05  -0.04  -0.06
   5   6     0.14   0.05   0.06     0.14   0.03  -0.02     0.02   0.05  -0.20
   6   1     0.00  -0.01  -0.00     0.02  -0.01  -0.01     0.02  -0.02  -0.01
   7   1    -0.02   0.02  -0.00    -0.01   0.02   0.00     0.00  -0.01  -0.00
   8   1     0.02   0.02  -0.03     0.02   0.02  -0.04    -0.02  -0.01  -0.03
   9   1    -0.06   0.05   0.03     0.03   0.00  -0.01    -0.05   0.04   0.02
  10   1     0.02   0.00   0.08     0.00   0.01  -0.02     0.01   0.00   0.07
  11   1     0.00  -0.00   0.02     0.02   0.01   0.06     0.00  -0.00   0.04
  12   1    -0.00  -0.01   0.00    -0.00  -0.06   0.02     0.01  -0.04   0.01
  13   1     0.29   0.28  -0.13    -0.39  -0.28   0.15     0.13   0.08  -0.06
  14   1     0.12   0.20   0.34    -0.18  -0.17  -0.42     0.06   0.09   0.15
  15   1    -0.28  -0.15  -0.41    -0.10  -0.17  -0.26     0.42  -0.20   0.20
  16   1     0.06   0.24  -0.00    -0.01   0.17   0.24    -0.20  -0.18   0.63
  17   1    -0.39  -0.27   0.15    -0.45  -0.12   0.11    -0.32   0.20  -0.03
                     34                     35                     36
                        a                      a                      a 
 Frequencies --  2919.1299              2924.3851              2938.7807
 Red. masses --     1.9290                 1.9013                 1.9307
 Frc consts  --     0.0000                 0.0000                 0.0000
 IR Inten    --     6.6561                 2.9146                 2.7408
 Raman Activ --     0.0000                 0.0000                 0.0000
 Depolar     --     0.0000                 0.0000                 0.0000
 Atom AN      X      Y      Z        X      Y      Z        X      Y      Z
   1   7    -0.00   0.00  -0.00    -0.00  -0.00  -0.00    -0.00   0.00   0.00
   2   6    -0.01   0.01  -0.01     0.06  -0.05   0.01     0.20  -0.17   0.09
   3   6    -0.01  -0.02  -0.03     0.01   0.25   0.11    -0.00  -0.06  -0.06
   4   6    -0.11  -0.06   0.26    -0.03  -0.02   0.01     0.01   0.01   0.00
   5   6     0.01   0.01  -0.02    -0.00  -0.00  -0.01     0.00   0.00  -0.00
   6   1     0.00   0.00   0.00    -0.00  -0.00   0.00     0.00  -0.00   0.01
   7   1    -0.00  -0.00   0.00    -0.00  -0.00   0.00     0.00   0.00  -0.00
   8   1     0.00  -0.00  -0.00     0.00  -0.00  -0.00     0.02  -0.02  -0.00
   9   1     0.01  -0.00   0.01    -0.01   0.00  -0.05    -0.13   0.06  -0.40
  10   1     0.02  -0.02  -0.00    -0.19   0.19   0.03    -0.58   0.55   0.08
  11   1    -0.00   0.03  -0.00     0.03  -0.80  -0.01    -0.01   0.14  -0.00
  12   1     0.02   0.04   0.14    -0.06  -0.09  -0.40     0.04   0.06   0.25
  13   1    -0.11  -0.18  -0.55     0.00   0.01   0.06    -0.01  -0.01  -0.06
  14   1     0.49   0.38  -0.38     0.11   0.09  -0.10    -0.05  -0.03   0.04
  15   1    -0.05  -0.05   0.05    -0.01  -0.01   0.01    -0.01  -0.01   0.01
  16   1    -0.01   0.00  -0.01     0.00   0.00  -0.00     0.00  -0.00  -0.00
  17   1     0.01   0.02   0.05     0.00   0.01   0.02    -0.00  -0.00  -0.01
                     37                     38                     39
                        a                      a                      a 
 Frequencies --  2949.8907              2958.4009              2974.1747
 Red. masses --     1.5395                 1.5603                 1.6017
 Frc consts  --     0.0000                 0.0000                 0.0000
 IR Inten    --    13.5965                19.4297                 5.9577
 Raman Activ --     0.0000                 0.0000                 0.0000
 Depolar     --     0.0000                 0.0000                 0.0000
 Atom AN      X      Y      Z        X      Y      Z        X      Y      Z
   1   7     0.00   0.00   0.00    -0.00  -0.00   0.00     0.00   0.00  -0.00
   2   6     0.02  -0.01   0.00    -0.03   0.04   0.04     0.00   0.03   0.22
   3   6     0.00  -0.06   0.01    -0.03   0.07  -0.19     0.01   0.00   0.06
   4   6    -0.13  -0.13  -0.09    -0.02  -0.02  -0.05     0.00   0.00   0.01
   5   6     0.03   0.01   0.01     0.01  -0.00   0.02     0.01   0.00  -0.02
   6   1    -0.00   0.00  -0.00     0.01   0.00   0.01     0.01  -0.00   0.02
   7   1    -0.00  -0.00   0.00     0.00   0.00  -0.00    -0.00   0.00   0.00
   8   1     0.00  -0.00  -0.00    -0.01   0.01  -0.00    -0.01   0.01   0.00
   9   1    -0.01   0.00  -0.02    -0.06   0.03  -0.14    -0.31   0.17  -0.78
  10   1    -0.05   0.05   0.01     0.17  -0.16  -0.02     0.29  -0.27  -0.00
  11   1    -0.01   0.23   0.01     0.01  -0.46  -0.04     0.00   0.05   0.01
  12   1    -0.01  -0.03  -0.07     0.11   0.23   0.74    -0.03  -0.07  -0.23
  13   1     0.09   0.18   0.69     0.03   0.05   0.19    -0.01  -0.01  -0.04
  14   1     0.38   0.29  -0.35     0.02   0.01  -0.03     0.01   0.00  -0.00
  15   1    -0.04  -0.04   0.05     0.01   0.01  -0.01    -0.03  -0.03   0.03
  16   1    -0.06   0.01  -0.01    -0.04   0.01  -0.01    -0.01   0.00  -0.01
  17   1    -0.01  -0.03  -0.09    -0.01  -0.02  -0.06     0.01   0.02   0.05
                     40                     41                     42
                        a                      a                      a 
 Frequencies --  2988.8881              2993.8163              3007.2091
 Red. masses --     1.9243                 1.9349                 1.2874
 Frc consts  --     0.0000                 0.0000                 0.0000
 IR Inten    --    62.3386                30.4476                22.4342
 Raman Activ --     0.0000                 0.0000                 0.0000
 Depolar     --     0.0000                 0.0000                 0.0000
 Atom AN      X      Y      Z        X      Y      Z        X      Y      Z
   1   7     0.01  -0.01  -0.00     0.00  -0.00  -0.00    -0.00   0.01  -0.00
   2   6     0.00  -0.00   0.01     0.00  -0.00   0.01    -0.00   0.00   0.00
   3   6     0.00  -0.00   0.01     0.00   0.00   0.02     0.00   0.00   0.00
   4   6    -0.03  -0.02   0.02     0.01   0.01   0.03     0.01   0.01   0.01
   5   6    -0.22  -0.08   0.16     0.17  -0.00   0.23    -0.05   0.14   0.05
   6   1    -0.00   0.00  -0.00    -0.00  -0.00   0.00     0.00   0.00   0.00
   7   1    -0.00   0.00   0.00     0.00  -0.00   0.00    -0.00  -0.00   0.00
   8   1    -0.02   0.02   0.01    -0.01   0.00   0.00     0.02  -0.02  -0.00
   9   1    -0.02   0.01  -0.05    -0.01   0.00  -0.02    -0.00   0.00  -0.01
  10   1     0.00  -0.00   0.00     0.00  -0.00   0.00     0.01  -0.01  -0.00
  11   1    -0.00   0.02   0.00     0.00   0.00   0.00     0.00  -0.02  -0.00
  12   1    -0.00  -0.01  -0.02    -0.01  -0.02  -0.06    -0.00  -0.00  -0.01
  13   1    -0.00  -0.00  -0.01    -0.02  -0.03  -0.11    -0.01  -0.01  -0.04
  14   1     0.08   0.06  -0.06    -0.02  -0.01   0.02    -0.02  -0.01   0.02
  15   1     0.48   0.45  -0.51     0.12   0.08  -0.06    -0.27  -0.23   0.29
  16   1     0.38  -0.10   0.13    -0.62   0.13  -0.13     0.56  -0.10   0.15
  17   1    -0.07  -0.08  -0.18    -0.08  -0.21  -0.64    -0.10  -0.17  -0.61
                     43                     44                     45
                        a                      a                      a 
 Frequencies --  3207.1563              3211.3395              3232.9588
 Red. masses --     2.0305                 2.0374                 1.2897
 Frc consts  --     0.0000                 0.0000                 0.0000
 IR Inten    --    95.7339               102.2213                21.0500
 Raman Activ --     0.0000                 0.0000                 0.0000
 Depolar     --     0.0000                 0.0000                 0.0000
 Atom AN      X      Y      Z        X      Y      Z        X      Y      Z
   1   7     0.21  -0.01  -0.18     0.14  -0.17   0.17     0.05   0.10   0.09
   2   6     0.00  -0.00  -0.01     0.01  -0.01   0.01     0.00   0.01   0.01
   3   6    -0.00  -0.00  -0.00     0.00  -0.00  -0.00    -0.00   0.00  -0.00
   4   6     0.00   0.00  -0.00    -0.00   0.00   0.00     0.00   0.00   0.00
   5   6     0.00   0.00  -0.00     0.00   0.00  -0.00    -0.00  -0.00   0.00
   6   1     0.10  -0.04   0.16    -0.27   0.13  -0.62    -0.26   0.14  -0.59
   7   1    -0.59  -0.27   0.50     0.17   0.05  -0.11    -0.34  -0.15   0.30
   8   1    -0.30   0.35   0.03    -0.43   0.46   0.09     0.39  -0.40  -0.05
   9   1     0.00  -0.00   0.01    -0.01   0.00  -0.01    -0.01   0.00  -0.01
  10   1    -0.01   0.01   0.00    -0.01   0.01  -0.00     0.01  -0.01  -0.00
  11   1     0.00   0.00   0.00    -0.00  -0.00  -0.00    -0.00  -0.01  -0.00
  12   1     0.00   0.00   0.01     0.00   0.00   0.00     0.00   0.00   0.00
  13   1     0.00  -0.00  -0.00    -0.00  -0.00  -0.00    -0.00  -0.00  -0.00
  14   1    -0.00  -0.00   0.00     0.00   0.00  -0.00    -0.00  -0.00   0.00
  15   1    -0.01  -0.01   0.01    -0.02  -0.01   0.02     0.01   0.01  -0.01
  16   1     0.00  -0.00   0.00     0.01  -0.00   0.00    -0.01   0.00  -0.00
  17   1     0.00   0.00  -0.00     0.00  -0.00  -0.01    -0.00   0.00   0.00
