      -----------------------------------------------------------      
     |                   =====================                   |     
     |                           x T B                           |     
     |                   =====================                   |     
     |                         S. Grimme                         |     
     |          Mulliken Center for Theoretical Chemistry        |     
     |                    University of Bonn                     |     
      -----------------------------------------------------------      

   * xtb version 6.5.1 (fef0646) compiled by 'conda@b96dff2e9fd6' on 2023-01-04

   xtb is free software: you can redistribute it and/or modify it under
   the terms of the GNU Lesser General Public License as published by
   the Free Software Foundation, either version 3 of the License, or
   (at your option) any later version.
   
   xtb is distributed in the hope that it will be useful,
   but WITHOUT ANY WARRANTY; without even the implied warranty of
   MERCHANTABILITY or FITNESS FOR A PARTICULAR PURPOSE.  See the
   GNU Lesser General Public License for more details.
   
   Cite this work as:
   * C. Bannwarth, E. Caldeweyher, S. Ehlert, A. Hansen, P. Pracht,
     J. Seibert, S. Spicher, S. Grimme, WIREs Comput. Mol. Sci., 2020, 11,
     e01493. DOI: 10.1002/wcms.1493
   
   for GFN2-xTB:
   * C. Bannwarth, S. Ehlert and S. Grimme., J. Chem. Theory Comput., 2019,
     15, 1652-1671. DOI: 10.1021/acs.jctc.8b01176
   for GFN1-xTB:
   * S. Grimme, C. Bannwarth, P. Shushkov, J. Chem. Theory Comput., 2017,
     13, 1989-2009. DOI: 10.1021/acs.jctc.7b00118
   for GFN0-xTB:
   * P. Pracht, E. Caldeweyher, S. Ehlert, S. Grimme, ChemRxiv, 2019, preprint.
     DOI: 10.26434/chemrxiv.8326202.v1
   for GFN-FF:
   * S. Spicher and S. Grimme, Angew. Chem. Int. Ed., 2020, 59, 15665-15673.
     DOI: 10.1002/anie.202004239
   
   for ALPB and GBSA implicit solvation:
   * S. Ehlert, M. Stahn, S. Spicher, S. Grimme, J. Chem. Theory Comput.,
     2021, 17, 4250-4261. DOI: 10.1021/acs.jctc.1c00471
   
   for DFT-D4:
   * E. Caldeweyher, C. Bannwarth and S. Grimme, J. Chem. Phys., 2017,
     147, 034112. DOI: 10.1063/1.4993215
   * E. Caldeweyher, S. Ehlert, A. Hansen, H. Neugebauer, S. Spicher,
     C. Bannwarth and S. Grimme, J. Chem. Phys., 2019, 150, 154122.
     DOI: 10.1063/1.5090222
   * E. Caldeweyher, J.-M. Mewes, S. Ehlert and S. Grimme, Phys. Chem. Chem. Phys.
     2020, 22, 8499-8512. DOI: 10.1039/D0CP00502A
   
   for sTDA-xTB:
   * S. Grimme and C. Bannwarth, J. Chem. Phys., 2016, 145, 054103.
     DOI: 10.1063/1.4959605
   
   in the mass-spec context:
   * V. Asgeirsson, C. Bauer and S. Grimme, Chem. Sci., 2017, 8, 4879.
     DOI: 10.1039/c7sc00601b
   * J. Koopman and S. Grimme, ACS Omega 2019, 4, 12, 15120-15133.
     DOI: 10.1021/acsomega.9b02011
   
   for metadynamics refer to:
   * S. Grimme, J. Chem. Theory Comput., 2019, 155, 2847-2862
     DOI: 10.1021/acs.jctc.9b00143
   
   for SPH calculations refer to:
   * S. Spicher and S. Grimme, J. Chem. Theory Comput., 2021, 17, 1701-1714
     DOI: 10.1021/acs.jctc.0c01306
   
   with help from (in alphabetical order)
   P. Atkinson, C. Bannwarth, F. Bohle, G. Brandenburg, E. Caldeweyher
   M. Checinski, S. Dohm, S. Ehlert, S. Ehrlich, I. Gerasimov, C. Hölzer
   A. Katbashev, J. Koopman, C. Lavigne, S. Lehtola, F. März, M. Müller,
   F. Musil, H. Neugebauer, J. Pisarek, C. Plett, P. Pracht, F. Pultar,
   J. Seibert, P. Shushkov, S. Spicher, M. Stahn, M. Steiner, T. Strunk,
   J. Stückrath, T. Rose, and J. Unsleber
   
 * started run on 2023/01/24 at 16:43:55.209     

           -------------------------------------------------
          |                Calculation Setup                |
           -------------------------------------------------

          program call               : xtb init.xyz --opt -c 1 -u 0 -P 16 --alpb water
          hostname                   : gpg-woodward
          coordinate file            : init.xyz
          omp threads                :                    16

   ID    Z sym.   atoms
    1    7 N      1, 6
    2    6 C      2-5, 7-18
    3    1 H      19-39

           -------------------------------------------------
          |                 G F N 2 - x T B                 |
           -------------------------------------------------

        Reference                      10.1021/acs.jctc.8b01176
      * Hamiltonian:
        H0-scaling (s, p, d)           1.850000    2.230000    2.230000
        zeta-weighting                 0.500000
      * Dispersion:
        s8                             2.700000
        a1                             0.520000
        a2                             5.000000
        s9                             5.000000
      * Repulsion:
        kExp                           1.500000    1.000000
        rExp                           1.000000
      * Coulomb:
        alpha                          2.000000
        third order                    shell-resolved
        anisotropic                    true
        a3                             3.000000
        a5                             4.000000
        cn-shift                       1.200000
        cn-exp                         4.000000
        max-rad                        5.000000

      * Solvation model:               ALPB
        Solvent                        water
        Parameter file                 internal GFN2-xTB/ALPB
        Dielectric constant                8.0200E+01
        Reference state                gsolv [1 M gas/solution]
        Free energy shift                  1.0808E-03 Eh       6.7819E-01 kcal/mol
        Temperature                        2.9815E+02 K
        Density                            1.0000E+00 kg/L
        Solvent mass                       1.8000E+01 g/mol
        Interaction kernel             P16
        Born radius scaling (c1)           1.4744E+00
        Born radii integrator          GBOBC
        Born offset                        0.0000E+00 a0       0.0000E+00 AA
        H-bond correction              true
        Ion screening                  false
        Surface tension                    1.0000E-05 Eh       1.5569E+01 dyn/cm
        Grid points                               230 per atom

          ...................................................
          :                      SETUP                      :
          :.................................................:
          :  # basis functions                  93          :
          :  # atomic orbitals                  93          :
          :  # shells                           57          :
          :  # electrons                        94          :
          :  max. iterations                   250          :
          :  Hamiltonian                  GFN2-xTB          :
          :  restarted?                      false          :
          :  GBSA solvation                   true          :
          :  PC potential                    false          :
          :  electronic temp.          300.0000000     K    :
          :  accuracy                    1.0000000          :
          :  -> integral cutoff          0.2500000E+02      :
          :  -> integral neglect         0.1000000E-07      :
          :  -> SCF convergence          0.1000000E-05 Eh   :
          :  -> wf. convergence          0.1000000E-03 e    :
          :  Broyden damping             0.4000000          :
          ...................................................

 iter      E             dE          RMSdq      gap      omega  full diag
   1    -51.0236953 -0.510237E+02  0.371E+00    1.21       0.0  T
   2    -51.1095207 -0.858254E-01  0.216E+00    1.22       1.0  T
   3    -51.1097019 -0.181159E-03  0.940E-01    1.20       1.0  T
   4    -51.0800272  0.296747E-01  0.108E+00    1.25       1.0  T
   5    -51.1112372 -0.312101E-01  0.337E-01    1.19       1.0  T
   6    -51.1144751 -0.323789E-02  0.811E-02    1.19       1.0  T
   7    -51.1145408 -0.656976E-04  0.444E-02    1.19       1.0  T
   8    -51.1145400  0.811290E-06  0.260E-02    1.19       1.0  T
   9    -51.1145557 -0.156593E-04  0.660E-03    1.19       2.4  T
  10    -51.1145559 -0.226468E-06  0.388E-03    1.19       4.1  T
  11    -51.1145560 -0.874643E-07  0.113E-03    1.19      14.1  T
  12    -51.1145560 -0.153208E-07  0.493E-04    1.19      32.5  T
  13    -51.1145560 -0.181186E-08  0.236E-04    1.19      67.9  T

   *** convergence criteria satisfied after 13 iterations ***

         #    Occupation            Energy/Eh            Energy/eV
      -------------------------------------------------------------
         1        2.0000           -0.6908550             -18.7991
       ...           ...                  ...                  ...
        41        2.0000           -0.4246873             -11.5563
        42        2.0000           -0.4157512             -11.3132
        43        2.0000           -0.4091566             -11.1337
        44        2.0000           -0.3979502             -10.8288
        45        2.0000           -0.3895610             -10.6005
        46        2.0000           -0.3521865              -9.5835
        47        2.0000           -0.3267293              -8.8908 (HOMO)
        48                         -0.2829633              -7.6998 (LUMO)
        49                         -0.2180551              -5.9336
        50                         -0.2166769              -5.8961
        51                         -0.2031527              -5.5281
        52                         -0.0888881              -2.4188
       ...                                ...                  ...
        93                          0.6650289              18.0964
      -------------------------------------------------------------
                  HL-Gap            0.0437660 Eh            1.1909 eV
             Fermi-level           -0.3048463 Eh           -8.2953 eV

 SCC (total)                   0 d,  0 h,  0 min,  0.085 sec
 SCC setup                      ...        0 min,  0.000 sec (  0.516%)
 Dispersion                     ...        0 min,  0.001 sec (  0.636%)
 classical contributions        ...        0 min,  0.000 sec (  0.062%)
 integral evaluation            ...        0 min,  0.002 sec (  2.121%)
 iterations                     ...        0 min,  0.076 sec ( 89.869%)
 molecular gradient             ...        0 min,  0.005 sec (  5.624%)
 printout                       ...        0 min,  0.001 sec (  0.822%)

         :::::::::::::::::::::::::::::::::::::::::::::::::::::
         ::                     SUMMARY                     ::
         :::::::::::::::::::::::::::::::::::::::::::::::::::::
         :: total energy             -50.332685534713 Eh    ::
         :: total w/o Gsasa/hb       -50.319842325176 Eh    ::
         :: gradient norm              0.117500001237 Eh/a0 ::
         :: HOMO-LUMO gap              1.190932511916 eV    ::
         ::.................................................::
         :: SCC energy               -51.114556009532 Eh    ::
         :: -> isotropic ES            0.135886534811 Eh    ::
         :: -> anisotropic ES         -0.010341752656 Eh    ::
         :: -> anisotropic XC          0.034747022857 Eh    ::
         :: -> dispersion             -0.037837320238 Eh    ::
         :: -> Gsolv                  -0.125563331623 Eh    ::
         ::    -> Gelec               -0.112720122086 Eh    ::
         ::    -> Gsasa               -0.002429557682 Eh    ::
         ::    -> Ghb                 -0.011494411554 Eh    ::
         ::    -> Gshift               0.001080759698 Eh    ::
         :: repulsion energy           0.781282105919 Eh    ::
         :: add. restraining           0.000000000000 Eh    ::
         :: total charge               1.000000000000 e     ::
         :::::::::::::::::::::::::::::::::::::::::::::::::::::

      ----------------------------------------------------------- 
     |                   =====================                   |
     |                        A N C O P T                        |
     |                   =====================                   |
     |               Approximate Normal Coordinate               |
     |                Rational Function Optimizer                |
      ----------------------------------------------------------- 

          ...................................................
          :                      SETUP                      :
          :.................................................:
          :   optimization level            normal          :
          :   max. optcycles                   200          :
          :   ANC micro-cycles                  20          :
          :   degrees of freedom               111          :
          :.................................................:
          :   RF solver                   davidson          :
          :   write xtbopt.log                true          :
          :   linear?                        false          :
          :   energy convergence         0.5000000E-05 Eh   :
          :   grad. convergence          0.1000000E-02 Eh/α :
          :   maximium RF displ.         1.0000000          :
          :   Hlow (freq-cutoff)         0.1000000E-01      :
          :   Hmax (freq-cutoff)         5.0000000          :
          :   S6 in model hess.         20.0000000          :
          ...................................................

generating ANC from model Hessian ...
Using Lindh-Hessian (1995)
 Shifting diagonal of input Hessian by    9.6022729454566177E-003
 Lowest  eigenvalues of input Hessian
    0.000000    0.000000    0.000000    0.000000    0.000000    0.000000
    0.010000    0.010076    0.011219    0.011495    0.012771    0.013113
    0.013542    0.014948    0.016072    0.018035    0.019850    0.021602
 Highest eigenvalues
    1.662155    1.715701    1.769550    1.906783    1.963660    2.063523


........................................................................
.............................. CYCLE    1 ..............................
........................................................................
   1    -51.1145560 -0.511146E+02  0.106E-04    1.19       0.0  T
   2    -51.1145560  0.257145E-10  0.872E-05    1.19     183.6  T
   3    -51.1145560  0.417941E-10  0.935E-05    1.19     171.3  T
     SCC iter.                  ...        0 min,  0.018 sec
     gradient                   ...        0 min,  0.005 sec
 * total energy  :   -50.3326855 Eh     change       -0.3635989E-09 Eh
   gradient norm :     0.1175005 Eh/α   predicted     0.0000000E+00 (-100.00%)
   displ. norm   :     0.5144681 α      lambda       -0.3397277E-01
   maximum displ.:     0.1829287 α      in ANC's #16, #8, #41, ...

........................................................................
.............................. CYCLE    2 ..............................
........................................................................
   1    -51.1512597 -0.511513E+02  0.402E-01    1.59       0.0  T
   2    -51.1499368  0.132297E-02  0.330E-01    1.59       1.0  T
   3    -51.1499272  0.954961E-05  0.299E-01    1.60       1.0  T
   4    -51.1517410 -0.181377E-02  0.762E-02    1.59       1.0  T
   5    -51.1519216 -0.180581E-03  0.140E-02    1.59       1.1  T
   6    -51.1519255 -0.395027E-05  0.580E-03    1.59       2.8  T
   7    -51.1519258 -0.242638E-06  0.323E-03    1.59       5.0  T
   8    -51.1519259 -0.117094E-06  0.602E-04    1.59      26.6  T
   9    -51.1519259 -0.160796E-08  0.386E-04    1.59      41.5  T
     SCC iter.                  ...        0 min,  0.050 sec
     gradient                   ...        0 min,  0.005 sec
 * total energy  :   -50.3563903 Eh     change       -0.2370474E-01 Eh
   gradient norm :     0.0481397 Eh/α   predicted    -0.2149380E-01 (  -9.33%)
   displ. norm   :     0.5306741 α      lambda       -0.1330368E-01
   maximum displ.:     0.2578195 α      in ANC's #8, #16, #11, ...

........................................................................
.............................. CYCLE    3 ..............................
........................................................................
   1    -51.1732191 -0.511732E+02  0.260E-01    1.80       0.0  T
   2    -51.1728945  0.324598E-03  0.204E-01    1.80       1.0  T
   3    -51.1728859  0.860355E-05  0.179E-01    1.81       1.0  T
   4    -51.1734911 -0.605185E-03  0.528E-02    1.80       1.0  T
   5    -51.1735722 -0.810450E-04  0.131E-02    1.80       1.2  T
   6    -51.1735762 -0.398466E-05  0.428E-03    1.80       3.7  T
   7    -51.1735763 -0.161657E-06  0.270E-03    1.80       5.9  T
   8    -51.1735764 -0.757909E-07  0.471E-04    1.80      34.0  T
   9    -51.1735764 -0.204447E-08  0.277E-04    1.80      57.8  T
     SCC iter.                  ...        0 min,  0.050 sec
     gradient                   ...        0 min,  0.004 sec
 * total energy  :   -50.3656379 Eh     change       -0.9247589E-02 Eh
   gradient norm :     0.0201004 Eh/α   predicted    -0.8525109E-02 (  -7.81%)
   displ. norm   :     0.5384032 α      lambda       -0.5615301E-02
   maximum displ.:     0.3080316 α      in ANC's #8, #5, #11, ...

........................................................................
.............................. CYCLE    4 ..............................
........................................................................
   1    -51.1811601 -0.511812E+02  0.176E-01    1.90       0.0  T
   2    -51.1810952  0.649025E-04  0.127E-01    1.90       1.0  T
   3    -51.1809122  0.182998E-03  0.122E-01    1.91       1.0  T
   4    -51.1812505 -0.338258E-03  0.285E-02    1.91       1.0  T
   5    -51.1812742 -0.236858E-04  0.798E-03    1.90       2.0  T
   6    -51.1812758 -0.161460E-05  0.236E-03    1.91       6.8  T
   7    -51.1812758 -0.537897E-07  0.138E-03    1.91      11.6  T
   8    -51.1812758 -0.154586E-07  0.330E-04    1.91      48.5  T
   9    -51.1812758 -0.977536E-09  0.162E-04    1.91      98.6  T
     SCC iter.                  ...        0 min,  0.050 sec
     gradient                   ...        0 min,  0.004 sec
 * total energy  :   -50.3698432 Eh     change       -0.4205301E-02 Eh
   gradient norm :     0.0166088 Eh/α   predicted    -0.3621561E-02 ( -13.88%)
   displ. norm   :     0.5364329 α      lambda       -0.3307466E-02
   maximum displ.:     0.2998517 α      in ANC's #8, #5, #11, ...

........................................................................
.............................. CYCLE    5 ..............................
........................................................................
   1    -51.1845724 -0.511846E+02  0.160E-01    1.95       0.0  T
   2    -51.1845843 -0.119352E-04  0.965E-02    1.95       1.0  T
   3    -51.1844611  0.123215E-03  0.632E-02    1.95       1.0  T
   4    -51.1845835 -0.122432E-03  0.170E-02    1.95       1.0  T
   5    -51.1845924 -0.892670E-05  0.430E-03    1.95       3.7  T
   6    -51.1845929 -0.427702E-06  0.147E-03    1.95      10.9  T
   7    -51.1845929 -0.110106E-07  0.855E-04    1.95      18.7  T
   8    -51.1845929 -0.912890E-08  0.227E-04    1.95      70.5  T
     SCC iter.                  ...        0 min,  0.044 sec
     gradient                   ...        0 min,  0.004 sec
 * total energy  :   -50.3722738 Eh     change       -0.2430651E-02 Eh
   gradient norm :     0.0121410 Eh/α   predicted    -0.2129612E-02 ( -12.39%)
   displ. norm   :     0.4778504 α      lambda       -0.1762046E-02
   maximum displ.:     0.3136482 α      in ANC's #5, #8, #4, ...

........................................................................
.............................. CYCLE    6 ..............................
........................................................................
   1    -51.1860062 -0.511860E+02  0.147E-01    1.97       0.0  T
   2    -51.1860028  0.344753E-05  0.871E-02    1.97       1.0  T
   3    -51.1858030  0.199769E-03  0.822E-02    1.97       1.0  T
   4    -51.1860137 -0.210697E-03  0.520E-03    1.97       3.1  T
   5    -51.1860144 -0.735082E-06  0.208E-03    1.97       7.7  T
   6    -51.1860145 -0.423955E-07  0.113E-03    1.97      14.1  T
   7    -51.1860145 -0.729730E-08  0.498E-04    1.97      32.1  T
   8    -51.1860145 -0.592104E-08  0.160E-04    1.97      99.8  T
     SCC iter.                  ...        0 min,  0.044 sec
     gradient                   ...        0 min,  0.004 sec
 * total energy  :   -50.3735696 Eh     change       -0.1295807E-02 Eh
   gradient norm :     0.0085469 Eh/α   predicted    -0.1082198E-02 ( -16.48%)
   displ. norm   :     0.4243726 α      lambda       -0.1035404E-02
   maximum displ.:     0.2938329 α      in ANC's #5, #4, #8, ...

........................................................................
.............................. CYCLE    7 ..............................
........................................................................
   1    -51.1867338 -0.511867E+02  0.139E-01    1.97       0.0  T
   2    -51.1867249  0.885020E-05  0.831E-02    1.97       1.0  T
   3    -51.1864848  0.240124E-03  0.924E-02    1.97       1.0  T
   4    -51.1867421 -0.257349E-03  0.431E-03    1.97       3.7  T
   5    -51.1867426 -0.430342E-06  0.196E-03    1.97       8.2  T
   6    -51.1867426 -0.232571E-07  0.105E-03    1.97      15.2  T
   7    -51.1867426 -0.620937E-08  0.464E-04    1.97      34.5  T
   8    -51.1867426 -0.507105E-08  0.161E-04    1.97      99.4  T
     SCC iter.                  ...        0 min,  0.043 sec
     gradient                   ...        0 min,  0.004 sec
 * total energy  :   -50.3743662 Eh     change       -0.7965823E-03 Eh
   gradient norm :     0.0080583 Eh/α   predicted    -0.6109365E-03 ( -23.31%)
   displ. norm   :     0.4250936 α      lambda       -0.8329454E-03
   maximum displ.:     0.2849787 α      in ANC's #5, #4, #6, ...

........................................................................
.............................. CYCLE    8 ..............................
........................................................................
   1    -51.1877313 -0.511877E+02  0.145E-01    1.97       0.0  T
   2    -51.1877315 -0.202505E-06  0.854E-02    1.97       1.0  T
   3    -51.1876470  0.845235E-04  0.533E-02    1.97       1.0  T
   4    -51.1877350 -0.880224E-04  0.509E-03    1.97       3.1  T
   5    -51.1877357 -0.628146E-06  0.207E-03    1.97       7.7  T
   6    -51.1877357 -0.260981E-07  0.121E-03    1.97      13.3  T
   7    -51.1877357 -0.106657E-07  0.467E-04    1.97      34.3  T
   8    -51.1877357 -0.433896E-08  0.174E-04    1.97      92.2  T
     SCC iter.                  ...        0 min,  0.044 sec
     gradient                   ...        0 min,  0.004 sec
 * total energy  :   -50.3750410 Eh     change       -0.6747557E-03 Eh
   gradient norm :     0.0088803 Eh/α   predicted    -0.4917319E-03 ( -27.12%)
   displ. norm   :     0.5138773 α      lambda       -0.9017662E-03
   maximum displ.:     0.3269770 α      in ANC's #5, #4, #2, ...

........................................................................
.............................. CYCLE    9 ..............................
........................................................................
   1    -51.1873724 -0.511874E+02  0.182E-01    1.97       0.0  T
   2    -51.1873751 -0.267671E-05  0.108E-01    1.97       1.0  T
   3    -51.1873585  0.165915E-04  0.237E-02    1.97       1.0  T
   4    -51.1873761 -0.176014E-04  0.548E-03    1.97       2.9  T
   5    -51.1873767 -0.662176E-06  0.256E-03    1.97       6.3  T
   6    -51.1873768 -0.355779E-07  0.133E-03    1.97      12.1  T
   7    -51.1873768 -0.187671E-07  0.452E-04    1.97      35.4  T
   8    -51.1873768 -0.349298E-08  0.214E-04    1.97      74.7  T
     SCC iter.                  ...        0 min,  0.043 sec
     gradient                   ...        0 min,  0.004 sec
 * total energy  :   -50.3757673 Eh     change       -0.7263172E-03 Eh
   gradient norm :     0.0104958 Eh/α   predicted    -0.5699492E-03 ( -21.53%)
   displ. norm   :     0.5544077 α      lambda       -0.9545623E-03
   maximum displ.:     0.3329793 α      in ANC's #5, #4, #2, ...

........................................................................
.............................. CYCLE   10 ..............................
........................................................................
   1    -51.1881035 -0.511881E+02  0.197E-01    1.97       0.0  T
   2    -51.1880879  0.155583E-04  0.121E-01    1.97       1.0  T
   3    -51.1875906  0.497324E-03  0.129E-01    1.97       1.0  T
   4    -51.1881171 -0.526503E-03  0.428E-03    1.97       3.7  T
   5    -51.1881173 -0.210065E-06  0.265E-03    1.97       6.0  T
   6    -51.1881173 -0.189054E-07  0.131E-03    1.97      12.2  T
   7    -51.1881173 -0.259170E-07  0.433E-04    1.97      37.0  T
   8    -51.1881173 -0.242748E-08  0.250E-04    1.97      63.9  T
     SCC iter.                  ...        0 min,  0.044 sec
     gradient                   ...        0 min,  0.004 sec
 * total energy  :   -50.3764909 Eh     change       -0.7236034E-03 Eh
   gradient norm :     0.0128401 Eh/α   predicted    -0.6239883E-03 ( -13.77%)
   displ. norm   :     0.4880342 α      lambda       -0.8865939E-03
   maximum displ.:     0.2546027 α      in ANC's #5, #4, #2, ...

........................................................................
.............................. CYCLE   11 ..............................
........................................................................
   1    -51.1887167 -0.511887E+02  0.175E-01    1.98       0.0  T
   2    -51.1886974  0.193318E-04  0.108E-01    1.98       1.0  T
   3    -51.1882683  0.429118E-03  0.124E-01    1.99       1.0  T
   4    -51.1887315 -0.463220E-03  0.543E-03    1.98       2.9  T
   5    -51.1887320 -0.525762E-06  0.270E-03    1.98       5.9  T
   6    -51.1887320 -0.291699E-07  0.142E-03    1.98      11.3  T
   7    -51.1887321 -0.341687E-07  0.350E-04    1.98      45.7  T
   8    -51.1887321 -0.794131E-09  0.208E-04    1.98      76.9  T
     SCC iter.                  ...        0 min,  0.044 sec
     gradient                   ...        0 min,  0.004 sec
 * total energy  :   -50.3771352 Eh     change       -0.6443643E-03 Eh
   gradient norm :     0.0112610 Eh/α   predicted    -0.5489063E-03 ( -14.81%)
   displ. norm   :     0.4590542 α      lambda       -0.8421222E-03
   maximum displ.:     0.2056314 α      in ANC's #5, #2, #4, ...

........................................................................
.............................. CYCLE   12 ..............................
........................................................................
   1    -51.1922826 -0.511923E+02  0.156E-01    1.99       0.0  T
   2    -51.1922599  0.226312E-04  0.988E-02    1.99       1.0  T
   3    -51.1919235  0.336481E-03  0.114E-01    1.99       1.0  T
   4    -51.1923006 -0.377164E-03  0.789E-03    1.99       2.0  T
   5    -51.1923023 -0.165984E-05  0.290E-03    1.99       5.5  T
   6    -51.1923024 -0.663615E-07  0.151E-03    1.99      10.6  T
   7    -51.1923024 -0.137487E-07  0.581E-04    1.99      27.6  T
   8    -51.1923024 -0.488836E-08  0.226E-04    1.99      70.8  T
     SCC iter.                  ...        0 min,  0.045 sec
     gradient                   ...        0 min,  0.004 sec
 * total energy  :   -50.3776808 Eh     change       -0.5455567E-03 Eh
   gradient norm :     0.0111022 Eh/α   predicted    -0.5097948E-03 (  -6.56%)
   displ. norm   :     0.5305281 α      lambda       -0.6247220E-03
   maximum displ.:     0.2577597 α      in ANC's #5, #2, #4, ...

........................................................................
.............................. CYCLE   13 ..............................
........................................................................
   1    -51.1867358 -0.511867E+02  0.178E-01    2.00       0.0  T
   2    -51.1867377 -0.180291E-05  0.107E-01    2.00       1.0  T
   3    -51.1865797  0.157973E-03  0.732E-02    2.01       1.0  T
   4    -51.1867444 -0.164706E-03  0.859E-03    2.00       1.9  T
   5    -51.1867463 -0.193675E-05  0.329E-03    2.00       4.9  T
   6    -51.1867465 -0.130039E-06  0.182E-03    2.00       8.8  T
   7    -51.1867465 -0.168662E-07  0.696E-04    2.00      23.0  T
   8    -51.1867465 -0.916297E-08  0.244E-04    2.00      65.7  T
     SCC iter.                  ...        0 min,  0.047 sec
     gradient                   ...        0 min,  0.004 sec
 * total energy  :   -50.3780548 Eh     change       -0.3739836E-03 Eh
   gradient norm :     0.0126614 Eh/α   predicted    -0.4002909E-03 (   7.03%)
   displ. norm   :     0.3425654 α      lambda       -0.8671832E-03
   maximum displ.:     0.2222344 α      in ANC's #2, #1, #4, ...

........................................................................
.............................. CYCLE   14 ..............................
........................................................................
   1    -51.1974722 -0.511975E+02  0.116E-01    2.04       0.0  T
   2    -51.1974742 -0.195551E-05  0.703E-02    2.04       1.0  T
   3    -51.1974012  0.729324E-04  0.612E-02    2.04       1.0  T
   4    -51.1974820 -0.807264E-04  0.164E-02    2.04       1.0  T
   5    -51.1974910 -0.900732E-05  0.286E-03    2.04       5.6  T
   6    -51.1974911 -0.110103E-06  0.146E-03    2.04      10.9  T
   7    -51.1974911 -0.852101E-08  0.577E-04    2.04      27.8  T
   8    -51.1974911 -0.468372E-08  0.166E-04    2.04      96.5  T
     SCC iter.                  ...        0 min,  0.044 sec
     gradient                   ...        0 min,  0.004 sec
 * total energy  :   -50.3782081 Eh     change       -0.1532972E-03 Eh
   gradient norm :     0.0167201 Eh/α   predicted    -0.4844785E-03 ( 216.04%)
   displ. norm   :     0.3017006 α      lambda       -0.7629037E-03
   maximum displ.:     0.1750772 α      in ANC's #2, #5, #4, ...

........................................................................
.............................. CYCLE   15 ..............................
........................................................................
   1    -51.1933926 -0.511934E+02  0.103E-01    2.00       0.0  T
   2    -51.1933953 -0.271307E-05  0.622E-02    2.00       1.0  T
   3    -51.1933294  0.658573E-04  0.458E-02    2.00       1.0  T
   4    -51.1933983 -0.688938E-04  0.565E-03    2.00       2.8  T
   5    -51.1933991 -0.731671E-06  0.180E-03    2.00       8.9  T
   6    -51.1933991 -0.137159E-07  0.112E-03    2.00      14.4  T
   7    -51.1933991 -0.782672E-08  0.323E-04    2.00      49.5  T
   8    -51.1933991 -0.167444E-08  0.171E-04    2.00      93.6  T
     SCC iter.                  ...        0 min,  0.045 sec
     gradient                   ...        0 min,  0.004 sec
 * total energy  :   -50.3786807 Eh     change       -0.4725763E-03 Eh
   gradient norm :     0.0093044 Eh/α   predicted    -0.4161750E-03 ( -11.93%)
   displ. norm   :     0.3154741 α      lambda       -0.3760378E-03
   maximum displ.:     0.2110725 α      in ANC's #2, #5, #1, ...

........................................................................
.............................. CYCLE   16 ..............................
........................................................................
   1    -51.1910468 -0.511910E+02  0.101E-01    1.97       0.0  T
   2    -51.1910479 -0.110482E-05  0.605E-02    1.97       1.0  T
   3    -51.1910170  0.309523E-04  0.312E-02    1.97       1.0  T
   4    -51.1910493 -0.323715E-04  0.337E-03    1.97       4.8  T
   5    -51.1910496 -0.248975E-06  0.152E-03    1.97      10.5  T
   6    -51.1910496 -0.494526E-08  0.756E-04    1.97      21.2  T
   7    -51.1910496 -0.728699E-08  0.196E-04    1.97      81.8  T
     SCC iter.                  ...        0 min,  0.040 sec
     gradient                   ...        0 min,  0.004 sec
 * total energy  :   -50.3789101 Eh     change       -0.2294585E-03 Eh
   gradient norm :     0.0103405 Eh/α   predicted    -0.2067327E-03 (  -9.90%)
   displ. norm   :     0.3191745 α      lambda       -0.4434602E-03
   maximum displ.:     0.2466883 α      in ANC's #2, #1, #3, ...

........................................................................
.............................. CYCLE   17 ..............................
........................................................................
   1    -51.1925016 -0.511925E+02  0.897E-02    1.93       0.0  T
   2    -51.1925021 -0.511782E-06  0.522E-02    1.93       1.0  T
   3    -51.1924304  0.717181E-04  0.523E-02    1.93       1.0  T
   4    -51.1925067 -0.762673E-04  0.710E-03    1.93       2.3  T
   5    -51.1925083 -0.160361E-05  0.170E-03    1.93       9.4  T
   6    -51.1925083 -0.236318E-07  0.104E-03    1.93      15.3  T
   7    -51.1925083 -0.479429E-08  0.414E-04    1.93      38.7  T
   8    -51.1925083 -0.384511E-08  0.166E-04    1.93      96.7  T
     SCC iter.                  ...        0 min,  0.044 sec
     gradient                   ...        0 min,  0.004 sec
 * total energy  :   -50.3792309 Eh     change       -0.3207481E-03 Eh
   gradient norm :     0.0095228 Eh/α   predicted    -0.2443233E-03 ( -23.83%)
   displ. norm   :     0.4478469 α      lambda       -0.4940254E-03
   maximum displ.:     0.3528161 α      in ANC's #2, #1, #3, ...

........................................................................
.............................. CYCLE   18 ..............................
........................................................................
   1    -51.1935265 -0.511935E+02  0.124E-01    1.90       0.0  T
   2    -51.1935200  0.651227E-05  0.731E-02    1.91       1.0  T
   3    -51.1933389  0.181118E-03  0.846E-02    1.90       1.0  T
   4    -51.1935379 -0.199022E-03  0.912E-03    1.91       1.8  T
   5    -51.1935403 -0.244305E-05  0.219E-03    1.91       7.3  T
   6    -51.1935404 -0.508122E-07  0.128E-03    1.91      12.5  T
   7    -51.1935404 -0.530729E-08  0.579E-04    1.91      27.6  T
   8    -51.1935404 -0.717396E-08  0.154E-04    1.91     103.7  T
     SCC iter.                  ...        0 min,  0.044 sec
     gradient                   ...        0 min,  0.004 sec
 * total energy  :   -50.3796102 Eh     change       -0.3793218E-03 Eh
   gradient norm :     0.0066344 Eh/α   predicted    -0.2965579E-03 ( -21.82%)
   displ. norm   :     0.5743303 α      lambda       -0.4558397E-03
   maximum displ.:     0.4491315 α      in ANC's #2, #1, #3, ...

........................................................................
.............................. CYCLE   19 ..............................
........................................................................
   1    -51.1925204 -0.511925E+02  0.164E-01    1.88       0.0  T
   2    -51.1925244 -0.401868E-05  0.947E-02    1.88       1.0  T
   3    -51.1923605  0.163916E-03  0.772E-02    1.87       1.0  T
   4    -51.1925303 -0.169828E-03  0.133E-02    1.88       1.2  T
   5    -51.1925358 -0.550463E-05  0.290E-03    1.88       5.5  T
   6    -51.1925359 -0.122853E-06  0.159E-03    1.88      10.1  T
   7    -51.1925359 -0.895810E-08  0.718E-04    1.88      22.3  T
   8    -51.1925359 -0.838831E-08  0.197E-04    1.88      81.4  T
     SCC iter.                  ...        0 min,  0.044 sec
     gradient                   ...        0 min,  0.004 sec
 * total energy  :   -50.3799519 Eh     change       -0.3417014E-03 Eh
   gradient norm :     0.0068301 Eh/α   predicted    -0.3031022E-03 ( -11.30%)
   displ. norm   :     0.5378214 α      lambda       -0.5177362E-03
   maximum displ.:     0.4238580 α      in ANC's #2, #3, #1, ...

........................................................................
.............................. CYCLE   20 ..............................
........................................................................
   1    -51.1961561 -0.511962E+02  0.148E-01    1.87       0.0  T
   2    -51.1961249  0.311812E-04  0.938E-02    1.88       1.0  T
   3    -51.1958730  0.251902E-03  0.109E-01    1.87       1.0  T
   4    -51.1961859 -0.312829E-03  0.123E-02    1.87       1.3  T
   5    -51.1961900 -0.418140E-05  0.327E-03    1.87       4.9  T
   6    -51.1961902 -0.152433E-06  0.172E-03    1.87       9.3  T
   7    -51.1961902 -0.164935E-07  0.977E-04    1.87      16.4  T
   8    -51.1961902 -0.161444E-07  0.169E-04    1.87      94.8  T
     SCC iter.                  ...        0 min,  0.044 sec
     gradient                   ...        0 min,  0.004 sec
 * total energy  :   -50.3800953 Eh     change       -0.1433630E-03 Eh
   gradient norm :     0.0126749 Eh/α   predicted    -0.3337485E-03 ( 132.80%)
   displ. norm   :     0.5139885 α      lambda       -0.5486687E-03
   maximum displ.:     0.3690210 α      in ANC's #2, #3, #1, ...
 * RMSD in coord.:     1.1100505 α      energy gain  -0.4740972E-01 Eh

generating ANC from model Hessian ...
Using Lindh-Hessian (1995)
 Shifting diagonal of input Hessian by    9.5444017637488707E-003
 Lowest  eigenvalues of input Hessian
    0.000000    0.000000    0.000000    0.000000    0.000000    0.000000
    0.010000    0.010124    0.011417    0.011706    0.013063    0.013491
    0.013816    0.015402    0.016324    0.018325    0.022371    0.023585
 Highest eigenvalues
    1.701274    1.766609    1.802394    1.929034    2.027010    2.115249


........................................................................
.............................. CYCLE   21 ..............................
........................................................................
   1    -51.1877286 -0.511877E+02  0.162E-01    1.85       0.0  T
   2    -51.1877247  0.394994E-05  0.100E-01    1.85       1.0  T
   3    -51.1874128  0.311839E-03  0.100E-01    1.85       1.0  T
   4    -51.1877420 -0.329182E-03  0.615E-03    1.85       2.6  T
   5    -51.1877429 -0.874833E-06  0.218E-03    1.85       7.4  T
   6    -51.1877429  0.519002E-09  0.159E-03    1.85      10.1  T
   7    -51.1877429 -0.361913E-07  0.312E-04    1.85      51.4  T
   8    -51.1877429 -0.925645E-09  0.174E-04    1.85      91.8  T
     SCC iter.                  ...        0 min,  0.045 sec
     gradient                   ...        0 min,  0.005 sec
 * total energy  :   -50.3802378 Eh     change       -0.1425292E-03 Eh
   gradient norm :     0.0123319 Eh/α   predicted     0.0000000E+00 (-100.00%)
   displ. norm   :     0.0730136 α      lambda       -0.3718277E-03
   maximum displ.:     0.0308180 α      in ANC's #2, #3, #8, ...

........................................................................
.............................. CYCLE   22 ..............................
........................................................................
   1    -51.1939405 -0.511939E+02  0.375E-02    1.87       0.0  T
   2    -51.1939404  0.886273E-07  0.233E-02    1.87       1.0  T
   3    -51.1939253  0.151543E-04  0.247E-02    1.87       1.0  T
   4    -51.1939419 -0.166543E-04  0.422E-03    1.87       3.8  T
   5    -51.1939424 -0.517314E-06  0.978E-04    1.87      16.4  T
   6    -51.1939424 -0.149537E-07  0.575E-04    1.87      27.8  T
     SCC iter.                  ...        0 min,  0.034 sec
     gradient                   ...        0 min,  0.004 sec
 * total energy  :   -50.3804850 Eh     change       -0.2472018E-03 Eh
   gradient norm :     0.0041041 Eh/α   predicted    -0.1869056E-03 ( -24.39%)
   displ. norm   :     0.0920648 α      lambda       -0.1204821E-03
   maximum displ.:     0.0510927 α      in ANC's #2, #3, #8, ...

........................................................................
.............................. CYCLE   23 ..............................
........................................................................
   1    -51.1967004 -0.511967E+02  0.320E-02    1.88       0.0  T
   2    -51.1966996  0.844267E-06  0.205E-02    1.88       1.0  T
   3    -51.1966878  0.117964E-04  0.226E-02    1.88       1.0  T
   4    -51.1967018 -0.140318E-04  0.261E-03    1.88       6.1  T
   5    -51.1967020 -0.195104E-06  0.600E-04    1.88      26.7  T
   6    -51.1967020 -0.366522E-08  0.388E-04    1.88      41.3  T
     SCC iter.                  ...        0 min,  0.034 sec
     gradient                   ...        0 min,  0.004 sec
 * total energy  :   -50.3805678 Eh     change       -0.8284510E-04 Eh
   gradient norm :     0.0021610 Eh/α   predicted    -0.6075725E-04 ( -26.66%)
   displ. norm   :     0.1183930 α      lambda       -0.7705909E-04
   maximum displ.:     0.0701365 α      in ANC's #2, #3, #5, ...

........................................................................
.............................. CYCLE   24 ..............................
........................................................................
   1    -51.1974242 -0.511974E+02  0.343E-02    1.90       0.0  T
   2    -51.1974224  0.184584E-05  0.227E-02    1.90       1.0  T
   3    -51.1974095  0.128375E-04  0.247E-02    1.90       1.0  T
   4    -51.1974261 -0.165618E-04  0.194E-03    1.90       8.2  T
   5    -51.1974262 -0.110596E-06  0.431E-04    1.90      37.2  T
   6    -51.1974262 -0.541320E-09  0.219E-04    1.90      73.0  T
     SCC iter.                  ...        0 min,  0.034 sec
     gradient                   ...        0 min,  0.004 sec
 * total energy  :   -50.3806294 Eh     change       -0.6155217E-04 Eh
   gradient norm :     0.0035368 Eh/α   predicted    -0.3920457E-04 ( -36.31%)
   displ. norm   :     0.1873198 α      lambda       -0.9875257E-04
   maximum displ.:     0.1124901 α      in ANC's #2, #3, #1, ...

........................................................................
.............................. CYCLE   25 ..............................
........................................................................
   1    -51.1968326 -0.511968E+02  0.492E-02    1.92       0.0  T
   2    -51.1968317  0.905916E-06  0.307E-02    1.92       1.0  T
   3    -51.1968013  0.304275E-04  0.335E-02    1.92       1.0  T
   4    -51.1968349 -0.335967E-04  0.309E-03    1.92       5.2  T
   5    -51.1968352 -0.280787E-06  0.722E-04    1.92      22.2  T
   6    -51.1968352 -0.605391E-08  0.422E-04    1.92      37.9  T
     SCC iter.                  ...        0 min,  0.033 sec
     gradient                   ...        0 min,  0.004 sec
 * total energy  :   -50.3807044 Eh     change       -0.7497394E-04 Eh
   gradient norm :     0.0036941 Eh/α   predicted    -0.5113827E-04 ( -31.79%)
   displ. norm   :     0.1604972 α      lambda       -0.6585815E-04
   maximum displ.:     0.1034685 α      in ANC's #2, #3, #1, ...

........................................................................
.............................. CYCLE   26 ..............................
........................................................................
   1    -51.1959448 -0.511959E+02  0.383E-02    1.93       0.0  T
   2    -51.1959455 -0.726555E-06  0.226E-02    1.93       1.0  T
   3    -51.1959448  0.725824E-06  0.553E-03    1.93       2.9  T
   4    -51.1959456 -0.789407E-06  0.185E-03    1.93       8.6  T
   5    -51.1959457 -0.852422E-07  0.936E-04    1.93      17.1  T
   6    -51.1959457 -0.213455E-07  0.359E-04    1.93      44.6  T
     SCC iter.                  ...        0 min,  0.033 sec
     gradient                   ...        0 min,  0.004 sec
 * total energy  :   -50.3807548 Eh     change       -0.5049200E-04 Eh
   gradient norm :     0.0025635 Eh/α   predicted    -0.3377742E-04 ( -33.10%)
   displ. norm   :     0.1190414 α      lambda       -0.4585670E-04
   maximum displ.:     0.0822836 α      in ANC's #2, #3, #1, ...

........................................................................
.............................. CYCLE   27 ..............................
........................................................................
   1    -51.1955908 -0.511956E+02  0.289E-02    1.93       0.0  T
   2    -51.1955898  0.990607E-06  0.176E-02    1.93       1.0  T
   3    -51.1955804  0.938292E-05  0.213E-02    1.93       1.0  T
   4    -51.1955919 -0.114953E-04  0.221E-03    1.93       7.2  T
   5    -51.1955920 -0.149076E-06  0.511E-04    1.93      31.4  T
   6    -51.1955920 -0.327015E-08  0.284E-04    1.93      56.3  T
     SCC iter.                  ...        0 min,  0.033 sec
     gradient                   ...        0 min,  0.004 sec
 * total energy  :   -50.3807927 Eh     change       -0.3786197E-04 Eh
   gradient norm :     0.0018589 Eh/α   predicted    -0.2325553E-04 ( -38.58%)
   displ. norm   :     0.1916803 α      lambda       -0.4984925E-04
   maximum displ.:     0.1329609 α      in ANC's #2, #3, #1, ...

........................................................................
.............................. CYCLE   28 ..............................
........................................................................
   1    -51.1954915 -0.511955E+02  0.518E-02    1.93       0.0  T
   2    -51.1954849  0.665208E-05  0.327E-02    1.93       1.0  T
   3    -51.1954612  0.236767E-04  0.390E-02    1.93       1.0  T
   4    -51.1954968 -0.355572E-04  0.344E-03    1.93       4.7  T
   5    -51.1954971 -0.364571E-06  0.846E-04    1.93      18.9  T
   6    -51.1954971 -0.678778E-08  0.480E-04    1.93      33.4  T
     SCC iter.                  ...        0 min,  0.033 sec
     gradient                   ...        0 min,  0.004 sec
 * total energy  :   -50.3808499 Eh     change       -0.5716393E-04 Eh
   gradient norm :     0.0032349 Eh/α   predicted    -0.2534275E-04 ( -55.67%)
   displ. norm   :     0.1382575 α      lambda       -0.4566221E-04
   maximum displ.:     0.0940650 α      in ANC's #2, #3, #1, ...

........................................................................
.............................. CYCLE   29 ..............................
........................................................................
   1    -51.1955510 -0.511956E+02  0.365E-02    1.92       0.0  T
   2    -51.1955505  0.441798E-06  0.213E-02    1.92       1.0  T
   3    -51.1955357  0.148693E-04  0.241E-02    1.92       1.0  T
   4    -51.1955519 -0.161838E-04  0.211E-03    1.92       7.6  T
   5    -51.1955520 -0.137786E-06  0.563E-04    1.92      28.4  T
   6    -51.1955520 -0.266231E-08  0.322E-04    1.92      49.7  T
     SCC iter.                  ...        0 min,  0.033 sec
     gradient                   ...        0 min,  0.004 sec
 * total energy  :   -50.3808907 Eh     change       -0.4085622E-04 Eh
   gradient norm :     0.0031734 Eh/α   predicted    -0.2326799E-04 ( -43.05%)
   displ. norm   :     0.2543599 α      lambda       -0.7718662E-04
   maximum displ.:     0.1698058 α      in ANC's #2, #3, #1, ...

........................................................................
.............................. CYCLE   30 ..............................
........................................................................
   1    -51.1956559 -0.511957E+02  0.671E-02    1.91       0.0  T
   2    -51.1956573 -0.143799E-05  0.392E-02    1.91       1.0  T
   3    -51.1956548  0.252455E-05  0.990E-03    1.91       1.6  T
   4    -51.1956570 -0.221733E-05  0.471E-03    1.91       3.4  T
   5    -51.1956577 -0.702452E-06  0.118E-03    1.91      13.6  T
   6    -51.1956577 -0.206103E-07  0.613E-04    1.91      26.1  T
   7    -51.1956577 -0.164805E-08  0.215E-04    1.91      74.5  T
     SCC iter.                  ...        0 min,  0.038 sec
     gradient                   ...        0 min,  0.004 sec
 * total energy  :   -50.3809521 Eh     change       -0.6133820E-04 Eh
   gradient norm :     0.0024274 Eh/α   predicted    -0.4109863E-04 ( -33.00%)
   displ. norm   :     0.2799607 α      lambda       -0.5699669E-04
   maximum displ.:     0.1866825 α      in ANC's #2, #3, #1, ...

........................................................................
.............................. CYCLE   31 ..............................
........................................................................
   1    -51.1954779 -0.511955E+02  0.720E-02    1.90       0.0  T
   2    -51.1954782 -0.330565E-06  0.437E-02    1.90       1.0  T
   3    -51.1954413  0.369257E-04  0.347E-02    1.90       1.0  T
   4    -51.1954798 -0.385293E-04  0.378E-03    1.90       4.2  T
   5    -51.1954802 -0.396888E-06  0.124E-03    1.90      12.9  T
   6    -51.1954803 -0.264370E-07  0.618E-04    1.90      25.9  T
   7    -51.1954803 -0.156084E-08  0.182E-04    1.90      87.8  T
     SCC iter.                  ...        0 min,  0.038 sec
     gradient                   ...        0 min,  0.004 sec
 * total energy  :   -50.3809917 Eh     change       -0.3965025E-04 Eh
   gradient norm :     0.0018736 Eh/α   predicted    -0.3073234E-04 ( -22.49%)
   displ. norm   :     0.2525861 α      lambda       -0.2560513E-04
   maximum displ.:     0.1707377 α      in ANC's #2, #3, #1, ...

........................................................................
.............................. CYCLE   32 ..............................
........................................................................
   1    -51.1963699 -0.511964E+02  0.645E-02    1.89       0.0  T
   2    -51.1963657  0.418772E-05  0.423E-02    1.89       1.0  T
   3    -51.1963046  0.611081E-04  0.473E-02    1.89       1.0  T
   4    -51.1963734 -0.688368E-04  0.289E-03    1.89       5.5  T
   5    -51.1963737 -0.234477E-06  0.108E-03    1.89      14.8  T
   6    -51.1963737 -0.218357E-07  0.508E-04    1.89      31.5  T
   7    -51.1963737 -0.799126E-09  0.113E-04    1.89     142.3  T
     SCC iter.                  ...        0 min,  0.038 sec
     gradient                   ...        0 min,  0.004 sec
 * total energy  :   -50.3810152 Eh     change       -0.2346315E-04 Eh
   gradient norm :     0.0010934 Eh/α   predicted    -0.1316968E-04 ( -43.87%)
   displ. norm   :     0.1020745 α      lambda       -0.9977661E-05
   maximum displ.:     0.0629409 α      in ANC's #2, #1, #3, ...

........................................................................
.............................. CYCLE   33 ..............................
........................................................................
   1    -51.1968197 -0.511968E+02  0.254E-02    1.89       0.0  T
   2    -51.1968191  0.632021E-06  0.164E-02    1.89       1.0  T
   3    -51.1968097  0.940682E-05  0.185E-02    1.89       1.0  T
   4    -51.1968202 -0.104676E-04  0.101E-03    1.89      15.8  T
   5    -51.1968202 -0.292510E-07  0.321E-04    1.89      49.9  T
   6    -51.1968202 -0.766335E-09  0.167E-04    1.89      96.0  T
     SCC iter.                  ...        0 min,  0.033 sec
     gradient                   ...        0 min,  0.004 sec
 * total energy  :   -50.3810263 Eh     change       -0.1112477E-04 Eh
   gradient norm :     0.0008809 Eh/α   predicted    -0.5013736E-05 ( -54.93%)
   displ. norm   :     0.0914430 α      lambda       -0.9959535E-05
   maximum displ.:     0.0567852 α      in ANC's #1, #2, #5, ...

........................................................................
.............................. CYCLE   34 ..............................
........................................................................
   1    -51.1975422 -0.511975E+02  0.241E-02    1.90       0.0  T
   2    -51.1975422 -0.121992E-07  0.145E-02    1.90       1.1  T
   3    -51.1975388  0.340420E-05  0.107E-02    1.90       1.5  T
   4    -51.1975423 -0.354692E-05  0.134E-03    1.90      11.9  T
   5    -51.1975424 -0.515894E-07  0.392E-04    1.90      40.9  T
   6    -51.1975424 -0.146917E-08  0.225E-04    1.90      71.2  T
     SCC iter.                  ...        0 min,  0.033 sec
     gradient                   ...        0 min,  0.004 sec
 * total energy  :   -50.3810354 Eh     change       -0.9112937E-05 Eh
   gradient norm :     0.0011977 Eh/α   predicted    -0.4998858E-05 ( -45.15%)
   displ. norm   :     0.0882696 α      lambda       -0.6192457E-05
   maximum displ.:     0.0541058 α      in ANC's #1, #2, #3, ...

........................................................................
.............................. CYCLE   35 ..............................
........................................................................
   1    -51.1966235 -0.511966E+02  0.232E-02    1.90       0.0  T
   2    -51.1966234  0.902177E-07  0.133E-02    1.90       1.2  T
   3    -51.1966191  0.426038E-05  0.122E-02    1.90       1.3  T
   4    -51.1966236 -0.450429E-05  0.884E-04    1.90      18.1  T
   5    -51.1966237 -0.182166E-07  0.347E-04    1.90      46.1  T
   6    -51.1966237 -0.654865E-09  0.181E-04    1.90      88.7  T
     SCC iter.                  ...        0 min,  0.033 sec
     gradient                   ...        0 min,  0.004 sec
 * total energy  :   -50.3810407 Eh     change       -0.5270088E-05 Eh
   gradient norm :     0.0007141 Eh/α   predicted    -0.3108875E-05 ( -41.01%)
   displ. norm   :     0.0390782 α      lambda       -0.3435168E-05
   maximum displ.:     0.0229054 α      in ANC's #1, #6, #3, ...

........................................................................
.............................. CYCLE   36 ..............................
........................................................................
   1    -51.1968981 -0.511969E+02  0.107E-02    1.90       0.0  T
   2    -51.1968980  0.154271E-06  0.647E-03    1.90       2.5  T
   3    -51.1968965  0.142601E-05  0.800E-03    1.90       2.0  T
   4    -51.1968983 -0.172278E-05  0.805E-04    1.90      19.9  T
   5    -51.1968983 -0.176174E-07  0.226E-04    1.90      71.0  T
   6    -51.1968983 -0.465768E-09  0.118E-04    1.90     135.5  T
     SCC iter.                  ...        0 min,  0.034 sec
     gradient                   ...        0 min,  0.004 sec
 * total energy  :   -50.3810448 Eh     change       -0.4089571E-05 Eh
   gradient norm :     0.0005889 Eh/α   predicted    -0.1723353E-05 ( -57.86%)
   displ. norm   :     0.0640965 α      lambda       -0.4846871E-05
   maximum displ.:     0.0356686 α      in ANC's #1, #6, #3, ...

   *** GEOMETRY OPTIMIZATION CONVERGED AFTER 36 ITERATIONS ***

------------------------------------------------------------------------
 total energy gain   :        -0.0483592 Eh      -30.3459 kcal/mol
 total RMSD          :         1.2920015 a0        0.6837 Å
 total power (kW/mol):        -3.5268660 (step)  -72.4803 (real)
------------------------------------------------------------------------

 ANCopt (total)                0 d,  0 h,  0 min,  1.752 sec
 optimizer setup                ...        0 min,  0.000 sec (  0.010%)
 model hessian                  ...        0 min,  0.032 sec (  1.845%)
 ANC generation                 ...        0 min,  0.011 sec (  0.649%)
 coordinate transformation      ...        0 min,  0.002 sec (  0.115%)
 single point calculation       ...        0 min,  1.686 sec ( 96.257%)
 optimization log               ...        0 min,  0.004 sec (  0.244%)
 hessian update                 ...        0 min,  0.002 sec (  0.106%)
 rational function              ...        0 min,  0.005 sec (  0.295%)

================
 final structure:
================
39
 xtb: 6.5.1 (fef0646)
N           14.77778626672197        0.53905930652456       -1.40780528708425
C           14.43433937540587        0.23148837501654       -2.81776628919915
C           13.98131238216897       -1.21716462540344       -2.95492876940647
C           13.62991545324523       -1.53810422845514       -4.40635370008038
C           13.04013797230109       -2.94507537482252       -4.55634161054879
N           11.76438738688419       -3.05367990324466       -3.88163273263760
C           11.54510500442108       -4.10011416758691       -2.88305417371692
C            9.96021599563823       -3.99804096162871       -2.63189080709463
C           10.06848072333339       -3.13840686123603       -1.43002075301858
C           10.57712275228563       -3.75315170894718       -0.31206661305228
C           12.02309333496608       -3.71448016481250       -0.38398634343863
C           12.42996347198261       -3.90986923696018       -1.65611517516015
C           10.58804980211794       -2.77020763434861       -4.53889971358181
C            9.48281253586455       -3.31355933910709       -3.86891087988494
C            8.20469398512026       -3.12997128820653       -4.33874952852855
C            8.01967784672974       -2.39905944105819       -5.50838564170230
C            9.10885116174254       -1.86252075772252       -6.17259312273967
C           10.40248581480335       -2.03494283997949       -5.70091619797801
H           15.08214536135542        1.51436279609378       -1.31031516089554
H           15.53310193098199       -0.07725205133992       -1.08512357298807
H           13.95930288255140        0.38786260218467       -0.80664780934554
H           15.30780696998890        0.40615554496076       -3.44567158462728
H           13.63567949084246        0.89709992086996       -3.14404449196047
H           13.09806990887756       -1.39978679945438       -2.34129832696568
H           14.77292468486588       -1.89197029529771       -2.62743935863352
H           14.51831883044175       -1.46864466729933       -5.03513009216625
H           12.89798931286151       -0.81701857146845       -4.77131688100536
H           13.72444912032606       -3.68313687907028       -4.13413567828146
H           12.91790140916907       -3.17653336655420       -5.62196324237007
H           11.79219118017476       -5.08323089144150       -3.32731261097564
H            9.51223299904400       -4.97215006521968       -2.43816093244075
H           10.49908340348323       -2.17082278565242       -1.67761338970950
H           10.12240243470917       -4.64880994545075        0.09394615479302
H           12.70286822812557       -3.75259793809741        0.45439785717337
H           13.48078048807239       -4.07306666913689       -1.85355544959533
H            7.35934992830402       -3.55234019851159       -3.81503138529805
H            7.02361351085893       -2.25311359571363       -5.89875219189452
H            8.95065573432835       -1.29997801085591       -7.08156507609159
H           11.23204092490674       -1.61374728156932       -6.24563943786776

 Bond Distances (Angstroems)
 ---------------------------
N1-C2=1.4834         N1-H19=1.0263        N1-H20=1.0269        N1-H21=1.0267        C2-N1=1.4834         C2-C3=1.5240         
C2-H22=1.0898        C2-H23=1.0897        C3-C2=1.5240         C3-C4=1.5275         C3-H24=1.0909        C3-H25=1.0905        
C4-C3=1.5275         C4-C5=1.5329         C4-H26=1.0906        C4-H27=1.0904        C5-C4=1.5329         C5-N6=1.4473         
C5-H28=1.0915        C5-H29=1.0973        N6-C5=1.4473         N6-C7=1.4630         N6-C13=1.3770        C7-N6=1.4630         
C7-C8=1.6079         C7-C12=1.5246        C7-H30=1.1068        C8-C7=1.6079         C8-C9=1.4816         C8-C14=1.4922        
C8-H31=1.0895        C9-C8=1.4816         C9-C10=1.3735        C9-H32=1.0876        C10-C9=1.3735        C10-C11=1.4483       
C10-H33=1.0834       C11-C10=1.4483       C11-C12=1.3498       C11-H34=1.0800       C12-C7=1.5246        C12-C11=1.3498       
C12-H35=1.0816       C13-N6=1.3770        C13-C14=1.4020       C13-C18=1.3876       C14-C8=1.4922        C14-C13=1.4020       
C14-C15=1.3741       C15-C14=1.3741       C15-C16=1.3916       C15-H36=1.0804       C16-C15=1.3916       C16-C17=1.3840       
C16-H37=1.0797       C17-C16=1.3840       C17-C18=1.3877       C17-H38=1.0806       C18-C13=1.3876       C18-C17=1.3877       
C18-H39=1.0781       H19-N1=1.0263        H20-N1=1.0269        H21-N1=1.0267        H22-C2=1.0898        H23-C2=1.0897        
H24-C3=1.0909        H25-C3=1.0905        H26-C4=1.0906        H27-C4=1.0904        H28-C5=1.0915        H29-C5=1.0973        
H30-C7=1.1068        H31-C8=1.0895        H32-C9=1.0876        H33-C10=1.0834       H34-C11=1.0800       H35-C12=1.0816       
H36-C15=1.0804       H37-C16=1.0797       H38-C17=1.0806       H39-C18=1.0781       
 C  H  Rav=1.0877 sigma=0.0070  Rmin=1.0781  Rmax=1.1068    18
 C  C  Rav=1.4493 sigma=0.0755  Rmin=1.3498  Rmax=1.6079    16
 N  H  Rav=1.0266 sigma=0.0002  Rmin=1.0263  Rmax=1.0269     3
 N  C  Rav=1.4427 sigma=0.0400  Rmin=1.3770  Rmax=1.4834     4

 selected bond angles (degree)
 --------------------
H19-N1-C2=110.85               H20-N1-C2=110.15               H20-N1-H19=108.81              H21-N1-C2=109.96               
H21-N1-H19=108.71              H21-N1-H20=108.30              C3-C2-N1=110.58                H22-C2-N1=109.20               
H22-C2-C3=109.80               H23-C2-N1=109.13               H23-C2-C3=109.62               H23-C2-H22=108.48              
C4-C3-C2=110.71                H24-C3-C2=110.44               H24-C3-C4=108.24               H25-C3-C2=110.20               
H25-C3-C4=108.80               H25-C3-H24=108.37              C5-C4-C3=111.98                H26-C4-C3=110.31               
H26-C4-C5=108.39               H27-C4-C3=109.48               H27-C4-C5=108.42               H27-C4-H26=108.16              
N6-C5-C4=111.25                H28-C5-C4=109.97               H28-C5-N6=108.76               H29-C5-C4=109.36               
H29-C5-N6=109.80               H29-C5-H28=107.63              C7-N6-C5=120.27                C13-N6-C5=121.00               
C13-N6-C7=110.18               C8-C7-N6=102.06                C12-C7-N6=111.90               C12-C7-C8=116.00               
H30-C7-N6=109.14               H30-C7-C8=109.82               H30-C7-C12=107.72              C9-C8-C7= 95.25                
C14-C8-C7=102.41               C14-C8-C9=115.45               H31-C8-C7=112.10               H31-C8-C9=113.86               
H31-C8-C14=115.21              C10-C9-C8=115.32               H32-C9-C8=111.13               H32-C9-C10=115.90              
C11-C10-C9=108.50              H33-C10-C9=121.31              H33-C10-C11=117.37             

 selected dihedral angles (degree)
 ---------------------------------
C3-C2-N1-H19=180.09           C3-C2-N1-H20= 59.61           C3-C2-N1-H21=300.32           H22-C2-N1-H19= 59.17          
H22-C2-N1-H20=298.69          H22-C2-N1-H21=179.40          H23-C2-N1-H19=300.74          H23-C2-N1-H20=180.26          
H23-C2-N1-H21= 60.97          C4-C3-C2-N1=180.13            C4-C3-C2-H22=300.69           C4-C3-C2-H23= 59.77           
H24-C3-C2-N1= 60.26           H24-C3-C2-H22=180.82          H24-C3-C2-H23=299.90          H25-C3-C2-N1=300.55           
H25-C3-C2-H22= 61.11          H25-C3-C2-H23=180.19          C5-C4-C3-C2=185.60            C5-C4-C3-H24=306.78           
C5-C4-C3-H25= 64.35           H26-C4-C3-C2= 64.80           H26-C4-C3-H24=185.98          H26-C4-C3-H25=303.55          
H27-C4-C3-C2=305.89           H27-C4-C3-H24= 67.06          H27-C4-C3-H25=184.64          N6-C5-C4-C3= 65.38            
N6-C5-C4-H26=187.29           N6-C5-C4-H27=304.48           H28-C5-C4-C3=304.82           H28-C5-C4-H26= 66.73          
H28-C5-C4-H27=183.92          H29-C5-C4-C3=186.83           H29-C5-C4-H26=308.74          H29-C5-C4-H27= 65.93          
C7-N6-C5-C4=234.74            C7-N6-C5-H28=356.01           C7-N6-C5-H29=113.54           C13-N6-C5-C4= 89.98           
C13-N6-C5-H28=211.26          C13-N6-C5-H29=328.79          C8-C7-N6-C5=190.07            C8-C7-N6-C13=338.27           
C12-C7-N6-C5= 65.38           C12-C7-N6-C13=213.58          H30-C7-N6-C5=306.26           H30-C7-N6-C13= 94.45          
C9-C8-C7-N6=263.60            C9-C8-C7-C12= 25.51           C9-C8-C7-H30=147.91           C14-C8-C7-N6= 21.12           
C14-C8-C7-C12=143.03          C14-C8-C7-H30=265.43          H31-C8-C7-N6=145.19           H31-C8-C7-C12=267.10          
H31-C8-C7-H30= 29.50          C10-C9-C8-C7=289.84           C10-C9-C8-C14=183.41          C10-C9-C8-H31= 46.83          
H32-C9-C8-C7= 64.33           H32-C9-C8-C14=317.91          H32-C9-C8-H31=181.33          C11-C10-C9-C8= 84.14          
C11-C10-C9-H32=311.84         H33-C10-C9-C8=303.70          H33-C10-C9-H32=171.40         
           -------------------------------------------------
          |                Final Singlepoint                |
           -------------------------------------------------

          ...................................................
          :                      SETUP                      :
          :.................................................:
          :  # basis functions                  93          :
          :  # atomic orbitals                  93          :
          :  # shells                           57          :
          :  # electrons                        94          :
          :  max. iterations                   250          :
          :  Hamiltonian                  GFN2-xTB          :
          :  restarted?                      false          :
          :  GBSA solvation                   true          :
          :  PC potential                    false          :
          :  electronic temp.          300.0000000     K    :
          :  accuracy                    1.0000000          :
          :  -> integral cutoff          0.2500000E+02      :
          :  -> integral neglect         0.1000000E-07      :
          :  -> SCF convergence          0.1000000E-05 Eh   :
          :  -> wf. convergence          0.1000000E-03 e    :
          :  Broyden damping             0.4000000          :
          ...................................................

 iter      E             dE          RMSdq      gap      omega  full diag
   1    -51.1968983 -0.511969E+02  0.396E-05    1.90       0.0  T
   2    -51.1968983 -0.139480E-10  0.270E-05    1.90     592.6  T
   3    -51.1968983 -0.134790E-10  0.144E-05    1.90    1115.0  T

   *** convergence criteria satisfied after 3 iterations ***

         #    Occupation            Energy/Eh            Energy/eV
      -------------------------------------------------------------
         1        2.0000           -0.6908328             -18.7985
       ...           ...                  ...                  ...
        41        2.0000           -0.4276374             -11.6366
        42        2.0000           -0.4164653             -11.3326
        43        2.0000           -0.4141279             -11.2690
        44        2.0000           -0.4065916             -11.0639
        45        2.0000           -0.3926883             -10.6856
        46        2.0000           -0.3452258              -9.3941
        47        2.0000           -0.3374458              -9.1824 (HOMO)
        48                         -0.2676699              -7.2837 (LUMO)
        49                         -0.2139572              -5.8221
        50                         -0.2081515              -5.6641
        51                         -0.2023448              -5.5061
        52                         -0.0831795              -2.2634
       ...                                ...                  ...
        93                          0.6987539              19.0141
      -------------------------------------------------------------
                  HL-Gap            0.0697759 Eh            1.8987 eV
             Fermi-level           -0.3025578 Eh           -8.2330 eV

 SCC (total)                   0 d,  0 h,  0 min,  0.024 sec
 SCC setup                      ...        0 min,  0.000 sec (  1.183%)
 Dispersion                     ...        0 min,  0.000 sec (  1.528%)
 classical contributions        ...        0 min,  0.000 sec (  0.168%)
 integral evaluation            ...        0 min,  0.001 sec (  5.836%)
 iterations                     ...        0 min,  0.017 sec ( 70.405%)
 molecular gradient             ...        0 min,  0.004 sec ( 17.358%)
 printout                       ...        0 min,  0.001 sec (  2.691%)

         :::::::::::::::::::::::::::::::::::::::::::::::::::::
         ::                     SUMMARY                     ::
         :::::::::::::::::::::::::::::::::::::::::::::::::::::
         :: total energy             -50.381044777979 Eh    ::
         :: total w/o Gsasa/hb       -50.368252106744 Eh    ::
         :: gradient norm              0.000588786249 Eh/a0 ::
         :: HOMO-LUMO gap              1.898698779664 eV    ::
         ::.................................................::
         :: SCC energy               -51.196898290470 Eh    ::
         :: -> isotropic ES            0.134641976347 Eh    ::
         :: -> anisotropic ES         -0.011641057079 Eh    ::
         :: -> anisotropic XC          0.033532240642 Eh    ::
         :: -> dispersion             -0.039375122573 Eh    ::
         :: -> Gsolv                  -0.124696441859 Eh    ::
         ::    -> Gelec               -0.111903770625 Eh    ::
         ::    -> Gsasa               -0.002387972588 Eh    ::
         ::    -> Ghb                 -0.011485458345 Eh    ::
         ::    -> Gshift               0.001080759698 Eh    ::
         :: repulsion energy           0.815137688162 Eh    ::
         :: add. restraining           0.000000000000 Eh    ::
         :: total charge               1.000000000000 e     ::
         :::::::::::::::::::::::::::::::::::::::::::::::::::::

           -------------------------------------------------
          |                Property Printout                |
           -------------------------------------------------

    * Orbital Energies and Occupations

         #    Occupation            Energy/Eh            Energy/eV
      -------------------------------------------------------------
         1        2.0000           -0.6908328             -18.7985
       ...           ...                  ...                  ...
        35        2.0000           -0.4598299             -12.5126
        36        2.0000           -0.4519480             -12.2981
        37        2.0000           -0.4473433             -12.1728
        38        2.0000           -0.4419674             -12.0265
        39        2.0000           -0.4363109             -11.8726
        40        2.0000           -0.4320541             -11.7568
        41        2.0000           -0.4276374             -11.6366
        42        2.0000           -0.4164653             -11.3326
        43        2.0000           -0.4141279             -11.2690
        44        2.0000           -0.4065916             -11.0639
        45        2.0000           -0.3926883             -10.6856
        46        2.0000           -0.3452258              -9.3941
        47        2.0000           -0.3374458              -9.1824 (HOMO)
        48                         -0.2676699              -7.2837 (LUMO)
        49                         -0.2139572              -5.8221
        50                         -0.2081515              -5.6641
        51                         -0.2023448              -5.5061
        52                         -0.0831795              -2.2634
        53                         -0.0496599              -1.3513
        54                         -0.0035256              -0.0959
        55                          0.0079871               0.2173
        56                          0.0489064               1.3308
        57                          0.0692700               1.8849
        58                          0.0756365               2.0582
       ...                                ...                  ...
        93                          0.6987539              19.0141
      -------------------------------------------------------------
                  HL-Gap            0.0697759 Eh            1.8987 eV
             Fermi-level           -0.3025578 Eh           -8.2330 eV

     #   Z          covCN         q      C6AA      α(0)
     1   7 N        3.485    -0.162    24.492     7.350
     2   6 C        3.733    -0.038    21.352     6.595
     3   6 C        3.803    -0.084    22.109     6.694
     4   6 C        3.804    -0.076    21.956     6.671
     5   6 C        3.742    -0.004    20.722     6.494
     6   7 N        2.762    -0.113    23.466     7.195
     7   6 C        3.888     0.041    19.834     6.331
     8   6 C        3.894    -0.009    20.692     6.466
     9   6 C        3.016    -0.050    29.225     8.868
    10   6 C        2.957    -0.074    29.857     8.962
    11   6 C        2.947    -0.027    28.684     8.784
    12   6 C        2.946    -0.053    29.305     8.879
    13   6 C        2.980     0.058    26.689     8.474
    14   6 C        3.015    -0.023    28.567     8.767
    15   6 C        2.915    -0.042    29.051     8.838
    16   6 C        2.921    -0.054    29.334     8.882
    17   6 C        2.922    -0.041    29.008     8.832
    18   6 C        2.914    -0.068    29.703     8.937
    19   1 H        0.859     0.316     0.668     1.280
    20   1 H        0.859     0.310     0.685     1.296
    21   1 H        0.859     0.308     0.689     1.300
    22   1 H        0.925     0.109     1.708     2.044
    23   1 H        0.925     0.107     1.721     2.052
    24   1 H        0.924     0.069     2.092     2.262
    25   1 H        0.924     0.069     2.102     2.267
    26   1 H        0.924     0.055     2.261     2.351
    27   1 H        0.924     0.054     2.266     2.354
    28   1 H        0.924     0.054     2.272     2.357
    29   1 H        0.924     0.034     2.537     2.491
    30   1 H        0.922     0.021     2.720     2.579
    31   1 H        0.925     0.034     2.536     2.490
    32   1 H        0.925     0.045     2.385     2.415
    33   1 H        0.925     0.021     2.712     2.575
    34   1 H        0.926     0.059     2.209     2.324
    35   1 H        0.925     0.066     2.135     2.285
    36   1 H        0.926     0.018     2.760     2.598
    37   1 H        0.926     0.013     2.836     2.634
    38   1 H        0.926     0.022     2.696     2.568
    39   1 H        0.926     0.037     2.486     2.466

 Mol. C6AA /au·bohr⁶  :      14647.578455
 Mol. C8AA /au·bohr⁸  :     344781.523619
 Mol. α(0) /au        :        189.009767


Wiberg/Mayer (AO) data.
largest (>0.10) Wiberg bond orders for each atom

 ---------------------------------------------------------------------------
     #   Z sym  total        # sym  WBO       # sym  WBO       # sym  WBO
 ---------------------------------------------------------------------------
     1   7 N    3.653 --     2 C    0.967    21 H    0.890    20 H    0.889
                            19 H    0.887
     2   6 C    3.927 --     3 C    1.011     1 N    0.967    23 H    0.966
                            22 H    0.966
     3   6 C    3.990 --     2 C    1.011     4 C    1.005    25 H    0.972
                            24 H    0.968
     4   6 C    3.992 --     3 C    1.005     5 C    0.996    26 H    0.974
                            27 H    0.973
     5   6 C    3.974 --     4 C    0.996     6 N    0.990    28 H    0.969
                            29 H    0.967
     6   7 N    3.370 --    13 C    1.146     5 C    0.990     7 C    0.972
     7   6 C    3.976 --    12 C    1.020     6 N    0.972    30 H    0.948
                             8 C    0.898
     8   6 C    3.991 --     9 C    1.030    14 C    1.006    31 H    0.963
                             7 C    0.898
     9   6 C    3.960 --    10 C    1.746     8 C    1.030    32 H    0.962
                            12 C    0.115
    10   6 C    3.948 --     9 C    1.746    11 C    1.121    33 H    0.946
    11   6 C    3.978 --    12 C    1.807    10 C    1.121    34 H    0.959
    12   6 C    3.982 --    11 C    1.807     7 C    1.020    35 H    0.955
                             9 C    0.115
    13   6 C    3.977 --    18 C    1.366    14 C    1.291     6 N    1.146
    14   6 C    3.984 --    15 C    1.464    13 C    1.291     8 C    1.006
                            17 C    0.101
    15   6 C    3.991 --    14 C    1.464    16 C    1.400    36 H    0.970
    16   6 C    3.987 --    17 C    1.449    15 C    1.400    37 H    0.972
    17   6 C    3.991 --    16 C    1.449    18 C    1.431    38 H    0.972
                            14 C    0.101
    18   6 C    3.984 --    17 C    1.431    13 C    1.366    39 H    0.966
    19   1 H    0.900 --     1 N    0.887
    20   1 H    0.904 --     1 N    0.889
    21   1 H    0.905 --     1 N    0.890
    22   1 H    0.988 --     2 C    0.966
    23   1 H    0.989 --     2 C    0.966
    24   1 H    0.995 --     3 C    0.968
    25   1 H    0.995 --     3 C    0.972
    26   1 H    0.996 --     4 C    0.974
    27   1 H    0.997 --     4 C    0.973
    28   1 H    0.996 --     5 C    0.969
    29   1 H    0.998 --     5 C    0.967
    30   1 H    1.000 --     7 C    0.948
    31   1 H    0.999 --     8 C    0.963
    32   1 H    0.998 --     9 C    0.962
    33   1 H    0.999 --    10 C    0.946
    34   1 H    0.995 --    11 C    0.959
    35   1 H    0.995 --    12 C    0.955
    36   1 H    0.999 --    15 C    0.970
    37   1 H    0.999 --    16 C    0.972
    38   1 H    0.999 --    17 C    0.972
    39   1 H    0.998 --    18 C    0.966
 ---------------------------------------------------------------------------

Topologies differ in total number of bonds
Writing topology from bond orders to xtbtopo.mol

molecular dipole:
                 x           y           z       tot (Debye)
 q only:       29.148       0.758      -2.712
   full:       28.976       0.368      -2.882      74.020
molecular quadrupole (traceless):
                xx          xy          yy          xz          yz          zz
 q only:      826.116      23.671    -415.122    -128.186      -3.829    -410.994
  q+dip:      817.928      12.699    -409.681    -130.887      -1.405    -408.246
   full:      816.477      12.637    -408.057    -131.070       0.453    -408.421

           -------------------------------------------------
          |                Geometry Summary                 |
           -------------------------------------------------

      molecular mass/u    :      241.3519366
   center of mass at/Å    :       11.4513350      -2.4937682      -3.2783588
  moments of inertia/u·Å² :        0.9010483E+03   0.1553073E+04   0.2082925E+04
rotational constants/cm⁻¹ :        0.1870891E-01   0.1085437E-01   0.8093251E-02

 * 38 selected distances

     #   Z          #   Z                                           value/Å
     1   7 N        2   6 C                                       1.4834238
     2   6 C        3   6 C                                       1.5240220
     3   6 C        4   6 C                                       1.5274544
     4   6 C        5   6 C                                       1.5329390 (max)
     5   6 C        6   7 N                                       1.4472619
     6   7 N        7   6 C                                       1.4629658
     8   6 C        9   6 C                                       1.4816154
     9   6 C       10   6 C                                       1.3734809
    11   6 C       12   6 C                                       1.3498268
     6   7 N       13   6 C                                       1.3769992
     8   6 C       14   6 C                                       1.4921958
    13   6 C       14   6 C                                       1.4020221
    14   6 C       15   6 C                                       1.3740598
    15   6 C       16   6 C                                       1.3915862
    16   6 C       17   6 C                                       1.3839596
    13   6 C       18   6 C                                       1.3875630
    17   6 C       18   6 C                                       1.3876957
     1   7 N       19   1 H                                       1.0263313 (min)
     1   7 N       20   1 H                                       1.0268715
     1   7 N       21   1 H                                       1.0267259
     2   6 C       22   1 H                                       1.0898255
     2   6 C       23   1 H                                       1.0896578
     3   6 C       24   1 H                                       1.0908761
     3   6 C       25   1 H                                       1.0905330
     4   6 C       26   1 H                                       1.0906169
     4   6 C       27   1 H                                       1.0903572
     5   6 C       28   1 H                                       1.0914553
     5   6 C       29   1 H                                       1.0972986
     7   6 C       30   1 H                                       1.1067682
     8   6 C       31   1 H                                       1.0895452
     9   6 C       32   1 H                                       1.0876304
    10   6 C       33   1 H                                       1.0834301
    11   6 C       34   1 H                                       1.0800163
    12   6 C       35   1 H                                       1.0815880
    15   6 C       36   1 H                                       1.0804087
    16   6 C       37   1 H                                       1.0797364
    17   6 C       38   1 H                                       1.0806065
    18   6 C       39   1 H                                       1.0780960

 * 4 distinct bonds (by element types)

   Z      Z             #   av. dist./Å        max./Å        min./Å
   1 H    6 C          18     1.0876915     1.1067682     1.0780960
   6 C    6 C          13     1.4314170     1.5329390     1.3498268
   1 H    7 N           3     1.0266429     1.0268715     1.0263313
   6 C    7 N           4     1.4426627     1.4834238     1.3769992


optimized geometry written to: xtbopt.xyz


           -------------------------------------------------
          | TOTAL ENERGY              -50.381044777979 Eh   |
          | GRADIENT NORM               0.000588786249 Eh/α |
          | HOMO-LUMO GAP               1.898698779664 eV   |
           -------------------------------------------------

------------------------------------------------------------------------
 * finished run on 2023/01/24 at 16:43:57.089     
------------------------------------------------------------------------
 total:
 * wall-time:     0 d,  0 h,  0 min,  1.880 sec
 *  cpu-time:     0 d,  0 h,  3 min, 32.531 sec
 * ratio c/w:   113.049 speedup
 SCF:
 * wall-time:     0 d,  0 h,  0 min,  0.085 sec
 *  cpu-time:     0 d,  0 h,  0 min, 12.064 sec
 * ratio c/w:   142.034 speedup
 ANC optimizer:
 * wall-time:     0 d,  0 h,  0 min,  1.777 sec
 *  cpu-time:     0 d,  0 h,  3 min, 18.222 sec
 * ratio c/w:   111.520 speedup

