      -----------------------------------------------------------      
     |                   =====================                   |     
     |                           x T B                           |     
     |                   =====================                   |     
     |                         S. Grimme                         |     
     |          Mulliken Center for Theoretical Chemistry        |     
     |                    University of Bonn                     |     
      -----------------------------------------------------------      

   * xtb version 6.5.1 (fef0646) compiled by 'conda@b96dff2e9fd6' on 2023-01-04

   xtb is free software: you can redistribute it and/or modify it under
   the terms of the GNU Lesser General Public License as published by
   the Free Software Foundation, either version 3 of the License, or
   (at your option) any later version.
   
   xtb is distributed in the hope that it will be useful,
   but WITHOUT ANY WARRANTY; without even the implied warranty of
   MERCHANTABILITY or FITNESS FOR A PARTICULAR PURPOSE.  See the
   GNU Lesser General Public License for more details.
   
   Cite this work as:
   * C. Bannwarth, E. Caldeweyher, S. Ehlert, A. Hansen, P. Pracht,
     J. Seibert, S. Spicher, S. Grimme, WIREs Comput. Mol. Sci., 2020, 11,
     e01493. DOI: 10.1002/wcms.1493
   
   for GFN2-xTB:
   * C. Bannwarth, S. Ehlert and S. Grimme., J. Chem. Theory Comput., 2019,
     15, 1652-1671. DOI: 10.1021/acs.jctc.8b01176
   for GFN1-xTB:
   * S. Grimme, C. Bannwarth, P. Shushkov, J. Chem. Theory Comput., 2017,
     13, 1989-2009. DOI: 10.1021/acs.jctc.7b00118
   for GFN0-xTB:
   * P. Pracht, E. Caldeweyher, S. Ehlert, S. Grimme, ChemRxiv, 2019, preprint.
     DOI: 10.26434/chemrxiv.8326202.v1
   for GFN-FF:
   * S. Spicher and S. Grimme, Angew. Chem. Int. Ed., 2020, 59, 15665-15673.
     DOI: 10.1002/anie.202004239
   
   for ALPB and GBSA implicit solvation:
   * S. Ehlert, M. Stahn, S. Spicher, S. Grimme, J. Chem. Theory Comput.,
     2021, 17, 4250-4261. DOI: 10.1021/acs.jctc.1c00471
   
   for DFT-D4:
   * E. Caldeweyher, C. Bannwarth and S. Grimme, J. Chem. Phys., 2017,
     147, 034112. DOI: 10.1063/1.4993215
   * E. Caldeweyher, S. Ehlert, A. Hansen, H. Neugebauer, S. Spicher,
     C. Bannwarth and S. Grimme, J. Chem. Phys., 2019, 150, 154122.
     DOI: 10.1063/1.5090222
   * E. Caldeweyher, J.-M. Mewes, S. Ehlert and S. Grimme, Phys. Chem. Chem. Phys.
     2020, 22, 8499-8512. DOI: 10.1039/D0CP00502A
   
   for sTDA-xTB:
   * S. Grimme and C. Bannwarth, J. Chem. Phys., 2016, 145, 054103.
     DOI: 10.1063/1.4959605
   
   in the mass-spec context:
   * V. Asgeirsson, C. Bauer and S. Grimme, Chem. Sci., 2017, 8, 4879.
     DOI: 10.1039/c7sc00601b
   * J. Koopman and S. Grimme, ACS Omega 2019, 4, 12, 15120-15133.
     DOI: 10.1021/acsomega.9b02011
   
   for metadynamics refer to:
   * S. Grimme, J. Chem. Theory Comput., 2019, 155, 2847-2862
     DOI: 10.1021/acs.jctc.9b00143
   
   for SPH calculations refer to:
   * S. Spicher and S. Grimme, J. Chem. Theory Comput., 2021, 17, 1701-1714
     DOI: 10.1021/acs.jctc.0c01306
   
   with help from (in alphabetical order)
   P. Atkinson, C. Bannwarth, F. Bohle, G. Brandenburg, E. Caldeweyher
   M. Checinski, S. Dohm, S. Ehlert, S. Ehrlich, I. Gerasimov, C. Hölzer
   A. Katbashev, J. Koopman, C. Lavigne, S. Lehtola, F. März, M. Müller,
   F. Musil, H. Neugebauer, J. Pisarek, C. Plett, P. Pracht, F. Pultar,
   J. Seibert, P. Shushkov, S. Spicher, M. Stahn, M. Steiner, T. Strunk,
   J. Stückrath, T. Rose, and J. Unsleber
   
 * started run on 2023/01/23 at 20:49:24.349     

           -------------------------------------------------
          |                Calculation Setup                |
           -------------------------------------------------

          program call               : xtb init.xyz --opt -c 1 -u 0 -P 16 --input xtb.inp
          hostname                   : gpg-woodward
          coordinate file            : init.xyz
          omp threads                :                    16

   ID    Z sym.   atoms
    1    7 N      1, 6
    2    6 C      2-5, 7-18
    3    1 H      19-39

           -------------------------------------------------
          |                 G F N 2 - x T B                 |
           -------------------------------------------------

        Reference                      10.1021/acs.jctc.8b01176
      * Hamiltonian:
        H0-scaling (s, p, d)           1.850000    2.230000    2.230000
        zeta-weighting                 0.500000
      * Dispersion:
        s8                             2.700000
        a1                             0.520000
        a2                             5.000000
        s9                             5.000000
      * Repulsion:
        kExp                           1.500000    1.000000
        rExp                           1.000000
      * Coulomb:
        alpha                          2.000000
        third order                    shell-resolved
        anisotropic                    true
        a3                             3.000000
        a5                             4.000000
        cn-shift                       1.200000
        cn-exp                         4.000000
        max-rad                        5.000000


          ...................................................
          :                      SETUP                      :
          :.................................................:
          :  # basis functions                  93          :
          :  # atomic orbitals                  93          :
          :  # shells                           57          :
          :  # electrons                        94          :
          :  max. iterations                   250          :
          :  Hamiltonian                  GFN2-xTB          :
          :  restarted?                      false          :
          :  GBSA solvation                  false          :
          :  PC potential                    false          :
          :  electronic temp.          300.0000000     K    :
          :  accuracy                    1.0000000          :
          :  -> integral cutoff          0.2500000E+02      :
          :  -> integral neglect         0.1000000E-07      :
          :  -> SCF convergence          0.1000000E-05 Eh   :
          :  -> wf. convergence          0.1000000E-03 e    :
          :  Broyden damping             0.4000000          :
          ...................................................

 iter      E             dE          RMSdq      gap      omega  full diag
   1    -50.7140670 -0.507141E+02  0.404E+00    1.64       0.0  T
   2    -50.8388623 -0.124795E+00  0.249E+00    1.67       1.0  T
   3    -50.7778748  0.609875E-01  0.181E+00    1.75       1.0  T
   4    -50.8040094 -0.261345E-01  0.137E+00    1.72       1.0  T
   5    -50.8546095 -0.506002E-01  0.266E-01    1.60       1.0  T
   6    -50.8562352 -0.162569E-02  0.931E-02    1.60       1.0  T
   7    -50.8562485 -0.132479E-04  0.648E-02    1.60       1.0  T
   8    -50.8562984 -0.499625E-04  0.320E-02    1.60       1.0  T
   9    -50.8563264 -0.280131E-04  0.447E-03    1.60       3.6  T
  10    -50.8563267 -0.204490E-06  0.223E-03    1.60       7.2  T
  11    -50.8563267 -0.345340E-07  0.866E-04    1.60      18.5  T
  12    -50.8563267 -0.858024E-08  0.307E-04    1.60      52.2  T

   *** convergence criteria satisfied after 12 iterations ***

         #    Occupation            Energy/Eh            Energy/eV
      -------------------------------------------------------------
         1        2.0000           -0.8985746             -24.4515
       ...           ...                  ...                  ...
        41        2.0000           -0.4914219             -13.3723
        42        2.0000           -0.4879286             -13.2772
        43        2.0000           -0.4837265             -13.1629
        44        2.0000           -0.4690365             -12.7631
        45        2.0000           -0.4596448             -12.5076
        46        2.0000           -0.4245252             -11.5519
        47        2.0000           -0.4000584             -10.8861 (HOMO)
        48                         -0.3411295              -9.2826 (LUMO)
        49                         -0.3147127              -8.5638
        50                         -0.2864122              -7.7937
        51                         -0.2753985              -7.4940
        52                         -0.2621155              -7.1325
       ...                                ...                  ...
        93                          0.5682532              15.4630
      -------------------------------------------------------------
                  HL-Gap            0.0589289 Eh            1.6035 eV
             Fermi-level           -0.3705940 Eh          -10.0844 eV

 SCC (total)                   0 d,  0 h,  0 min,  0.160 sec
 SCC setup                      ...        0 min,  0.001 sec (  0.498%)
 Dispersion                     ...        0 min,  0.001 sec (  0.805%)
 classical contributions        ...        0 min,  0.000 sec (  0.207%)
 integral evaluation            ...        0 min,  0.006 sec (  3.983%)
 iterations                     ...        0 min,  0.137 sec ( 85.670%)
 molecular gradient             ...        0 min,  0.013 sec (  8.198%)
 printout                       ...        0 min,  0.001 sec (  0.529%)

         :::::::::::::::::::::::::::::::::::::::::::::::::::::
         ::                     SUMMARY                     ::
         :::::::::::::::::::::::::::::::::::::::::::::::::::::
         :: total energy             -50.118735658267 Eh    ::
         :: gradient norm              0.129874609444 Eh/a0 ::
         :: HOMO-LUMO gap              1.603536580385 eV    ::
         ::.................................................::
         :: SCC energy               -50.856326695093 Eh    ::
         :: -> isotropic ES            0.117515927460 Eh    ::
         :: -> anisotropic ES         -0.005391175480 Eh    ::
         :: -> anisotropic XC          0.037067707619 Eh    ::
         :: -> dispersion             -0.036924334480 Eh    ::
         :: repulsion energy           0.736985995878 Eh    ::
         :: add. restraining           0.000000000000 Eh    ::
         :: total charge               1.000000000000 e     ::
         :::::::::::::::::::::::::::::::::::::::::::::::::::::

      ----------------------------------------------------------- 
     |                   =====================                   |
     |                        A N C O P T                        |
     |                   =====================                   |
     |               Approximate Normal Coordinate               |
     |                Rational Function Optimizer                |
      ----------------------------------------------------------- 

          ...................................................
          :                      SETUP                      :
          :.................................................:
          :   optimization level            normal          :
          :   max. optcycles                   200          :
          :   ANC micro-cycles                  20          :
          :   degrees of freedom               111          :
          :.................................................:
          :   RF solver                   davidson          :
          :   write xtbopt.log                true          :
          :   linear?                        false          :
          :   energy convergence         0.5000000E-05 Eh   :
          :   grad. convergence          0.1000000E-02 Eh/α :
          :   maximium RF displ.         1.0000000          :
          :   Hlow (freq-cutoff)         0.1000000E-01      :
          :   Hmax (freq-cutoff)         5.0000000          :
          :   S6 in model hess.         20.0000000          :
          ...................................................

generating ANC from model Hessian ...
Using Lindh-Hessian (1995)
 Shifting diagonal of input Hessian by    9.6346323521655040E-003
 Lowest  eigenvalues of input Hessian
    0.000000    0.000000    0.000000    0.000000    0.000000    0.000000
    0.010000    0.010013    0.011053    0.011331    0.012031    0.012726
    0.013243    0.014163    0.015434    0.016988    0.018361    0.020940
 Highest eigenvalues
    1.618282    1.622005    1.718617    1.828593    1.926363    1.970852


........................................................................
.............................. CYCLE    1 ..............................
........................................................................
   1    -50.8563267 -0.508563E+02  0.145E-04    1.60       0.0  T
   2    -50.8563267  0.170402E-09  0.125E-04    1.60     127.8  T
   3    -50.8563267 -0.282213E-09  0.948E-05    1.60     169.0  T
     SCC iter.                  ...        0 min,  0.033 sec
     gradient                   ...        0 min,  0.009 sec
 * total energy  :   -50.1187357 Eh     change       -0.1129330E-08 Eh
   gradient norm :     0.1298743 Eh/α   predicted     0.0000000E+00 (-100.00%)
   displ. norm   :     0.6347664 α      lambda       -0.6347489E-01
   maximum displ.:     0.2449799 α      in ANC's #30, #44, #8, ...

........................................................................
.............................. CYCLE    2 ..............................
........................................................................
   1    -50.9325627 -0.509326E+02  0.480E-01    1.82       0.0  T
   2    -50.9295270  0.303570E-02  0.475E-01    1.83       1.0  T
   3    -50.9334807 -0.395371E-02  0.264E-01    1.83       1.0  T
   4    -50.9346090 -0.112824E-02  0.889E-02    1.82       1.0  T
   5    -50.9347744 -0.165411E-03  0.332E-02    1.82       1.0  T
   6    -50.9348083 -0.339014E-04  0.106E-02    1.82       1.5  T
   7    -50.9348096 -0.128769E-05  0.412E-03    1.82       3.9  T
   8    -50.9348099 -0.285811E-06  0.166E-03    1.82       9.6  T
   9    -50.9348099 -0.346515E-07  0.563E-04    1.82      28.4  T
  10    -50.9348099 -0.258036E-08  0.259E-04    1.82      61.9  T
     SCC iter.                  ...        0 min,  0.041 sec
     gradient                   ...        0 min,  0.008 sec
 * total energy  :   -50.1708172 Eh     change       -0.5208158E-01 Eh
   gradient norm :     0.0896003 Eh/α   predicted    -0.4452880E-01 ( -14.50%)
   displ. norm   :     0.7397551 α      lambda       -0.5536326E-01
   maximum displ.:     0.2371238 α      in ANC's #44, #50, #68, ...

........................................................................
.............................. CYCLE    3 ..............................
........................................................................
   1    -51.0070671 -0.510071E+02  0.500E-01    1.94       0.0  T
   2    -51.0049577  0.210939E-02  0.430E-01    1.94       1.0  T
   3    -51.0060899 -0.113214E-02  0.319E-01    1.94       1.0  T
   4    -51.0084444 -0.235456E-02  0.697E-02    1.94       1.0  T
   5    -51.0085453 -0.100877E-03  0.222E-02    1.94       1.0  T
   6    -51.0085555 -0.102397E-04  0.143E-02    1.94       1.1  T
   7    -51.0085601 -0.451865E-05  0.422E-03    1.94       3.8  T
   8    -51.0085603 -0.191828E-06  0.201E-03    1.94       8.0  T
   9    -51.0085603 -0.754859E-07  0.571E-04    1.94      28.0  T
  10    -51.0085603 -0.175194E-08  0.253E-04    1.94      63.2  T
     SCC iter.                  ...        0 min,  0.042 sec
     gradient                   ...        0 min,  0.009 sec
 * total energy  :   -50.2131441 Eh     change       -0.4232688E-01 Eh
   gradient norm :     0.0859057 Eh/α   predicted    -0.4283007E-01 (   1.19%)
   displ. norm   :     0.6377156 α      lambda       -0.2912238E-01
   maximum displ.:     0.2435468 α      in ANC's #8, #44, #50, ...

........................................................................
.............................. CYCLE    4 ..............................
........................................................................
   1    -51.0339364 -0.510339E+02  0.402E-01    1.90       0.0  T
   2    -51.0340144 -0.779679E-04  0.242E-01    1.91       1.0  T
   3    -51.0328567  0.115764E-02  0.195E-01    1.91       1.0  T
   4    -51.0340130 -0.115629E-02  0.570E-02    1.91       1.0  T
   5    -51.0341084 -0.954022E-04  0.187E-02    1.92       1.0  T
   6    -51.0341205 -0.120539E-04  0.733E-03    1.92       2.2  T
   7    -51.0341214 -0.926331E-06  0.233E-03    1.92       6.9  T
   8    -51.0341215 -0.112830E-06  0.884E-04    1.92      18.1  T
   9    -51.0341215 -0.155968E-07  0.267E-04    1.92      60.1  T
     SCC iter.                  ...        0 min,  0.036 sec
     gradient                   ...        0 min,  0.008 sec
 * total energy  :   -50.2338715 Eh     change       -0.2072738E-01 Eh
   gradient norm :     0.0661580 Eh/α   predicted    -0.2048296E-01 (  -1.18%)
   displ. norm   :     0.5461693 α      lambda       -0.1585796E-01
   maximum displ.:     0.2946987 α      in ANC's #8, #13, #21, ...

........................................................................
.............................. CYCLE    5 ..............................
........................................................................
   1    -51.0534818 -0.510535E+02  0.268E-01    1.94       0.0  T
   2    -51.0533811  0.100660E-03  0.167E-01    1.94       1.0  T
   3    -51.0518840  0.149713E-02  0.227E-01    1.95       1.0  T
   4    -51.0535635 -0.167948E-02  0.123E-02    1.94       1.3  T
   5    -51.0535669 -0.339253E-05  0.618E-03    1.94       2.6  T
   6    -51.0535679 -0.994960E-06  0.286E-03    1.94       5.6  T
   7    -51.0535680 -0.111177E-06  0.108E-03    1.94      14.8  T
   8    -51.0535680 -0.220253E-07  0.351E-04    1.94      45.6  T
   9    -51.0535680 -0.151459E-08  0.128E-04    1.94     124.8  T
     SCC iter.                  ...        0 min,  0.036 sec
     gradient                   ...        0 min,  0.008 sec
 * total energy  :   -50.2454883 Eh     change       -0.1161678E-01 Eh
   gradient norm :     0.0398865 Eh/α   predicted    -0.1029423E-01 ( -11.38%)
   displ. norm   :     0.5255905 α      lambda       -0.9653634E-02
   maximum displ.:     0.3281174 α      in ANC's #8, #13, #7, ...

........................................................................
.............................. CYCLE    6 ..............................
........................................................................
   1    -51.0601390 -0.510601E+02  0.246E-01    1.92       0.0  T
   2    -51.0600375  0.101486E-03  0.159E-01    1.92       1.0  T
   3    -51.0586829  0.135466E-02  0.211E-01    1.92       1.0  T
   4    -51.0601973 -0.151445E-02  0.131E-02    1.92       1.2  T
   5    -51.0602031 -0.573546E-05  0.470E-03    1.92       3.4  T
   6    -51.0602035 -0.480704E-06  0.261E-03    1.92       6.1  T
   7    -51.0602036 -0.958715E-07  0.104E-03    1.92      15.3  T
   8    -51.0602037 -0.186754E-07  0.306E-04    1.92      52.4  T
   9    -51.0602037 -0.213056E-08  0.122E-04    1.92     131.4  T
     SCC iter.                  ...        0 min,  0.036 sec
     gradient                   ...        0 min,  0.009 sec
 * total energy  :   -50.2514956 Eh     change       -0.6007328E-02 Eh
   gradient norm :     0.0244995 Eh/α   predicted    -0.6160206E-02 (   2.54%)
   displ. norm   :     0.5346523 α      lambda       -0.5666210E-02
   maximum displ.:     0.3196293 α      in ANC's #8, #5, #6, ...

........................................................................
.............................. CYCLE    7 ..............................
........................................................................
   1    -51.0661324 -0.510661E+02  0.205E-01    1.94       0.0  T
   2    -51.0661056  0.268851E-04  0.132E-01    1.94       1.0  T
   3    -51.0654555  0.650074E-03  0.143E-01    1.95       1.0  T
   4    -51.0661269 -0.671427E-03  0.440E-02    1.94       1.0  T
   5    -51.0661964 -0.695034E-04  0.558E-03    1.94       2.9  T
   6    -51.0661968 -0.430763E-06  0.244E-03    1.94       6.6  T
   7    -51.0661969 -0.386097E-07  0.103E-03    1.94      15.5  T
   8    -51.0661969 -0.263262E-07  0.300E-04    1.94      53.5  T
   9    -51.0661969 -0.745729E-09  0.121E-04    1.94     132.7  T
     SCC iter.                  ...        0 min,  0.036 sec
     gradient                   ...        0 min,  0.009 sec
 * total energy  :   -50.2541154 Eh     change       -0.2619800E-02 Eh
   gradient norm :     0.0366113 Eh/α   predicted    -0.3642957E-02 (  39.05%)
   displ. norm   :     0.3084645 α      lambda       -0.2761010E-02
   maximum displ.:     0.1873194 α      in ANC's #8, #6, #5, ...

........................................................................
.............................. CYCLE    8 ..............................
........................................................................
   1    -51.0675421 -0.510675E+02  0.121E-01    1.94       0.0  T
   2    -51.0674954  0.466862E-04  0.832E-02    1.94       1.0  T
   3    -51.0672492  0.246125E-03  0.101E-01    1.95       1.0  T
   4    -51.0675724 -0.323124E-03  0.148E-02    1.94       1.1  T
   5    -51.0675786 -0.623773E-05  0.438E-03    1.94       3.7  T
   6    -51.0675793 -0.646040E-06  0.147E-03    1.94      10.9  T
   7    -51.0675793 -0.236106E-07  0.604E-04    1.94      26.5  T
   8    -51.0675793 -0.273006E-08  0.250E-04    1.94      64.0  T
     SCC iter.                  ...        0 min,  0.033 sec
     gradient                   ...        0 min,  0.008 sec
 * total energy  :   -50.2557565 Eh     change       -0.1641045E-02 Eh
   gradient norm :     0.0145225 Eh/α   predicted    -0.1511863E-02 (  -7.87%)
   displ. norm   :     0.4067641 α      lambda       -0.2027426E-02
   maximum displ.:     0.2188146 α      in ANC's #8, #6, #5, ...

........................................................................
.............................. CYCLE    9 ..............................
........................................................................
   1    -51.0638564 -0.510639E+02  0.188E-01    1.94       0.0  T
   2    -51.0637885  0.678588E-04  0.123E-01    1.94       1.0  T
   3    -51.0629633  0.825225E-03  0.164E-01    1.94       1.0  T
   4    -51.0638892 -0.925890E-03  0.873E-03    1.94       1.8  T
   5    -51.0638917 -0.247327E-05  0.355E-03    1.94       4.5  T
   6    -51.0638918 -0.149688E-06  0.188E-03    1.94       8.5  T
   7    -51.0638919 -0.571252E-07  0.625E-04    1.94      25.6  T
   8    -51.0638919 -0.838167E-08  0.221E-04    1.94      72.5  T
     SCC iter.                  ...        0 min,  0.031 sec
     gradient                   ...        0 min,  0.009 sec
 * total energy  :   -50.2566640 Eh     change       -0.9075083E-03 Eh
   gradient norm :     0.0202109 Eh/α   predicted    -0.1181440E-02 (  30.19%)
   displ. norm   :     0.2850648 α      lambda       -0.1114591E-02
   maximum displ.:     0.1738057 α      in ANC's #6, #5, #4, ...

........................................................................
.............................. CYCLE   10 ..............................
........................................................................
   1    -51.0672798 -0.510673E+02  0.107E-01    1.95       0.0  T
   2    -51.0672749  0.487730E-05  0.647E-02    1.95       1.0  T
   3    -51.0670978  0.177132E-03  0.700E-02    1.95       1.0  T
   4    -51.0672809 -0.183070E-03  0.118E-02    1.95       1.4  T
   5    -51.0672855 -0.469120E-05  0.134E-03    1.95      11.9  T
   6    -51.0672856 -0.245020E-07  0.723E-04    1.95      22.1  T
   7    -51.0672856 -0.330454E-08  0.275E-04    1.95      58.2  T
     SCC iter.                  ...        0 min,  0.028 sec
     gradient                   ...        0 min,  0.008 sec
 * total energy  :   -50.2574919 Eh     change       -0.8279191E-03 Eh
   gradient norm :     0.0116697 Eh/α   predicted    -0.6025838E-03 ( -27.22%)
   displ. norm   :     0.4115162 α      lambda       -0.1104904E-02
   maximum displ.:     0.2365447 α      in ANC's #6, #5, #4, ...

........................................................................
.............................. CYCLE   11 ..............................
........................................................................
   1    -51.0705522 -0.510706E+02  0.158E-01    1.98       0.0  T
   2    -51.0705528 -0.617075E-06  0.932E-02    1.98       1.0  T
   3    -51.0704568  0.959488E-04  0.509E-02    1.98       1.0  T
   4    -51.0705542 -0.973925E-04  0.102E-02    1.98       1.6  T
   5    -51.0705575 -0.326806E-05  0.274E-03    1.98       5.8  T
   6    -51.0705576 -0.105907E-06  0.119E-03    1.98      13.5  T
   7    -51.0705576 -0.236530E-07  0.278E-04    1.98      57.6  T
   8    -51.0705576 -0.137990E-08  0.138E-04    1.98     115.7  T
     SCC iter.                  ...        0 min,  0.031 sec
     gradient                   ...        0 min,  0.008 sec
 * total energy  :   -50.2582783 Eh     change       -0.7863968E-03 Eh
   gradient norm :     0.0139055 Eh/α   predicted    -0.6460085E-03 ( -17.85%)
   displ. norm   :     0.4901018 α      lambda       -0.9161702E-03
   maximum displ.:     0.2790433 α      in ANC's #6, #5, #4, ...

........................................................................
.............................. CYCLE   12 ..............................
........................................................................
   1    -51.0680868 -0.510681E+02  0.185E-01    1.99       0.0  T
   2    -51.0680903 -0.348177E-05  0.109E-01    1.99       1.0  T
   3    -51.0680740  0.162348E-04  0.230E-02    1.99       1.0  T
   4    -51.0680917 -0.176711E-04  0.582E-03    1.99       2.8  T
   5    -51.0680921 -0.419849E-06  0.384E-03    1.99       4.2  T
   6    -51.0680925 -0.389154E-06  0.146E-03    1.99      11.0  T
   7    -51.0680926 -0.511204E-07  0.422E-04    1.99      37.9  T
   8    -51.0680926 -0.477889E-08  0.155E-04    1.99     103.2  T
     SCC iter.                  ...        0 min,  0.032 sec
     gradient                   ...        0 min,  0.008 sec
 * total energy  :   -50.2589609 Eh     change       -0.6826295E-03 Eh
   gradient norm :     0.0181411 Eh/α   predicted    -0.5681177E-03 ( -16.78%)
   displ. norm   :     0.4904911 α      lambda       -0.1059708E-02
   maximum displ.:     0.2455785 α      in ANC's #6, #5, #4, ...

........................................................................
.............................. CYCLE   13 ..............................
........................................................................
   1    -51.0692106 -0.510692E+02  0.193E-01    2.00       0.0  T
   2    -51.0692107 -0.395280E-08  0.114E-01    2.00       1.0  T
   3    -51.0689453  0.265323E-03  0.868E-02    2.00       1.0  T
   4    -51.0692184 -0.273099E-03  0.118E-02    2.00       1.4  T
   5    -51.0692226 -0.416272E-05  0.319E-03    2.00       5.0  T
   6    -51.0692227 -0.826821E-07  0.111E-03    2.00      14.5  T
   7    -51.0692227 -0.116571E-07  0.343E-04    2.00      46.7  T
   8    -51.0692227 -0.170359E-08  0.180E-04    2.00      89.1  T
     SCC iter.                  ...        0 min,  0.031 sec
     gradient                   ...        0 min,  0.009 sec
 * total energy  :   -50.2597799 Eh     change       -0.8189599E-03 Eh
   gradient norm :     0.0191709 Eh/α   predicted    -0.6573319E-03 ( -19.74%)
   displ. norm   :     0.4717961 α      lambda       -0.1190717E-02
   maximum displ.:     0.2121111 α      in ANC's #6, #5, #2, ...

........................................................................
.............................. CYCLE   14 ..............................
........................................................................
   1    -51.0695204 -0.510695E+02  0.183E-01    1.98       0.0  T
   2    -51.0695291 -0.878439E-05  0.108E-01    1.98       1.0  T
   3    -51.0694062  0.122902E-03  0.608E-02    1.99       1.0  T
   4    -51.0695258 -0.119521E-03  0.177E-02    1.98       1.0  T
   5    -51.0695366 -0.108001E-04  0.336E-03    1.98       4.8  T
   6    -51.0695368 -0.190375E-06  0.149E-03    1.98      10.7  T
   7    -51.0695368 -0.437428E-08  0.748E-04    1.98      21.4  T
   8    -51.0695368 -0.175078E-07  0.247E-04    1.98      64.8  T
     SCC iter.                  ...        0 min,  0.031 sec
     gradient                   ...        0 min,  0.008 sec
 * total energy  :   -50.2606862 Eh     change       -0.9063398E-03 Eh
   gradient norm :     0.0127032 Eh/α   predicted    -0.7278866E-03 ( -19.69%)
   displ. norm   :     0.4961993 α      lambda       -0.9460880E-03
   maximum displ.:     0.2102410 α      in ANC's #6, #2, #5, ...

........................................................................
.............................. CYCLE   15 ..............................
........................................................................
   1    -51.0693620 -0.510694E+02  0.191E-01    1.96       0.0  T
   2    -51.0693668 -0.471890E-05  0.114E-01    1.96       1.0  T
   3    -51.0691686  0.198118E-03  0.759E-02    1.96       1.0  T
   4    -51.0693701 -0.201470E-03  0.132E-02    1.96       1.2  T
   5    -51.0693758 -0.573617E-05  0.287E-03    1.96       5.6  T
   6    -51.0693760 -0.120026E-06  0.142E-03    1.96      11.3  T
   7    -51.0693760 -0.116764E-07  0.740E-04    1.96      21.6  T
   8    -51.0693760 -0.153191E-07  0.228E-04    1.96      70.2  T
     SCC iter.                  ...        0 min,  0.031 sec
     gradient                   ...        0 min,  0.008 sec
 * total energy  :   -50.2613949 Eh     change       -0.7086668E-03 Eh
   gradient norm :     0.0102613 Eh/α   predicted    -0.5895177E-03 ( -16.81%)
   displ. norm   :     0.4615351 α      lambda       -0.7636137E-03
   maximum displ.:     0.2235572 α      in ANC's #2, #6, #7, ...

........................................................................
.............................. CYCLE   16 ..............................
........................................................................
   1    -51.0724388 -0.510724E+02  0.179E-01    1.94       0.0  T
   2    -51.0724373  0.152975E-05  0.109E-01    1.95       1.0  T
   3    -51.0720653  0.372020E-03  0.105E-01    1.95       1.0  T
   4    -51.0724519 -0.386675E-03  0.991E-03    1.95       1.6  T
   5    -51.0724548 -0.289149E-05  0.367E-03    1.95       4.4  T
   6    -51.0724551 -0.290792E-06  0.190E-03    1.95       8.4  T
   7    -51.0724552 -0.574788E-07  0.637E-04    1.95      25.2  T
   8    -51.0724552 -0.877695E-08  0.222E-04    1.95      72.2  T
     SCC iter.                  ...        0 min,  0.031 sec
     gradient                   ...        0 min,  0.008 sec
 * total energy  :   -50.2619248 Eh     change       -0.5299168E-03 Eh
   gradient norm :     0.0109261 Eh/α   predicted    -0.4631390E-03 ( -12.60%)
   displ. norm   :     0.6197720 α      lambda       -0.7513833E-03
   maximum displ.:     0.3102710 α      in ANC's #2, #6, #5, ...

........................................................................
.............................. CYCLE   17 ..............................
........................................................................
   1    -51.0667880 -0.510668E+02  0.245E-01    1.90       0.0  T
   2    -51.0668042 -0.161588E-04  0.143E-01    1.91       1.0  T
   3    -51.0667790  0.251188E-04  0.270E-02    1.90       1.0  T
   4    -51.0667962 -0.171893E-04  0.188E-02    1.90       1.0  T
   5    -51.0668080 -0.117552E-04  0.383E-03    1.90       4.2  T
   6    -51.0668082 -0.211585E-06  0.216E-03    1.90       7.4  T
   7    -51.0668083 -0.697869E-07  0.682E-04    1.90      23.5  T
   8    -51.0668083 -0.110707E-07  0.239E-04    1.90      67.1  T
     SCC iter.                  ...        0 min,  0.031 sec
     gradient                   ...        0 min,  0.008 sec
 * total energy  :   -50.2621976 Eh     change       -0.2728067E-03 Eh
   gradient norm :     0.0164537 Eh/α   predicted    -0.5200063E-03 (  90.61%)
   displ. norm   :     0.2644404 α      lambda       -0.1124433E-02
   maximum displ.:     0.1767413 α      in ANC's #2, #8, #7, ...

........................................................................
.............................. CYCLE   18 ..............................
........................................................................
   1    -51.0837979 -0.510838E+02  0.994E-02    1.88       0.0  T
   2    -51.0837994 -0.146251E-05  0.598E-02    1.89       1.0  T
   3    -51.0837115  0.878682E-04  0.507E-02    1.88       1.0  T
   4    -51.0837994 -0.878605E-04  0.147E-02    1.89       1.1  T
   5    -51.0838064 -0.696562E-05  0.320E-03    1.89       5.0  T
   6    -51.0838065 -0.181137E-06  0.119E-03    1.89      13.4  T
   7    -51.0838066 -0.722409E-08  0.633E-04    1.89      25.3  T
   8    -51.0838066 -0.662179E-08  0.173E-04    1.89      92.7  T
     SCC iter.                  ...        0 min,  0.031 sec
     gradient                   ...        0 min,  0.007 sec
 * total energy  :   -50.2624466 Eh     change       -0.2489737E-03 Eh
   gradient norm :     0.0206494 Eh/α   predicted    -0.6015389E-03 ( 141.61%)
   displ. norm   :     0.2790222 α      lambda       -0.1146256E-02
   maximum displ.:     0.1285389 α      in ANC's #2, #6, #4, ...

........................................................................
.............................. CYCLE   19 ..............................
........................................................................
   1    -51.0766338 -0.510766E+02  0.109E-01    1.92       0.0  T
   2    -51.0766365 -0.275076E-05  0.655E-02    1.92       1.0  T
   3    -51.0765399  0.966696E-04  0.553E-02    1.92       1.0  T
   4    -51.0766396 -0.997052E-04  0.893E-03    1.92       1.8  T
   5    -51.0766419 -0.232683E-05  0.353E-03    1.92       4.5  T
   6    -51.0766422 -0.282938E-06  0.165E-03    1.92       9.7  T
   7    -51.0766422 -0.426740E-07  0.379E-04    1.92      42.3  T
   8    -51.0766422 -0.313577E-08  0.186E-04    1.92      86.1  T
     SCC iter.                  ...        0 min,  0.030 sec
     gradient                   ...        0 min,  0.007 sec
 * total energy  :   -50.2629511 Eh     change       -0.5045305E-03 Eh
   gradient norm :     0.0105860 Eh/α   predicted    -0.6177509E-03 (  22.44%)
   displ. norm   :     0.4202530 α      lambda       -0.7009633E-03
   maximum displ.:     0.2738111 α      in ANC's #2, #3, #11, ...

........................................................................
.............................. CYCLE   20 ..............................
........................................................................
   1    -51.0734483 -0.510734E+02  0.161E-01    1.88       0.0  T
   2    -51.0734497 -0.140795E-05  0.989E-02    1.89       1.0  T
   3    -51.0731203  0.329400E-03  0.955E-02    1.89       1.0  T
   4    -51.0734617 -0.341385E-03  0.119E-02    1.88       1.3  T
   5    -51.0734654 -0.375856E-05  0.316E-03    1.88       5.1  T
   6    -51.0734656 -0.176912E-06  0.146E-03    1.88      11.0  T
   7    -51.0734656 -0.216425E-07  0.462E-04    1.88      34.6  T
   8    -51.0734656 -0.469845E-08  0.154E-04    1.88     103.8  T
     SCC iter.                  ...        0 min,  0.030 sec
     gradient                   ...        0 min,  0.007 sec
 * total energy  :   -50.2633152 Eh     change       -0.3641157E-03 Eh
   gradient norm :     0.0108228 Eh/α   predicted    -0.4123864E-03 (  13.26%)
   displ. norm   :     0.2525028 α      lambda       -0.4251977E-03
   maximum displ.:     0.1924915 α      in ANC's #2, #3, #1, ...
 * RMSD in coord.:     0.9629073 α      energy gain  -0.1445796E+00 Eh

generating ANC from model Hessian ...
Using Lindh-Hessian (1995)
 Shifting diagonal of input Hessian by    9.5685136144006196E-003
 Lowest  eigenvalues of input Hessian
    0.000000    0.000000    0.000000    0.000000    0.000000    0.000000
    0.010000    0.010124    0.011439    0.011631    0.013199    0.013412
    0.013748    0.015270    0.016320    0.018479    0.021749    0.023517
 Highest eigenvalues
    1.705945    1.736356    1.809261    1.936365    2.038966    2.106020


........................................................................
.............................. CYCLE   21 ..............................
........................................................................
   1    -51.0746459 -0.510746E+02  0.803E-02    1.86       0.0  T
   2    -51.0746400  0.594450E-05  0.533E-02    1.86       1.0  T
   3    -51.0744924  0.147550E-03  0.661E-02    1.86       1.0  T
   4    -51.0746514 -0.158970E-03  0.381E-03    1.86       4.2  T
   5    -51.0746518 -0.404208E-06  0.115E-03    1.86      13.9  T
   6    -51.0746518 -0.220404E-07  0.665E-04    1.86      24.1  T
   7    -51.0746519 -0.611198E-08  0.283E-04    1.86      56.7  T
     SCC iter.                  ...        0 min,  0.082 sec
     gradient                   ...        0 min,  0.014 sec
 * total energy  :   -50.2636709 Eh     change       -0.3556488E-03 Eh
   gradient norm :     0.0088928 Eh/α   predicted     0.0000000E+00 (-100.00%)
   displ. norm   :     0.1158446 α      lambda       -0.3077636E-03
   maximum displ.:     0.0769032 α      in ANC's #2, #4, #6, ...

........................................................................
.............................. CYCLE   22 ..............................
........................................................................
   1    -51.0757587 -0.510758E+02  0.435E-02    1.87       0.0  T
   2    -51.0757553  0.332636E-05  0.272E-02    1.87       1.0  T
   3    -51.0757213  0.339916E-04  0.367E-02    1.87       1.0  T
   4    -51.0757606 -0.392209E-04  0.297E-03    1.87       5.4  T
   5    -51.0757609 -0.331422E-06  0.896E-04    1.87      17.9  T
   6    -51.0757609 -0.138910E-07  0.491E-04    1.87      32.6  T
     SCC iter.                  ...        0 min,  0.040 sec
     gradient                   ...        0 min,  0.005 sec
 * total energy  :   -50.2639149 Eh     change       -0.2440257E-03 Eh
   gradient norm :     0.0034305 Eh/α   predicted    -0.1560047E-03 ( -36.07%)
   displ. norm   :     0.2655272 α      lambda       -0.3826990E-03
   maximum displ.:     0.1713865 α      in ANC's #2, #4, #3, ...

........................................................................
.............................. CYCLE   23 ..............................
........................................................................
   1    -51.0765392 -0.510765E+02  0.875E-02    1.87       0.0  T
   2    -51.0765353  0.383016E-05  0.515E-02    1.87       1.0  T
   3    -51.0764241  0.111210E-03  0.631E-02    1.87       1.0  T
   4    -51.0765424 -0.118232E-03  0.698E-03    1.87       2.3  T
   5    -51.0765443 -0.195670E-05  0.158E-03    1.87      10.1  T
   6    -51.0765444 -0.478602E-07  0.805E-04    1.87      19.9  T
   7    -51.0765444 -0.771158E-08  0.342E-04    1.87      46.8  T
     SCC iter.                  ...        0 min,  0.026 sec
     gradient                   ...        0 min,  0.005 sec
 * total energy  :   -50.2642049 Eh     change       -0.2900424E-03 Eh
   gradient norm :     0.0047399 Eh/α   predicted    -0.2048489E-03 ( -29.37%)
   displ. norm   :     0.3255580 α      lambda       -0.3272607E-03
   maximum displ.:     0.2091969 α      in ANC's #2, #4, #3, ...

........................................................................
.............................. CYCLE   24 ..............................
........................................................................
   1    -51.0760275 -0.510760E+02  0.103E-01    1.87       0.0  T
   2    -51.0760286 -0.111119E-05  0.598E-02    1.87       1.0  T
   3    -51.0759669  0.616666E-04  0.469E-02    1.87       1.0  T
   4    -51.0760287 -0.617604E-04  0.103E-02    1.87       1.5  T
   5    -51.0760328 -0.410488E-05  0.198E-03    1.87       8.1  T
   6    -51.0760329 -0.959881E-07  0.867E-04    1.87      18.5  T
   7    -51.0760329 -0.778897E-08  0.392E-04    1.87      40.9  T
     SCC iter.                  ...        0 min,  0.026 sec
     gradient                   ...        0 min,  0.005 sec
 * total energy  :   -50.2644862 Eh     change       -0.2812922E-03 Eh
   gradient norm :     0.0074485 Eh/α   predicted    -0.1809735E-03 ( -35.66%)
   displ. norm   :     0.3963454 α      lambda       -0.4025306E-03
   maximum displ.:     0.2555026 α      in ANC's #2, #4, #3, ...

........................................................................
.............................. CYCLE   25 ..............................
........................................................................
   1    -51.0748135 -0.510748E+02  0.124E-01    1.85       0.0  T
   2    -51.0748181 -0.452342E-05  0.729E-02    1.85       1.0  T
   3    -51.0747936  0.244469E-04  0.270E-02    1.86       1.0  T
   4    -51.0748208 -0.271704E-04  0.425E-03    1.85       3.8  T
   5    -51.0748213 -0.534960E-06  0.135E-03    1.85      11.9  T
   6    -51.0748213 -0.185568E-07  0.676E-04    1.85      23.7  T
   7    -51.0748214 -0.398892E-08  0.180E-04    1.85      88.8  T
     SCC iter.                  ...        0 min,  0.026 sec
     gradient                   ...        0 min,  0.005 sec
 * total energy  :   -50.2648382 Eh     change       -0.3519790E-03 Eh
   gradient norm :     0.0065749 Eh/α   predicted    -0.2328854E-03 ( -33.84%)
   displ. norm   :     0.4631446 α      lambda       -0.4480411E-03
   maximum displ.:     0.3071832 α      in ANC's #2, #4, #3, ...

........................................................................
.............................. CYCLE   26 ..............................
........................................................................
   1    -51.0738298 -0.510738E+02  0.142E-01    1.84       0.0  T
   2    -51.0738342 -0.436936E-05  0.856E-02    1.84       1.0  T
   3    -51.0737266  0.107588E-03  0.526E-02    1.84       1.0  T
   4    -51.0738326 -0.106027E-03  0.165E-02    1.84       1.0  T
   5    -51.0738408 -0.812839E-05  0.307E-03    1.84       5.2  T
   6    -51.0738410 -0.218035E-06  0.125E-03    1.84      12.8  T
   7    -51.0738410 -0.148771E-07  0.593E-04    1.84      27.0  T
   8    -51.0738410 -0.567963E-08  0.138E-04    1.84     116.0  T
     SCC iter.                  ...        0 min,  0.030 sec
     gradient                   ...        0 min,  0.005 sec
 * total energy  :   -50.2651971 Eh     change       -0.3588797E-03 Eh
   gradient norm :     0.0043791 Eh/α   predicted    -0.2720749E-03 ( -24.19%)
   displ. norm   :     0.3943866 α      lambda       -0.3084340E-03
   maximum displ.:     0.2773100 α      in ANC's #2, #3, #4, ...

........................................................................
.............................. CYCLE   27 ..............................
........................................................................
   1    -51.0743280 -0.510743E+02  0.115E-01    1.83       0.0  T
   2    -51.0743286 -0.641982E-06  0.705E-02    1.83       1.0  T
   3    -51.0741902  0.138416E-03  0.616E-02    1.84       1.0  T
   4    -51.0743322 -0.141968E-03  0.104E-02    1.83       1.5  T
   5    -51.0743354 -0.320962E-05  0.229E-03    1.83       7.0  T
   6    -51.0743355 -0.106846E-06  0.103E-03    1.83      15.5  T
   7    -51.0743355 -0.119140E-07  0.488E-04    1.83      32.8  T
   8    -51.0743355 -0.400930E-08  0.118E-04    1.83     135.3  T
     SCC iter.                  ...        0 min,  0.030 sec
     gradient                   ...        0 min,  0.005 sec
 * total energy  :   -50.2654417 Eh     change       -0.2446293E-03 Eh
   gradient norm :     0.0047120 Eh/α   predicted    -0.1782062E-03 ( -27.15%)
   displ. norm   :     0.3109932 α      lambda       -0.2345931E-03
   maximum displ.:     0.2348977 α      in ANC's #2, #3, #4, ...

........................................................................
.............................. CYCLE   28 ..............................
........................................................................
   1    -51.0764728 -0.510765E+02  0.841E-02    1.84       0.0  T
   2    -51.0764732 -0.455453E-06  0.511E-02    1.84       1.0  T
   3    -51.0764101  0.631257E-04  0.422E-02    1.84       1.0  T
   4    -51.0764750 -0.649304E-04  0.581E-03    1.84       2.8  T
   5    -51.0764760 -0.992090E-06  0.150E-03    1.84      10.7  T
   6    -51.0764761 -0.354104E-07  0.734E-04    1.84      21.8  T
   7    -51.0764761 -0.694851E-08  0.355E-04    1.84      45.1  T
     SCC iter.                  ...        0 min,  0.026 sec
     gradient                   ...        0 min,  0.005 sec
 * total energy  :   -50.2656391 Eh     change       -0.1974095E-03 Eh
   gradient norm :     0.0046322 Eh/α   predicted    -0.1286415E-03 ( -34.84%)
   displ. norm   :     0.3238339 α      lambda       -0.2306592E-03
   maximum displ.:     0.2564101 α      in ANC's #2, #3, #4, ...

........................................................................
.............................. CYCLE   29 ..............................
........................................................................
   1    -51.0781374 -0.510781E+02  0.840E-02    1.84       0.0  T
   2    -51.0781389 -0.150594E-05  0.491E-02    1.84       1.0  T
   3    -51.0781349  0.397845E-05  0.120E-02    1.84       1.3  T
   4    -51.0781387 -0.376514E-05  0.494E-03    1.84       3.2  T
   5    -51.0781394 -0.697877E-06  0.174E-03    1.84       9.2  T
   6    -51.0781395 -0.720051E-07  0.757E-04    1.84      21.2  T
   7    -51.0781395 -0.104345E-07  0.296E-04    1.84      54.0  T
     SCC iter.                  ...        0 min,  0.026 sec
     gradient                   ...        0 min,  0.005 sec
 * total energy  :   -50.2658366 Eh     change       -0.1974620E-03 Eh
   gradient norm :     0.0037152 Eh/α   predicted    -0.1274246E-03 ( -35.47%)
   displ. norm   :     0.3108012 α      lambda       -0.1976072E-03
   maximum displ.:     0.2563252 α      in ANC's #2, #3, #4, ...

........................................................................
.............................. CYCLE   30 ..............................
........................................................................
   1    -51.0789908 -0.510790E+02  0.793E-02    1.85       0.0  T
   2    -51.0789904  0.390040E-06  0.456E-02    1.85       1.0  T
   3    -51.0789407  0.497131E-04  0.413E-02    1.84       1.0  T
   4    -51.0789922 -0.515840E-04  0.410E-03    1.85       3.9  T
   5    -51.0789928 -0.588399E-06  0.152E-03    1.85      10.5  T
   6    -51.0789929 -0.526530E-07  0.586E-04    1.85      27.3  T
   7    -51.0789929 -0.392670E-08  0.208E-04    1.85      77.1  T
     SCC iter.                  ...        0 min,  0.026 sec
     gradient                   ...        0 min,  0.005 sec
 * total energy  :   -50.2660095 Eh     change       -0.1729160E-03 Eh
   gradient norm :     0.0027068 Eh/α   predicted    -0.1083491E-03 ( -37.34%)
   displ. norm   :     0.2636893 α      lambda       -0.1562151E-03
   maximum displ.:     0.2246268 α      in ANC's #2, #3, #6, ...

........................................................................
.............................. CYCLE   31 ..............................
........................................................................
   1    -51.0794542 -0.510795E+02  0.664E-02    1.85       0.0  T
   2    -51.0794541  0.898848E-07  0.381E-02    1.85       1.0  T
   3    -51.0794231  0.309844E-04  0.329E-02    1.85       1.0  T
   4    -51.0794551 -0.319879E-04  0.405E-03    1.85       3.9  T
   5    -51.0794557 -0.592148E-06  0.138E-03    1.85      11.6  T
   6    -51.0794557 -0.478878E-07  0.464E-04    1.85      34.5  T
   7    -51.0794557 -0.161818E-08  0.156E-04    1.85     102.6  T
     SCC iter.                  ...        0 min,  0.026 sec
     gradient                   ...        0 min,  0.005 sec
 * total energy  :   -50.2661511 Eh     change       -0.1416425E-03 Eh
   gradient norm :     0.0021559 Eh/α   predicted    -0.8354008E-04 ( -41.02%)
   displ. norm   :     0.2293439 α      lambda       -0.1364147E-03
   maximum displ.:     0.1987624 α      in ANC's #2, #3, #6, ...

........................................................................
.............................. CYCLE   32 ..............................
........................................................................
   1    -51.0796628 -0.510797E+02  0.570E-02    1.85       0.0  T
   2    -51.0796634 -0.624520E-06  0.332E-02    1.85       1.0  T
   3    -51.0796582  0.520519E-05  0.135E-02    1.85       1.2  T
   4    -51.0796633 -0.513944E-05  0.385E-03    1.85       4.2  T
   5    -51.0796638 -0.444396E-06  0.147E-03    1.85      10.9  T
   6    -51.0796638 -0.630798E-07  0.422E-04    1.85      38.0  T
   7    -51.0796638 -0.138547E-08  0.157E-04    1.85     101.9  T
     SCC iter.                  ...        0 min,  0.026 sec
     gradient                   ...        0 min,  0.005 sec
 * total energy  :   -50.2662780 Eh     change       -0.1268077E-03 Eh
   gradient norm :     0.0019724 Eh/α   predicted    -0.7179677E-04 ( -43.38%)
   displ. norm   :     0.3448896 α      lambda       -0.1403562E-03
   maximum displ.:     0.2986465 α      in ANC's #2, #3, #6, ...

........................................................................
.............................. CYCLE   33 ..............................
........................................................................
   1    -51.0796133 -0.510796E+02  0.843E-02    1.85       0.0  T
   2    -51.0796145 -0.120315E-05  0.506E-02    1.85       1.0  T
   3    -51.0795840  0.305094E-04  0.286E-02    1.85       1.0  T
   4    -51.0796146 -0.306019E-04  0.709E-03    1.85       2.3  T
   5    -51.0796160 -0.141356E-05  0.185E-03    1.85       8.6  T
   6    -51.0796161 -0.820445E-07  0.666E-04    1.85      24.0  T
   7    -51.0796161 -0.397917E-08  0.264E-04    1.85      60.6  T
     SCC iter.                  ...        0 min,  0.026 sec
     gradient                   ...        0 min,  0.005 sec
 * total energy  :   -50.2664673 Eh     change       -0.1893722E-03 Eh
   gradient norm :     0.0021784 Eh/α   predicted    -0.7388904E-04 ( -60.98%)
   displ. norm   :     0.2363479 α      lambda       -0.1366925E-03
   maximum displ.:     0.2045690 α      in ANC's #2, #9, #3, ...

........................................................................
.............................. CYCLE   34 ..............................
........................................................................
   1    -51.0796315 -0.510796E+02  0.556E-02    1.84       0.0  T
   2    -51.0796314  0.965653E-07  0.343E-02    1.84       1.0  T
   3    -51.0795933  0.381249E-04  0.328E-02    1.85       1.0  T
   4    -51.0796328 -0.395046E-04  0.327E-03    1.84       4.9  T
   5    -51.0796331 -0.279619E-06  0.111E-03    1.84      14.5  T
   6    -51.0796331 -0.272838E-07  0.466E-04    1.84      34.4  T
   7    -51.0796331 -0.274581E-08  0.172E-04    1.84      93.3  T
     SCC iter.                  ...        0 min,  0.026 sec
     gradient                   ...        0 min,  0.005 sec
 * total energy  :   -50.2665944 Eh     change       -0.1270826E-03 Eh
   gradient norm :     0.0019475 Eh/α   predicted    -0.7216459E-04 ( -43.21%)
   displ. norm   :     0.4396699 α      lambda       -0.1612748E-03
   maximum displ.:     0.3764803 α      in ANC's #2, #5, #9, ...

........................................................................
.............................. CYCLE   35 ..............................
........................................................................
   1    -51.0791185 -0.510791E+02  0.102E-01    1.83       0.0  T
   2    -51.0791136  0.489429E-05  0.657E-02    1.83       1.0  T
   3    -51.0789022  0.211477E-03  0.783E-02    1.83       1.0  T
   4    -51.0791255 -0.223335E-03  0.639E-03    1.83       2.5  T
   5    -51.0791266 -0.112303E-05  0.217E-03    1.83       7.4  T
   6    -51.0791267 -0.117189E-06  0.834E-04    1.83      19.2  T
   7    -51.0791267 -0.786012E-08  0.322E-04    1.83      49.7  T
     SCC iter.                  ...        0 min,  0.026 sec
     gradient                   ...        0 min,  0.005 sec
 * total energy  :   -50.2667980 Eh     change       -0.2035956E-03 Eh
   gradient norm :     0.0021739 Eh/α   predicted    -0.8756679E-04 ( -56.99%)
   displ. norm   :     0.2932631 α      lambda       -0.1370230E-03
   maximum displ.:     0.2543817 α      in ANC's #2, #5, #9, ...

........................................................................
.............................. CYCLE   36 ..............................
........................................................................
   1    -51.0792142 -0.510792E+02  0.637E-02    1.83       0.0  T
   2    -51.0792150 -0.821805E-06  0.383E-02    1.83       1.0  T
   3    -51.0791889  0.261346E-04  0.272E-02    1.83       1.0  T
   4    -51.0792158 -0.268713E-04  0.392E-03    1.83       4.1  T
   5    -51.0792162 -0.403448E-06  0.109E-03    1.83      14.7  T
   6    -51.0792162 -0.135489E-07  0.636E-04    1.83      25.2  T
   7    -51.0792162 -0.821799E-08  0.189E-04    1.83      84.9  T
     SCC iter.                  ...        0 min,  0.026 sec
     gradient                   ...        0 min,  0.005 sec
 * total energy  :   -50.2669058 Eh     change       -0.1077668E-03 Eh
   gradient norm :     0.0026926 Eh/α   predicted    -0.7440597E-04 ( -30.96%)
   displ. norm   :     0.2896428 α      lambda       -0.1175082E-03
   maximum displ.:     0.2551540 α      in ANC's #2, #5, #9, ...

........................................................................
.............................. CYCLE   37 ..............................
........................................................................
   1    -51.0793243 -0.510793E+02  0.628E-02    1.81       0.0  T
   2    -51.0793209  0.347307E-05  0.420E-02    1.81       1.0  T
   3    -51.0792343  0.865496E-04  0.508E-02    1.82       1.0  T
   4    -51.0793281 -0.937789E-04  0.533E-03    1.82       3.0  T
   5    -51.0793289 -0.801244E-06  0.164E-03    1.82       9.7  T
   6    -51.0793290 -0.782569E-07  0.502E-04    1.82      31.9  T
   7    -51.0793290 -0.202887E-08  0.221E-04    1.82      72.4  T
     SCC iter.                  ...        0 min,  0.026 sec
     gradient                   ...        0 min,  0.005 sec
 * total energy  :   -50.2670007 Eh     change       -0.9493166E-04 Eh
   gradient norm :     0.0015191 Eh/α   predicted    -0.6368561E-04 ( -32.91%)
   displ. norm   :     0.3510756 α      lambda       -0.7378929E-04
   maximum displ.:     0.3146017 α      in ANC's #2, #5, #4, ...

........................................................................
.............................. CYCLE   38 ..............................
........................................................................
   1    -51.0785781 -0.510786E+02  0.774E-02    1.80       0.0  T
   2    -51.0785788 -0.654950E-06  0.474E-02    1.80       1.0  T
   3    -51.0785148  0.639981E-04  0.416E-02    1.81       1.0  T
   4    -51.0785803 -0.654990E-04  0.842E-03    1.80       1.9  T
   5    -51.0785822 -0.194064E-05  0.198E-03    1.80       8.1  T
   6    -51.0785824 -0.111494E-06  0.643E-04    1.80      24.9  T
   7    -51.0785824 -0.357624E-08  0.249E-04    1.80      64.3  T
     SCC iter.                  ...        0 min,  0.026 sec
     gradient                   ...        0 min,  0.005 sec
 * total energy  :   -50.2670848 Eh     change       -0.8407064E-04 Eh
   gradient norm :     0.0022987 Eh/α   predicted    -0.3892407E-04 ( -53.70%)
   displ. norm   :     0.2036506 α      lambda       -0.6343066E-04
   maximum displ.:     0.1875431 α      in ANC's #2, #7, #4, ...

........................................................................
.............................. CYCLE   39 ..............................
........................................................................
   1    -51.0798383 -0.510798E+02  0.406E-02    1.80       0.0  T
   2    -51.0798382  0.162727E-06  0.253E-02    1.80       1.0  T
   3    -51.0798126  0.256036E-04  0.269E-02    1.80       1.0  T
   4    -51.0798392 -0.266639E-04  0.425E-03    1.80       3.8  T
   5    -51.0798397 -0.515843E-06  0.114E-03    1.80      14.1  T
   6    -51.0798398 -0.354288E-07  0.359E-04    1.80      44.6  T
   7    -51.0798398 -0.914454E-09  0.163E-04    1.80      98.1  T
     SCC iter.                  ...        0 min,  0.026 sec
     gradient                   ...        0 min,  0.005 sec
 * total energy  :   -50.2671350 Eh     change       -0.5020804E-04 Eh
   gradient norm :     0.0015816 Eh/α   predicted    -0.3303344E-04 ( -34.21%)
   displ. norm   :     0.5710200 α      lambda       -0.9230840E-04
   maximum displ.:     0.5308449 α      in ANC's #2, #7, #5, ...

........................................................................
.............................. CYCLE   40 ..............................
........................................................................
   1    -51.0782095 -0.510782E+02  0.127E-01    1.78       0.0  T
   2    -51.0782121 -0.259736E-05  0.773E-02    1.78       1.0  T
   3    -51.0780878  0.124337E-03  0.570E-02    1.79       1.0  T
   4    -51.0782124 -0.124638E-03  0.180E-02    1.78       1.0  T
   5    -51.0782219 -0.944644E-05  0.331E-03    1.78       4.8  T
   6    -51.0782222 -0.301886E-06  0.109E-03    1.78      14.6  T
   7    -51.0782222 -0.945558E-08  0.451E-04    1.78      35.5  T
   8    -51.0782222 -0.208975E-08  0.142E-04    1.78     112.8  T
     SCC iter.                  ...        0 min,  0.029 sec
     gradient                   ...        0 min,  0.005 sec
 * total energy  :   -50.2672158 Eh     change       -0.8081251E-04 Eh
   gradient norm :     0.0031027 Eh/α   predicted    -0.5284667E-04 ( -34.61%)
   displ. norm   :     0.2496953 α      lambda       -0.7191239E-04
   maximum displ.:     0.2338578 α      in ANC's #2, #7, #4, ...

........................................................................
.............................. CYCLE   41 ..............................
........................................................................
   1    -51.0803185 -0.510803E+02  0.520E-02    1.79       0.0  T
   2    -51.0803192 -0.706014E-06  0.310E-02    1.79       1.0  T
   3    -51.0803032  0.160600E-04  0.209E-02    1.79       1.0  T
   4    -51.0803195 -0.162919E-04  0.648E-03    1.79       2.5  T
   5    -51.0803207 -0.129163E-05  0.176E-03    1.79       9.1  T
   6    -51.0803208 -0.777900E-07  0.493E-04    1.79      32.5  T
   7    -51.0803208 -0.145123E-08  0.251E-04    1.79      63.7  T
     SCC iter.                  ...        0 min,  0.026 sec
     gradient                   ...        0 min,  0.005 sec
 * total energy  :   -50.2672570 Eh     change       -0.4123229E-04 Eh
   gradient norm :     0.0028972 Eh/α   predicted    -0.3819893E-04 (  -7.36%)
   displ. norm   :     0.1663439 α      lambda       -0.4750841E-04
   maximum displ.:     0.1483220 α      in ANC's #2, #8, #9, ...

........................................................................
.............................. CYCLE   42 ..............................
........................................................................
   1    -51.0811130 -0.510811E+02  0.402E-02    1.79       0.0  T
   2    -51.0811133 -0.305521E-06  0.241E-02    1.79       1.0  T
   3    -51.0811053  0.805440E-05  0.152E-02    1.79       1.1  T
   4    -51.0811142 -0.896880E-05  0.269E-03    1.79       5.9  T
   5    -51.0811144 -0.174659E-06  0.126E-03    1.79      12.7  T
   6    -51.0811145 -0.449556E-07  0.395E-04    1.79      40.6  T
   7    -51.0811145 -0.172787E-08  0.145E-04    1.79     110.6  T
     SCC iter.                  ...        0 min,  0.026 sec
     gradient                   ...        0 min,  0.005 sec
 * total energy  :   -50.2672968 Eh     change       -0.3977904E-04 Eh
   gradient norm :     0.0022905 Eh/α   predicted    -0.2441333E-04 ( -38.63%)
   displ. norm   :     0.3827900 α      lambda       -0.1150269E-03
   maximum displ.:     0.3129858 α      in ANC's #2, #8, #9, ...
 * RMSD in coord.:     0.9931561 α      energy gain  -0.3981586E-02 Eh

generating ANC from model Hessian ...
Using Lindh-Hessian (1995)
 Shifting diagonal of input Hessian by    9.5945709030672618E-003
 Lowest  eigenvalues of input Hessian
    0.000000    0.000000    0.000000    0.000000    0.000000    0.000000
    0.010000    0.010199    0.011472    0.011680    0.013073    0.013553
    0.014191    0.015357    0.016706    0.018240    0.022944    0.023450
 Highest eigenvalues
    1.722381    1.767213    1.809265    1.935917    2.036345    2.113978


........................................................................
.............................. CYCLE   43 ..............................
........................................................................
   1    -51.0797912 -0.510798E+02  0.952E-02    1.79       0.0  T
   2    -51.0797927 -0.151051E-05  0.565E-02    1.79       1.0  T
   3    -51.0797481  0.445730E-04  0.383E-02    1.79       1.0  T
   4    -51.0797988 -0.506530E-04  0.535E-03    1.79       3.0  T
   5    -51.0797994 -0.611564E-06  0.300E-03    1.79       5.3  T
   6    -51.0797996 -0.254375E-06  0.951E-04    1.79      16.8  T
   7    -51.0797996 -0.119525E-07  0.327E-04    1.79      49.0  T
     SCC iter.                  ...        0 min,  0.036 sec
     gradient                   ...        0 min,  0.005 sec
 * total energy  :   -50.2673685 Eh     change       -0.7173959E-04 Eh
   gradient norm :     0.0025156 Eh/α   predicted     0.0000000E+00 (-100.00%)
   displ. norm   :     0.0259183 α      lambda       -0.6406246E-05
   maximum displ.:     0.0141613 α      in ANC's #5, #1, #10, ...

........................................................................
.............................. CYCLE   44 ..............................
........................................................................
   1    -51.0804854 -0.510805E+02  0.107E-02    1.79       0.0  T
   2    -51.0804855 -0.993617E-07  0.635E-03    1.79       2.5  T
   3    -51.0804848  0.666939E-06  0.431E-03    1.79       3.7  T
   4    -51.0804855 -0.622902E-06  0.186E-03    1.79       8.6  T
   5    -51.0804856 -0.987601E-07  0.363E-04    1.79      44.1  T
   6    -51.0804856 -0.301133E-08  0.153E-04    1.79     104.8  T
     SCC iter.                  ...        0 min,  0.024 sec
     gradient                   ...        0 min,  0.005 sec
 * total energy  :   -50.2673831 Eh     change       -0.1450727E-04 Eh
   gradient norm :     0.0009606 Eh/α   predicted    -0.1021688E-04 ( -29.57%)
   displ. norm   :     0.0666475 α      lambda       -0.1510172E-04
   maximum displ.:     0.0401526 α      in ANC's #1, #5, #10, ...

........................................................................
.............................. CYCLE   45 ..............................
........................................................................
   1    -51.0812103 -0.510812E+02  0.180E-02    1.80       0.0  T
   2    -51.0812105 -0.237808E-06  0.104E-02    1.80       1.5  T
   3    -51.0812091  0.149487E-05  0.794E-03    1.80       2.0  T
   4    -51.0812104 -0.137008E-05  0.295E-03    1.80       5.4  T
   5    -51.0812107 -0.308851E-06  0.632E-04    1.80      25.3  T
   6    -51.0812107 -0.128744E-07  0.250E-04    1.80      64.1  T
     SCC iter.                  ...        0 min,  0.024 sec
     gradient                   ...        0 min,  0.005 sec
 * total energy  :   -50.2673957 Eh     change       -0.1265495E-04 Eh
   gradient norm :     0.0016399 Eh/α   predicted    -0.7569925E-05 ( -40.18%)
   displ. norm   :     0.0466974 α      lambda       -0.7101614E-05
   maximum displ.:     0.0317794 α      in ANC's #1, #5, #2, ...

........................................................................
.............................. CYCLE   46 ..............................
........................................................................
   1    -51.0808826 -0.510809E+02  0.113E-02    1.80       0.0  T
   2    -51.0808823  0.327872E-06  0.758E-03    1.80       2.1  T
   3    -51.0808801  0.215427E-05  0.948E-03    1.80       1.7  T
   4    -51.0808828 -0.268066E-05  0.792E-04    1.80      20.2  T
   5    -51.0808828 -0.221137E-07  0.210E-04    1.80      76.4  T
   6    -51.0808828 -0.640334E-09  0.114E-04    1.80     140.7  T
     SCC iter.                  ...        0 min,  0.024 sec
     gradient                   ...        0 min,  0.005 sec
 * total energy  :   -50.2674043 Eh     change       -0.8634012E-05 Eh
   gradient norm :     0.0012024 Eh/α   predicted    -0.3554455E-05 ( -58.83%)
   displ. norm   :     0.0644520 α      lambda       -0.7971727E-05
   maximum displ.:     0.0474976 α      in ANC's #1, #5, #2, ...

........................................................................
.............................. CYCLE   47 ..............................
........................................................................
   1    -51.0805361 -0.510805E+02  0.152E-02    1.80       0.0  T
   2    -51.0805344  0.175320E-05  0.119E-02    1.80       1.3  T
   3    -51.0805340  0.345084E-06  0.111E-02    1.80       1.4  T
   4    -51.0805369 -0.291252E-05  0.123E-03    1.80      13.0  T
   5    -51.0805370 -0.516528E-07  0.348E-04    1.80      46.0  T
   6    -51.0805370 -0.252820E-08  0.174E-04    1.80      92.2  T
     SCC iter.                  ...        0 min,  0.023 sec
     gradient                   ...        0 min,  0.005 sec
 * total energy  :   -50.2674129 Eh     change       -0.8523413E-05 Eh
   gradient norm :     0.0004904 Eh/α   predicted    -0.3993874E-05 ( -53.14%)
   displ. norm   :     0.0505225 α      lambda       -0.4155937E-05
   maximum displ.:     0.0398836 α      in ANC's #1, #5, #2, ...

........................................................................
.............................. CYCLE   48 ..............................
........................................................................
   1    -51.0804231 -0.510804E+02  0.117E-02    1.81       0.0  T
   2    -51.0804219  0.122479E-05  0.947E-03    1.81       1.7  T
   3    -51.0804221 -0.270711E-06  0.820E-03    1.81       2.0  T
   4    -51.0804236 -0.148535E-05  0.103E-03    1.81      15.5  T
   5    -51.0804236 -0.378423E-07  0.291E-04    1.81      54.9  T
   6    -51.0804237 -0.220386E-08  0.116E-04    1.81     138.2  T
     SCC iter.                  ...        0 min,  0.023 sec
     gradient                   ...        0 min,  0.005 sec
 * total energy  :   -50.2674180 Eh     change       -0.5102352E-05 Eh
   gradient norm :     0.0006059 Eh/α   predicted    -0.2081803E-05 ( -59.20%)
   displ. norm   :     0.0400247 α      lambda       -0.3526526E-05
   maximum displ.:     0.0321737 α      in ANC's #1, #2, #3, ...

........................................................................
.............................. CYCLE   49 ..............................
........................................................................
   1    -51.0804986 -0.510805E+02  0.807E-03    1.81       0.0  T
   2    -51.0804984  0.208849E-06  0.536E-03    1.81       3.0  T
   3    -51.0804974  0.971095E-06  0.676E-03    1.81       2.4  T
   4    -51.0804987 -0.127774E-05  0.584E-04    1.81      27.4  T
   5    -51.0804987 -0.127633E-07  0.162E-04    1.81      99.1  T
   6    -51.0804987 -0.472710E-09  0.769E-05    1.81     208.1  T
     SCC iter.                  ...        0 min,  0.023 sec
     gradient                   ...        0 min,  0.005 sec
 * total energy  :   -50.2674229 Eh     change       -0.4928331E-05 Eh
   gradient norm :     0.0006254 Eh/α   predicted    -0.1767266E-05 ( -64.14%)
   displ. norm   :     0.0528341 α      lambda       -0.4963524E-05
   maximum displ.:     0.0405614 α      in ANC's #1, #2, #3, ...

   *** GEOMETRY OPTIMIZATION CONVERGED AFTER 49 ITERATIONS ***

------------------------------------------------------------------------
 total energy gain   :        -0.1486872 Eh      -93.3027 kcal/mol
 total RMSD          :         1.6392965 a0        0.8675 Å
 total power (kW/mol):        -7.9669040 (step) -176.3790 (real)
------------------------------------------------------------------------

 ANCopt (total)                0 d,  0 h,  0 min,  2.213 sec
 optimizer setup                ...        0 min,  0.000 sec (  0.005%)
 model hessian                  ...        0 min,  0.107 sec (  4.816%)
 ANC generation                 ...        0 min,  0.092 sec (  4.148%)
 coordinate transformation      ...        0 min,  0.003 sec (  0.139%)
 single point calculation       ...        0 min,  1.972 sec ( 89.104%)
 optimization log               ...        0 min,  0.011 sec (  0.477%)
 hessian update                 ...        0 min,  0.003 sec (  0.115%)
 rational function              ...        0 min,  0.009 sec (  0.426%)

================
 final structure:
================
39
 xtb: 6.5.1 (fef0646)
N           14.45928068975632        0.47662393328395        0.97320276444185
C           14.31191394638718        1.50019546522099        2.05879653353425
C           14.00318663793296        2.85440797242137        1.44320701427184
C           13.71334818740122        3.91720255291317        2.50465292176206
C           13.06570557771116        5.15271788533542        1.85681069495763
N           11.81241333923232        4.79346907682504        1.24285321176119
C           11.57021465174129        5.07715121805103       -0.17377558970370
C           10.01031236232409        4.70565016624072       -0.31302104678520
C           10.25635882805111        3.31155459629288       -0.74609481812799
C           10.76082518332738        3.16184235858648       -2.01693945347541
C           12.18894834298309        3.35272793680053       -1.98029749326255
C           12.52006352877904        4.31146380623601       -1.08278155571947
C           10.62097335217460        4.88868546752690        1.95101533167862
C            9.52093010275337        4.86547487610901        1.08733608885843
C            8.23530521603714        4.92782018058682        1.57228715168383
C            8.04646135651944        5.02457692810383        2.94614162121127
C            9.13398243412256        5.04266751324866        3.80139810178854
C           10.43490582067556        4.97041064232575        3.32014336479052
H           14.64466476453308       -0.46000735754565        1.35303869712032
H           15.23153575553712        0.74272782588222        0.34806705414963
H           13.59497023943429        0.44781617565742        0.41406794371059
H           15.23709774357936        1.53156750919043        2.63622762007902
H           13.49876435449243        1.18858709168069        2.71595820235314
H           13.11441655513116        2.77850567471737        0.81068429831502
H           14.83830254799065        3.18469874315749        0.82271735076424
H           14.62819969607144        4.20892734463490        3.01959168025757
H           13.01750096092359        3.51133592657919        3.23931297028401
H           13.73714304498598        5.56489171692472        1.10095601636124
H           12.91522679449459        5.91864797420957        2.62599962155175
H           11.72035548929727        6.15641902592601       -0.35957234780397
H            9.50749784992273        5.31586389341034       -1.06023517776790
H           10.76230154672259        2.74396168323090        0.03596338374023
H           10.23123928653476        3.52579433265553       -2.88592285008318
H           12.89416005991754        2.99567793180776       -2.71977324513811
H           13.53454043180542        4.69200480235835       -1.07462299842211
H            7.39283482698142        4.90974341088163        0.89805358380434
H            7.04710958500185        5.08798808298529        3.34644303981421
H            8.97394865705953        5.11994514987685        4.86616865361943
H           11.26648025166505        4.99485048566992        4.00790165962364

 Bond Distances (Angstroems)
 ---------------------------
N1-C2=1.4993         N1-H19=1.0276        N1-H20=1.0286        N1-H21=1.0298        C2-N1=1.4993         C2-C3=1.5193         
C2-H22=1.0910        C2-H23=1.0910        C3-C2=1.5193         C3-C4=1.5298         C3-H24=1.0935        C3-H25=1.0916        
C4-C3=1.5298         C4-C5=1.5381         C4-H26=1.0896        C4-H27=1.0903        C5-C4=1.5381         C5-N6=1.4411         
C5-H28=1.0918        C5-H29=1.0959        N6-C5=1.4411         N6-C7=1.4649         N6-C13=1.3893        C7-N6=1.4649         
C7-C8=1.6096         C7-C12=1.5214        C7-H30=1.1054        C8-C7=1.6096         C8-C9=1.4804         C8-C14=1.4920        
C8-H31=1.0879        C9-C8=1.4804         C9-C10=1.3755        C9-H32=1.0908        C10-C9=1.3755        C10-C11=1.4413       
C10-H33=1.0808       C11-C10=1.4413       C11-C12=1.3544       C11-H34=1.0824       C12-C7=1.5214        C12-C11=1.3544       
C12-H35=1.0835       C13-N6=1.3893        C13-C14=1.3988       C13-C18=1.3841       C14-C8=1.4920        C14-C13=1.3988       
C14-C15=1.3755       C15-C14=1.3755       C15-C16=1.3901       C15-H36=1.0792       C16-C15=1.3901       C16-C17=1.3837       
C16-H37=1.0784       C17-C16=1.3837       C17-C18=1.3890       C17-H38=1.0795       C18-C13=1.3841       C18-C17=1.3890       
C18-H39=1.0794       H19-N1=1.0276        H20-N1=1.0286        H21-N1=1.0298        H22-C2=1.0910        H23-C2=1.0910        
H24-C3=1.0935        H25-C3=1.0916        H26-C4=1.0896        H27-C4=1.0903        H28-C5=1.0918        H29-C5=1.0959        
H30-C7=1.1054        H31-C8=1.0879        H32-C9=1.0908        H33-C10=1.0808       H34-C11=1.0824       H35-C12=1.0835       
H36-C15=1.0792       H37-C16=1.0784       H38-C17=1.0795       H39-C18=1.0794       
 C  H  Rav=1.0879 sigma=0.0070  Rmin=1.0784  Rmax=1.1054    18
 C  C  Rav=1.4489 sigma=0.0755  Rmin=1.3544  Rmax=1.6096    16
 N  H  Rav=1.0287 sigma=0.0009  Rmin=1.0276  Rmax=1.0298     3
 N  C  Rav=1.4486 sigma=0.0400  Rmin=1.3893  Rmax=1.4993     4

 selected bond angles (degree)
 --------------------
H19-N1-C2=111.86               H20-N1-C2=109.71               H20-N1-H19=108.97              H21-N1-C2=109.25               
H21-N1-H19=109.06              H21-N1-H20=107.90              C3-C2-N1=109.58                H22-C2-N1=108.63               
H22-C2-C3=111.17               H23-C2-N1=108.33               H23-C2-C3=110.32               H23-C2-H22=108.75              
C4-C3-C2=112.12                H24-C3-C2=109.73               H24-C3-C4=107.19               H25-C3-C2=110.16               
H25-C3-C4=109.22               H25-C3-H24=108.30              C5-C4-C3=110.22                H26-C4-C3=110.78               
H26-C4-C5=109.73               H27-C4-C3=109.26               H27-C4-C5=108.31               H27-C4-H26=108.49              
N6-C5-C4=110.21                H28-C5-C4=109.63               H28-C5-N6=109.51               H29-C5-C4=108.88               
H29-C5-N6=110.72               H29-C5-H28=107.85              C7-N6-C5=120.50                C13-N6-C5=120.77               
C13-N6-C7=109.75               C8-C7-N6=101.49                C12-C7-N6=112.15               C12-C7-C8=115.93               
H30-C7-N6=109.22               H30-C7-C8=110.03               H30-C7-C12=107.83              C9-C8-C7= 94.68                
C14-C8-C7=102.24               C14-C8-C9=115.47               H31-C8-C7=112.20               H31-C8-C9=113.83               
H31-C8-C14=115.66              C10-C9-C8=115.70               H32-C9-C8=110.94               H32-C9-C10=115.83              
C11-C10-C9=109.00              H33-C10-C9=121.77              H33-C10-C11=117.48             

 selected dihedral angles (degree)
 ---------------------------------
C3-C2-N1-H19=181.51           C3-C2-N1-H20= 60.46           C3-C2-N1-H21=302.36           H22-C2-N1-H19= 59.88          
H22-C2-N1-H20=298.83          H22-C2-N1-H21=180.73          H23-C2-N1-H19=301.90          H23-C2-N1-H20=180.86          
H23-C2-N1-H21= 62.76          C4-C3-C2-N1=174.72            C4-C3-C2-H22=294.81           C4-C3-C2-H23= 55.54           
H24-C3-C2-N1= 55.72           H24-C3-C2-H22=175.81          H24-C3-C2-H23=296.54          H25-C3-C2-N1=296.57           
H25-C3-C2-H22= 56.67          H25-C3-C2-H23=177.40          C5-C4-C3-C2=194.37            C5-C4-C3-H24=314.85           
C5-C4-C3-H25= 71.98           H26-C4-C3-C2= 72.73           H26-C4-C3-H24=193.22          H26-C4-C3-H25=310.34          
H27-C4-C3-C2=313.27           H27-C4-C3-H24= 73.75          H27-C4-C3-H25=190.88          N6-C5-C4-C3= 61.26            
N6-C5-C4-H26=183.52           N6-C5-C4-H27=301.78           H28-C5-C4-C3=300.66           H28-C5-C4-H26= 62.92          
H28-C5-C4-H27=181.18          H29-C5-C4-C3=182.89           H29-C5-C4-H26=305.15          H29-C5-C4-H27= 63.41          
C7-N6-C5-C4=235.57            C7-N6-C5-H28=356.24           C7-N6-C5-H29=115.04           C13-N6-C5-C4= 91.76           
C13-N6-C5-H28=212.43          C13-N6-C5-H29=331.23          C8-C7-N6-C5=188.01            C8-C7-N6-C13=335.39           
C12-C7-N6-C5= 63.64           C12-C7-N6-C13=211.02          H30-C7-N6-C5=304.17           H30-C7-N6-C13= 91.55          
C9-C8-C7-N6=266.67            C9-C8-C7-C12= 28.45           C9-C8-C7-H30=151.10           C14-C8-C7-N6= 24.00           
C14-C8-C7-C12=145.78          C14-C8-C7-H30=268.43          H31-C8-C7-N6=148.54           H31-C8-C7-C12=270.33          
H31-C8-C7-H30= 32.98          C10-C9-C8-C7=288.56           C10-C9-C8-C14=182.62          C10-C9-C8-H31= 45.34          
H32-C9-C8-C7= 63.14           H32-C9-C8-C14=317.20          H32-C9-C8-H31=179.92          C11-C10-C9-C8= 82.67          
C11-C10-C9-H32=310.32         H33-C10-C9-C8=300.75          H33-C10-C9-H32=168.40         
           -------------------------------------------------
          |                Final Singlepoint                |
           -------------------------------------------------

          ...................................................
          :                      SETUP                      :
          :.................................................:
          :  # basis functions                  93          :
          :  # atomic orbitals                  93          :
          :  # shells                           57          :
          :  # electrons                        94          :
          :  max. iterations                   250          :
          :  Hamiltonian                  GFN2-xTB          :
          :  restarted?                      false          :
          :  GBSA solvation                  false          :
          :  PC potential                    false          :
          :  electronic temp.          300.0000000     K    :
          :  accuracy                    1.0000000          :
          :  -> integral cutoff          0.2500000E+02      :
          :  -> integral neglect         0.1000000E-07      :
          :  -> SCF convergence          0.1000000E-05 Eh   :
          :  -> wf. convergence          0.1000000E-03 e    :
          :  Broyden damping             0.4000000          :
          ...................................................

 iter      E             dE          RMSdq      gap      omega  full diag
   1    -51.0804987 -0.510805E+02  0.207E-05    1.81       0.0  T
   2    -51.0804987 -0.424905E-11  0.135E-05    1.81    1188.9  T
   3    -51.0804987 -0.424194E-11  0.774E-06    1.81    2067.8  T

   *** convergence criteria satisfied after 3 iterations ***

         #    Occupation            Energy/Eh            Energy/eV
      -------------------------------------------------------------
         1        2.0000           -0.8939109             -24.3246
       ...           ...                  ...                  ...
        41        2.0000           -0.5125012             -13.9459
        42        2.0000           -0.5017198             -13.6525
        43        2.0000           -0.4993189             -13.5872
        44        2.0000           -0.4932220             -13.4213
        45        2.0000           -0.4736052             -12.8875
        46        2.0000           -0.4348042             -11.8316
        47        2.0000           -0.4306325             -11.7181 (HOMO)
        48                         -0.3642588              -9.9120 (LUMO)
        49                         -0.3067579              -8.3473
        50                         -0.2927012              -7.9648
        51                         -0.2838148              -7.7230
        52                         -0.2638890              -7.1808
       ...                                ...                  ...
        93                          0.6184098              16.8278
      -------------------------------------------------------------
                  HL-Gap            0.0663736 Eh            1.8061 eV
             Fermi-level           -0.3974457 Eh          -10.8150 eV

 SCC (total)                   0 d,  0 h,  0 min,  0.020 sec
 SCC setup                      ...        0 min,  0.000 sec (  0.696%)
 Dispersion                     ...        0 min,  0.000 sec (  1.651%)
 classical contributions        ...        0 min,  0.000 sec (  0.175%)
 integral evaluation            ...        0 min,  0.002 sec (  7.740%)
 iterations                     ...        0 min,  0.012 sec ( 60.756%)
 molecular gradient             ...        0 min,  0.005 sec ( 26.247%)
 printout                       ...        0 min,  0.000 sec (  2.176%)

         :::::::::::::::::::::::::::::::::::::::::::::::::::::
         ::                     SUMMARY                     ::
         :::::::::::::::::::::::::::::::::::::::::::::::::::::
         :: total energy             -50.267422897894 Eh    ::
         :: gradient norm              0.000625250559 Eh/a0 ::
         :: HOMO-LUMO gap              1.806118369751 eV    ::
         ::.................................................::
         :: SCC energy               -51.080498670958 Eh    ::
         :: -> isotropic ES            0.113622300073 Eh    ::
         :: -> anisotropic ES         -0.006684553928 Eh    ::
         :: -> anisotropic XC          0.033575635330 Eh    ::
         :: -> dispersion             -0.039897586500 Eh    ::
         :: repulsion energy           0.812259215930 Eh    ::
         :: add. restraining           0.000000000000 Eh    ::
         :: total charge               1.000000000000 e     ::
         :::::::::::::::::::::::::::::::::::::::::::::::::::::

           -------------------------------------------------
          |                Property Printout                |
           -------------------------------------------------

    * Orbital Energies and Occupations

         #    Occupation            Energy/Eh            Energy/eV
      -------------------------------------------------------------
         1        2.0000           -0.8939109             -24.3246
       ...           ...                  ...                  ...
        35        2.0000           -0.5575168             -15.1708
        36        2.0000           -0.5549754             -15.1016
        37        2.0000           -0.5480965             -14.9145
        38        2.0000           -0.5449023             -14.8275
        39        2.0000           -0.5370043             -14.6126
        40        2.0000           -0.5304306             -14.4338
        41        2.0000           -0.5125012             -13.9459
        42        2.0000           -0.5017198             -13.6525
        43        2.0000           -0.4993189             -13.5872
        44        2.0000           -0.4932220             -13.4213
        45        2.0000           -0.4736052             -12.8875
        46        2.0000           -0.4348042             -11.8316
        47        2.0000           -0.4306325             -11.7181 (HOMO)
        48                         -0.3642588              -9.9120 (LUMO)
        49                         -0.3067579              -8.3473
        50                         -0.2927012              -7.9648
        51                         -0.2838148              -7.7230
        52                         -0.2638890              -7.1808
        53                         -0.1644137              -4.4739
        54                         -0.1608530              -4.3770
        55                         -0.1035037              -2.8165
        56                         -0.1009923              -2.7481
        57                         -0.0974519              -2.6518
        58                         -0.0846326              -2.3030
       ...                                ...                  ...
        93                          0.6184098              16.8278
      -------------------------------------------------------------
                  HL-Gap            0.0663736 Eh            1.8061 eV
             Fermi-level           -0.3974457 Eh          -10.8150 eV

     #   Z          covCN         q      C6AA      α(0)
     1   7 N        3.483    -0.128    23.775     7.242
     2   6 C        3.731    -0.033    21.252     6.581
     3   6 C        3.804    -0.084    22.107     6.694
     4   6 C        3.803    -0.072    21.870     6.658
     5   6 C        3.743     0.002    20.625     6.479
     6   7 N        2.763    -0.135    23.923     7.264
     7   6 C        3.893     0.043    19.801     6.326
     8   6 C        3.894    -0.005    20.622     6.455
     9   6 C        3.020    -0.035    28.845     8.810
    10   6 C        2.953    -0.071    29.770     8.949
    11   6 C        2.945    -0.031    28.762     8.796
    12   6 C        2.942    -0.059    29.468     8.903
    13   6 C        2.980     0.054    26.792     8.490
    14   6 C        3.016    -0.017    28.418     8.745
    15   6 C        2.916    -0.033    28.817     8.803
    16   6 C        2.922    -0.040    28.997     8.831
    17   6 C        2.923    -0.031    28.763     8.795
    18   6 C        2.914    -0.062    29.547     8.913
    19   1 H        0.859     0.269     0.813     1.413
    20   1 H        0.859     0.272     0.804     1.405
    21   1 H        0.859     0.275     0.793     1.395
    22   1 H        0.924     0.105     1.742     2.064
    23   1 H        0.924     0.107     1.718     2.050
    24   1 H        0.924     0.078     2.004     2.214
    25   1 H        0.924     0.059     2.211     2.325
    26   1 H        0.925     0.054     2.272     2.357
    27   1 H        0.924     0.060     2.204     2.322
    28   1 H        0.924     0.046     2.365     2.405
    29   1 H        0.924     0.054     2.274     2.358
    30   1 H        0.922     0.030     2.580     2.512
    31   1 H        0.925     0.052     2.291     2.367
    32   1 H        0.924     0.018     2.766     2.601
    33   1 H        0.926     0.050     2.319     2.381
    34   1 H        0.925     0.033     2.545     2.495
    35   1 H        0.925     0.033     2.548     2.496
    36   1 H        0.926     0.040     2.450     2.448
    37   1 H        0.926     0.041     2.431     2.438
    38   1 H        0.926     0.039     2.467     2.456
    39   1 H        0.926     0.023     2.682     2.561

 Mol. C6AA /au·bohr⁶  :      14614.716327
 Mol. C8AA /au·bohr⁸  :     343839.379784
 Mol. α(0) /au        :        188.796665


Wiberg/Mayer (AO) data.
largest (>0.10) Wiberg bond orders for each atom

 ---------------------------------------------------------------------------
     #   Z sym  total        # sym  WBO       # sym  WBO       # sym  WBO
 ---------------------------------------------------------------------------
     1   7 N    3.675 --     2 C    0.920    19 H    0.913    20 H    0.910
                            21 H    0.908
     2   6 C    3.884 --     3 C    1.008    22 H    0.967    23 H    0.966
                             1 N    0.920
     3   6 C    3.978 --     2 C    1.008     4 C    0.997    25 H    0.973
                            24 H    0.957
     4   6 C    3.988 --     3 C    0.997     5 C    0.992    26 H    0.977
                            27 H    0.973
     5   6 C    3.982 --     6 N    1.006     4 C    0.992    28 H    0.970
                            29 H    0.963
     6   7 N    3.332 --    13 C    1.103     5 C    1.006     7 C    0.969
     7   6 C    3.976 --    12 C    1.027     6 N    0.969    30 H    0.947
                             8 C    0.889
     8   6 C    3.986 --     9 C    1.034    14 C    1.004    31 H    0.962
                             7 C    0.889
     9   6 C    3.959 --    10 C    1.719     8 C    1.034    32 H    0.961
                            12 C    0.129
    10   6 C    3.952 --     9 C    1.719    11 C    1.150    33 H    0.941
    11   6 C    3.979 --    12 C    1.773    10 C    1.150    34 H    0.962
    12   6 C    3.983 --    11 C    1.773     7 C    1.027    35 H    0.960
                             9 C    0.129
    13   6 C    3.970 --    18 C    1.383    14 C    1.305     6 N    1.103
    14   6 C    3.983 --    15 C    1.455    13 C    1.305     8 C    1.004
                            17 C    0.104
    15   6 C    3.990 --    14 C    1.455    16 C    1.408    36 H    0.969
    16   6 C    3.988 --    17 C    1.452    15 C    1.408    37 H    0.971
    17   6 C    3.990 --    16 C    1.452    18 C    1.425    38 H    0.971
                            14 C    0.104
    18   6 C    3.985 --    17 C    1.425    13 C    1.383    39 H    0.966
    19   1 H    0.927 --     1 N    0.913
    20   1 H    0.926 --     1 N    0.910
    21   1 H    0.924 --     1 N    0.908
    22   1 H    0.989 --     2 C    0.967
    23   1 H    0.988 --     2 C    0.966
    24   1 H    0.994 --     3 C    0.957
    25   1 H    0.996 --     3 C    0.973
    26   1 H    0.997 --     4 C    0.977
    27   1 H    0.996 --     4 C    0.973
    28   1 H    0.997 --     5 C    0.970
    29   1 H    0.996 --     5 C    0.963
    30   1 H    0.999 --     7 C    0.947
    31   1 H    0.997 --     8 C    0.962
    32   1 H    1.000 --     9 C    0.961
    33   1 H    0.997 --    10 C    0.941
    34   1 H    0.998 --    11 C    0.962
    35   1 H    0.999 --    12 C    0.960
    36   1 H    0.998 --    15 C    0.969
    37   1 H    0.998 --    16 C    0.971
    38   1 H    0.998 --    17 C    0.971
    39   1 H    0.999 --    18 C    0.966
 ---------------------------------------------------------------------------

Topologies differ in total number of bonds
Writing topology from bond orders to xtbtopo.mol

molecular dipole:
                 x           y           z       tot (Debye)
 q only:       27.035       2.165       2.162
   full:       27.239       2.280       1.954      69.653
molecular quadrupole (traceless):
                xx          xy          yy          xz          yz          zz
 q only:      723.703      81.674    -356.927      87.810       7.979    -366.775
  q+dip:      733.769      85.706    -361.345      80.519       5.324    -372.423
   full:      732.142      85.767    -358.399      80.677       5.100    -373.743

           -------------------------------------------------
          |                Geometry Summary                 |
           -------------------------------------------------

      molecular mass/u    :      241.3519366
   center of mass at/Å    :       11.4788880       3.9529832       1.0370464
  moments of inertia/u·Å² :        0.8844430E+03   0.1500186E+04   0.1963610E+04
rotational constants/cm⁻¹ :        0.1906017E-01   0.1123703E-01   0.8585020E-02

 * 38 selected distances

     #   Z          #   Z                                           value/Å
     1   7 N        2   6 C                                       1.4993098
     2   6 C        3   6 C                                       1.5192613
     3   6 C        4   6 C                                       1.5297733
     4   6 C        5   6 C                                       1.5380634 (max)
     5   6 C        6   7 N                                       1.4410917
     6   7 N        7   6 C                                       1.4649141
     8   6 C        9   6 C                                       1.4804035
     9   6 C       10   6 C                                       1.3754805
    11   6 C       12   6 C                                       1.3543806
     6   7 N       13   6 C                                       1.3892766
     8   6 C       14   6 C                                       1.4919918
    13   6 C       14   6 C                                       1.3987766
    14   6 C       15   6 C                                       1.3754622
    15   6 C       16   6 C                                       1.3901440
    16   6 C       17   6 C                                       1.3836522
    13   6 C       18   6 C                                       1.3841286
    17   6 C       18   6 C                                       1.3889670
     1   7 N       19   1 H                                       1.0275801 (min)
     1   7 N       20   1 H                                       1.0285835
     1   7 N       21   1 H                                       1.0298031
     2   6 C       22   1 H                                       1.0910436
     2   6 C       23   1 H                                       1.0909508
     3   6 C       24   1 H                                       1.0935075
     3   6 C       25   1 H                                       1.0915669
     4   6 C       26   1 H                                       1.0895957
     4   6 C       27   1 H                                       1.0902553
     5   6 C       28   1 H                                       1.0918022
     5   6 C       29   1 H                                       1.0958762
     7   6 C       30   1 H                                       1.1053877
     8   6 C       31   1 H                                       1.0878936
     9   6 C       32   1 H                                       1.0907589
    10   6 C       33   1 H                                       1.0807658
    11   6 C       34   1 H                                       1.0824199
    12   6 C       35   1 H                                       1.0835320
    15   6 C       36   1 H                                       1.0792007
    16   6 C       37   1 H                                       1.0784092
    17   6 C       38   1 H                                       1.0794995
    18   6 C       39   1 H                                       1.0794096

 * 4 distinct bonds (by element types)

   Z      Z             #   av. dist./Å        max./Å        min./Å
   1 H    6 C          18     1.0878819     1.1053877     1.0784092
   6 C    6 C          13     1.4315758     1.5380634     1.3543806
   1 H    7 N           3     1.0286556     1.0298031     1.0275801
   6 C    7 N           4     1.4486480     1.4993098     1.3892766


optimized geometry written to: xtbopt.xyz


           -------------------------------------------------
          | TOTAL ENERGY              -50.267422897894 Eh   |
          | GRADIENT NORM               0.000625250559 Eh/α |
          | HOMO-LUMO GAP               1.806118369751 eV   |
           -------------------------------------------------

------------------------------------------------------------------------
 * finished run on 2023/01/23 at 20:49:26.775     
------------------------------------------------------------------------
 total:
 * wall-time:     0 d,  0 h,  0 min,  2.426 sec
 *  cpu-time:     0 d,  0 h,  4 min, 25.640 sec
 * ratio c/w:   109.499 speedup
 SCF:
 * wall-time:     0 d,  0 h,  0 min,  0.160 sec
 *  cpu-time:     0 d,  0 h,  0 min, 18.641 sec
 * ratio c/w:   116.374 speedup
 ANC optimizer:
 * wall-time:     0 d,  0 h,  0 min,  2.236 sec
 *  cpu-time:     0 d,  0 h,  4 min,  3.316 sec
 * ratio c/w:   108.831 speedup

