39
 energy: -50.267422897894 gnorm: 0.000625250559 xtb: 6.5.1 (fef0646)
N           14.45928068975632        0.47662393328395        0.97320276444185
C           14.31191394638718        1.50019546522099        2.05879653353425
C           14.00318663793296        2.85440797242137        1.44320701427184
C           13.71334818740122        3.91720255291317        2.50465292176206
C           13.06570557771116        5.15271788533542        1.85681069495763
N           11.81241333923232        4.79346907682504        1.24285321176119
C           11.57021465174129        5.07715121805103       -0.17377558970370
C           10.01031236232409        4.70565016624072       -0.31302104678520
C           10.25635882805111        3.31155459629288       -0.74609481812799
C           10.76082518332738        3.16184235858648       -2.01693945347541
C           12.18894834298309        3.35272793680053       -1.98029749326255
C           12.52006352877904        4.31146380623601       -1.08278155571947
C           10.62097335217460        4.88868546752690        1.95101533167862
C            9.52093010275337        4.86547487610901        1.08733608885843
C            8.23530521603714        4.92782018058682        1.57228715168383
C            8.04646135651944        5.02457692810383        2.94614162121127
C            9.13398243412256        5.04266751324866        3.80139810178854
C           10.43490582067556        4.97041064232575        3.32014336479052
H           14.64466476453308       -0.46000735754565        1.35303869712032
H           15.23153575553712        0.74272782588222        0.34806705414963
H           13.59497023943429        0.44781617565742        0.41406794371059
H           15.23709774357936        1.53156750919043        2.63622762007902
H           13.49876435449243        1.18858709168069        2.71595820235314
H           13.11441655513116        2.77850567471737        0.81068429831502
H           14.83830254799065        3.18469874315749        0.82271735076424
H           14.62819969607144        4.20892734463490        3.01959168025757
H           13.01750096092359        3.51133592657919        3.23931297028401
H           13.73714304498598        5.56489171692472        1.10095601636124
H           12.91522679449459        5.91864797420957        2.62599962155175
H           11.72035548929727        6.15641902592601       -0.35957234780397
H            9.50749784992273        5.31586389341034       -1.06023517776790
H           10.76230154672259        2.74396168323090        0.03596338374023
H           10.23123928653476        3.52579433265553       -2.88592285008318
H           12.89416005991754        2.99567793180776       -2.71977324513811
H           13.53454043180542        4.69200480235835       -1.07462299842211
H            7.39283482698142        4.90974341088163        0.89805358380434
H            7.04710958500185        5.08798808298529        3.34644303981421
H            8.97394865705953        5.11994514987685        4.86616865361943
H           11.26648025166505        4.99485048566992        4.00790165962364
