39
 energy: -50.381044777979 gnorm: 0.000588786249 xtb: 6.5.1 (fef0646)
N           14.77778626672197        0.53905930652456       -1.40780528708425
C           14.43433937540587        0.23148837501654       -2.81776628919915
C           13.98131238216897       -1.21716462540344       -2.95492876940647
C           13.62991545324523       -1.53810422845514       -4.40635370008038
C           13.04013797230109       -2.94507537482252       -4.55634161054879
N           11.76438738688419       -3.05367990324466       -3.88163273263760
C           11.54510500442108       -4.10011416758691       -2.88305417371692
C            9.96021599563823       -3.99804096162871       -2.63189080709463
C           10.06848072333339       -3.13840686123603       -1.43002075301858
C           10.57712275228563       -3.75315170894718       -0.31206661305228
C           12.02309333496608       -3.71448016481250       -0.38398634343863
C           12.42996347198261       -3.90986923696018       -1.65611517516015
C           10.58804980211794       -2.77020763434861       -4.53889971358181
C            9.48281253586455       -3.31355933910709       -3.86891087988494
C            8.20469398512026       -3.12997128820653       -4.33874952852855
C            8.01967784672974       -2.39905944105819       -5.50838564170230
C            9.10885116174254       -1.86252075772252       -6.17259312273967
C           10.40248581480335       -2.03494283997949       -5.70091619797801
H           15.08214536135542        1.51436279609378       -1.31031516089554
H           15.53310193098199       -0.07725205133992       -1.08512357298807
H           13.95930288255140        0.38786260218467       -0.80664780934554
H           15.30780696998890        0.40615554496076       -3.44567158462728
H           13.63567949084246        0.89709992086996       -3.14404449196047
H           13.09806990887756       -1.39978679945438       -2.34129832696568
H           14.77292468486588       -1.89197029529771       -2.62743935863352
H           14.51831883044175       -1.46864466729933       -5.03513009216625
H           12.89798931286151       -0.81701857146845       -4.77131688100536
H           13.72444912032606       -3.68313687907028       -4.13413567828146
H           12.91790140916907       -3.17653336655420       -5.62196324237007
H           11.79219118017476       -5.08323089144150       -3.32731261097564
H            9.51223299904400       -4.97215006521968       -2.43816093244075
H           10.49908340348323       -2.17082278565242       -1.67761338970950
H           10.12240243470917       -4.64880994545075        0.09394615479302
H           12.70286822812557       -3.75259793809741        0.45439785717337
H           13.48078048807239       -4.07306666913689       -1.85355544959533
H            7.35934992830402       -3.55234019851159       -3.81503138529805
H            7.02361351085893       -2.25311359571363       -5.89875219189452
H            8.95065573432835       -1.29997801085591       -7.08156507609159
H           11.23204092490674       -1.61374728156932       -6.24563943786776
