 Entering Gaussian System
 *********************************************
 Gaussian 98:
 frequency output generated by the xtb code
 *********************************************
                         Standard orientation:
 --------------------------------------------------------------------
  Center     Atomic     Atomic              Coordinates (Angstroms)
  Number     Number      Type              X           Y           Z
 --------------------------------------------------------------------
    1          7             0       -3.723152   -0.331171   -0.003926
    2          6             0       -2.480658    0.498133    0.001858
    3          6             0       -1.210092   -0.343824    0.002435
    4          6             0        0.069553    0.495810    0.001879
    5          6             0        1.344068   -0.350837    0.003806
    6          6             0        2.624763    0.487016   -0.003320
    7          6             0        3.889188   -0.360610   -0.001673
    8          1             0       -4.564119    0.254264   -0.003775
    9          1             0       -3.756692   -0.936269    0.821995
   10          1             0       -3.752658   -0.929972   -0.834535
   11          1             0       -2.487621    1.158015    0.876677
   12          1             0       -2.483407    1.163032   -0.869173
   13          1             0       -1.213078   -1.009325   -0.867014
   14          1             0       -1.213102   -1.008552    0.872466
   15          1             0        0.071199    1.162491    0.871148
   16          1             0        0.072013    1.159448   -0.869702
   17          1             0        1.340112   -1.020709   -0.863083
   18          1             0        1.343718   -1.011846    0.877507
   19          1             0        2.622659    1.158338    0.863869
   20          1             0        2.618813    1.148995   -0.877641
   21          1             0        3.927962   -1.011612   -0.875682
   22          1             0        3.933578   -0.999929    0.880618
   23          1             0        4.791342    0.253145   -0.008807
 --------------------------------------------------------------------
     1 basis functions        1 primitive gaussians
     1 alpha electrons        1 beta electrons

 Harmonic frequencies (cm**-1), IR intensities (km*mol⁻¹),
 Raman scattering activities (A**4/amu), Raman depolarization ratios,
 reduced masses (AMU), force constants (mDyne/A) and normal coordinates:
                      1                      2                      3
                        a                      a                      a 
 Frequencies --  -119.8941                68.7343               111.3338
 Red. masses --     1.9285                 8.9661                 8.4085
 Frc consts  --     0.0000                 0.0000                 0.0000
 IR Inten    --     0.0067                11.4053                 7.6723
 Raman Activ --     0.0000                 0.0000                 0.0000
 Depolar     --     0.0000                 0.0000                 0.0000
 Atom AN      X      Y      Z        X      Y      Z        X      Y      Z
   1   7     0.00  -0.00  -0.00    -0.00   0.00   0.48    -0.13   0.34  -0.07
   2   6     0.00   0.00  -0.11     0.00   0.00  -0.11     0.10  -0.02   0.25
   3   6    -0.00  -0.00   0.09    -0.00  -0.00  -0.39    -0.05  -0.25  -0.01
   4   6     0.00  -0.00   0.16     0.00  -0.00  -0.27    -0.00  -0.31  -0.03
   5   6     0.00  -0.00  -0.08    -0.00  -0.00  -0.29     0.06  -0.21  -0.17
   6   6    -0.00   0.00   0.11     0.00   0.00   0.20    -0.08   0.02  -0.20
   7   6    -0.00   0.00  -0.14     0.00   0.00   0.29     0.11   0.32   0.22
   8   1     0.00   0.00  -0.51    -0.00   0.00   0.16     0.02   0.16  -0.14
   9   1    -0.25   0.38   0.26     0.07   0.06   0.18    -0.19   0.13   0.01
  10   1     0.25  -0.38   0.26    -0.08  -0.06   0.18     0.01   0.05   0.01
  11   1    -0.02   0.06  -0.08     0.09   0.03  -0.06     0.06  -0.08   0.13
  12   1     0.02  -0.06  -0.08    -0.08  -0.03  -0.06     0.08   0.07   0.13
  13   1     0.02  -0.01   0.03    -0.02   0.05  -0.15    -0.07  -0.03  -0.04
  14   1    -0.02   0.01   0.03     0.02  -0.05  -0.15    -0.01  -0.11  -0.04
  15   1     0.02  -0.04   0.08    -0.01  -0.03  -0.06     0.01  -0.11   0.00
  16   1    -0.02   0.04   0.08     0.01   0.03  -0.06    -0.02  -0.07   0.01
  17   1    -0.00   0.06  -0.07     0.05   0.07  -0.14     0.03  -0.05  -0.06
  18   1     0.00  -0.06  -0.07    -0.05  -0.07  -0.14     0.06  -0.07  -0.06
  19   1     0.01  -0.07   0.08    -0.06  -0.06   0.10    -0.10   0.07  -0.10
  20   1    -0.01   0.07   0.08     0.06   0.06   0.10    -0.02  -0.05  -0.10
  21   1    -0.00   0.08  -0.10     0.05   0.05   0.05     0.10   0.01   0.13
  22   1     0.00  -0.08  -0.10    -0.05  -0.05   0.05     0.04   0.18   0.12
  23   1    -0.00   0.00   0.01     0.00   0.00   0.17    -0.01   0.15   0.04
                      4                      5                      6
                        a                      a                      a 
 Frequencies --   111.7995               132.4575               151.4931
 Red. masses --     7.6393                 6.6652                 6.5718
 Frc consts  --     0.0000                 0.0000                 0.0000
 IR Inten    --     4.7782                 0.7548                 0.1104
 Raman Activ --     0.0000                 0.0000                 0.0000
 Depolar     --     0.0000                 0.0000                 0.0000
 Atom AN      X      Y      Z        X      Y      Z        X      Y      Z
   1   7    -0.10   0.26   0.09     0.00  -0.00  -0.13    -0.00   0.00  -0.02
   2   6     0.08  -0.01  -0.33    -0.00   0.00   0.12     0.00  -0.00   0.31
   3   6    -0.04  -0.19   0.02    -0.00   0.00   0.47     0.00  -0.00  -0.21
   4   6    -0.00  -0.24   0.04    -0.00   0.00  -0.33    -0.00  -0.00  -0.44
   5   6     0.05  -0.16   0.22    -0.00  -0.00  -0.35     0.00   0.00   0.33
   6   6    -0.06   0.02   0.25     0.00   0.00   0.17     0.00   0.00   0.21
   7   6     0.08   0.24  -0.29    -0.00  -0.00   0.06    -0.00  -0.00  -0.15
   8   1     0.01   0.12   0.19    -0.00  -0.00   0.01     0.00   0.00  -0.16
   9   1     0.06   0.02  -0.01    -0.00  -0.07  -0.08    -0.12   0.06   0.03
  10   1    -0.20   0.12  -0.01     0.00   0.07  -0.08     0.12  -0.06   0.03
  11   1     0.07   0.10  -0.17    -0.06   0.02   0.02     0.02  -0.11   0.17
  12   1     0.05  -0.10  -0.17     0.06  -0.02   0.02    -0.02   0.11   0.17
  13   1     0.01  -0.11   0.05    -0.04  -0.16   0.26    -0.08   0.04  -0.09
  14   1    -0.07   0.00   0.05     0.04   0.16   0.26     0.08  -0.04  -0.09
  15   1    -0.02  -0.04  -0.01     0.08   0.11  -0.18    -0.05   0.14  -0.23
  16   1     0.02  -0.09  -0.01    -0.08  -0.11  -0.18     0.05  -0.14  -0.23
  17   1     0.05  -0.06   0.07     0.05   0.07  -0.15     0.06  -0.13   0.19
  18   1     0.01  -0.03   0.07    -0.05  -0.07  -0.15    -0.06   0.13   0.19
  19   1     0.00  -0.07   0.13    -0.04  -0.09   0.12     0.05  -0.03   0.08
  20   1    -0.10   0.09   0.13     0.04   0.10   0.12    -0.04   0.03   0.08
  21   1     0.02   0.18  -0.16     0.05   0.11  -0.06    -0.03   0.07  -0.10
  22   1     0.10  -0.03  -0.16    -0.06  -0.11  -0.06     0.03  -0.07  -0.09
  23   1    -0.01   0.12  -0.05     0.00   0.00   0.15    -0.00  -0.00  -0.02
                      7                      8                      9
                        a                      a                      a 
 Frequencies --   247.1587               255.4284               293.8006
 Red. masses --     8.8220                 2.0173                10.3209
 Frc consts  --     0.0000                 0.0000                 0.0000
 IR Inten    --     4.1534                 0.0319                 8.0186
 Raman Activ --     0.0000                 0.0000                 0.0000
 Depolar     --     0.0000                 0.0000                 0.0000
 Atom AN      X      Y      Z        X      Y      Z        X      Y      Z
   1   7    -0.20   0.19  -0.00    -0.00  -0.00  -0.01     0.49   0.05   0.00
   2   6     0.15  -0.32  -0.00    -0.00  -0.00   0.01     0.36   0.08   0.00
   3   6     0.13  -0.34   0.00    -0.00   0.00   0.01     0.14  -0.11  -0.00
   4   6    -0.11   0.05   0.00    -0.00  -0.00  -0.08    -0.03  -0.05  -0.00
   5   6     0.10   0.38  -0.00    -0.00  -0.00  -0.11    -0.16  -0.07  -0.00
   6   6     0.16   0.28  -0.00     0.00   0.00   0.26    -0.36   0.09   0.00
   7   6    -0.19  -0.24   0.00     0.00  -0.00  -0.07    -0.46   0.03   0.00
   8   1     0.04   0.18   0.00    -0.00   0.00  -0.01     0.10  -0.03   0.00
   9   1    -0.15   0.06   0.00    -0.01   0.00  -0.00     0.16   0.01  -0.00
  10   1    -0.15   0.06  -0.00     0.01  -0.00  -0.00     0.16   0.01   0.00
  11   1     0.09  -0.09  -0.00    -0.00  -0.00   0.00     0.12   0.02   0.00
  12   1     0.09  -0.09   0.00     0.00   0.00   0.00     0.12   0.02  -0.00
  13   1     0.07  -0.10   0.00    -0.01  -0.01   0.01     0.03  -0.03  -0.00
  14   1     0.07  -0.10   0.00     0.01   0.01   0.01     0.03  -0.03   0.00
  15   1    -0.09   0.01   0.00     0.01   0.01  -0.03    -0.01  -0.02   0.00
  16   1    -0.09   0.01   0.00    -0.01  -0.01  -0.03    -0.01  -0.02  -0.00
  17   1     0.05   0.11   0.00     0.03   0.07  -0.09    -0.04  -0.02  -0.00
  18   1     0.05   0.11  -0.00    -0.04  -0.07  -0.08    -0.04  -0.02   0.00
  19   1     0.10   0.08   0.00     0.01  -0.08   0.14    -0.12   0.02   0.00
  20   1     0.10   0.08  -0.00    -0.01   0.08   0.14    -0.12   0.03  -0.00
  21   1    -0.14  -0.08   0.00    -0.30  -0.34   0.22    -0.16   0.00   0.00
  22   1    -0.14  -0.08   0.00     0.30   0.34   0.21    -0.16   0.01   0.00
  23   1     0.03  -0.19   0.00    -0.00  -0.00  -0.57    -0.11  -0.03  -0.00
                     10                     11                     12
                        a                      a                      a 
 Frequencies --   410.9260               466.0842               765.1401
 Red. masses --     8.6782                 9.3345                 1.6528
 Frc consts  --     0.0000                 0.0000                 0.0000
 IR Inten    --     2.9832                 1.9391                22.1770
 Raman Activ --     0.0000                 0.0000                 0.0000
 Depolar     --     0.0000                 0.0000                 0.0000
 Atom AN      X      Y      Z        X      Y      Z        X      Y      Z
   1   7    -0.12   0.05  -0.00    -0.30  -0.06  -0.00    -0.00  -0.00  -0.00
   2   6     0.16  -0.31  -0.00    -0.11  -0.11  -0.00     0.00  -0.00   0.03
   3   6     0.33   0.03   0.00     0.24   0.26   0.00    -0.00  -0.00   0.10
   4   6     0.02   0.42  -0.00     0.46  -0.02  -0.00     0.00   0.00   0.15
   5   6    -0.32  -0.03  -0.00     0.24  -0.27   0.00    -0.00   0.00   0.14
   6   6    -0.18  -0.34   0.00    -0.14   0.16  -0.00     0.00   0.00   0.08
   7   6     0.11   0.09  -0.00    -0.33   0.04   0.00     0.00   0.00   0.00
   8   1     0.06   0.14   0.00    -0.02   0.06   0.00    -0.00  -0.00  -0.00
   9   1    -0.13   0.02   0.00    -0.14  -0.01   0.00    -0.02  -0.02  -0.02
  10   1    -0.13   0.02  -0.00    -0.14  -0.01  -0.00     0.02   0.02  -0.02
  11   1     0.06  -0.08  -0.00    -0.07  -0.03  -0.00    -0.05   0.11  -0.07
  12   1     0.06  -0.08   0.00    -0.07  -0.03   0.00     0.05  -0.11  -0.08
  13   1     0.17   0.01   0.00     0.09   0.07   0.00     0.05   0.24  -0.16
  14   1     0.17   0.01  -0.00     0.09   0.07  -0.00    -0.05  -0.24  -0.16
  15   1     0.01   0.11   0.00     0.20  -0.01  -0.00    -0.02   0.33  -0.22
  16   1     0.01   0.11  -0.00     0.20  -0.01  -0.00     0.02  -0.33  -0.21
  17   1    -0.17  -0.01  -0.00     0.10  -0.07  -0.00    -0.02   0.32  -0.21
  18   1    -0.17  -0.01   0.00     0.10  -0.07   0.00     0.02  -0.32  -0.21
  19   1    -0.07  -0.09  -0.00    -0.08   0.04   0.00     0.04   0.20  -0.14
  20   1    -0.07  -0.09   0.00    -0.07   0.04  -0.00    -0.04  -0.20  -0.13
  21   1     0.12   0.03  -0.00    -0.16   0.01   0.00    -0.05   0.05  -0.04
  22   1     0.12   0.03   0.00    -0.16   0.01  -0.00     0.05  -0.05  -0.04
  23   1    -0.05   0.15  -0.00    -0.04  -0.07   0.00    -0.00  -0.00  -0.02
                     13                     14                     15
                        a                      a                      a 
 Frequencies --   778.7198               807.1024               857.7360
 Red. masses --     1.8514                 2.1682                 2.5799
 Frc consts  --     0.0000                 0.0000                 0.0000
 IR Inten    --     5.3665                22.9850                 4.7714
 Raman Activ --     0.0000                 0.0000                 0.0000
 Depolar     --     0.0000                 0.0000                 0.0000
 Atom AN      X      Y      Z        X      Y      Z        X      Y      Z
   1   7    -0.00  -0.00   0.03     0.00   0.00  -0.11    -0.00   0.00   0.16
   2   6     0.00  -0.00   0.13     0.00   0.00  -0.16    -0.00   0.00   0.01
   3   6    -0.00   0.00   0.15    -0.00  -0.00   0.06     0.00  -0.00  -0.22
   4   6     0.00   0.00   0.03    -0.00   0.00   0.17     0.00   0.00   0.08
   5   6    -0.00  -0.00  -0.12    -0.00   0.00   0.01     0.00   0.00   0.18
   6   6    -0.00  -0.00  -0.14    -0.00  -0.00  -0.18    -0.00  -0.00  -0.14
   7   6     0.00  -0.00  -0.02     0.00  -0.00  -0.04    -0.00  -0.00  -0.09
   8   1     0.00   0.00  -0.05     0.00   0.00   0.11    -0.00  -0.00  -0.12
   9   1    -0.12  -0.10  -0.07     0.25   0.19   0.12    -0.26  -0.19  -0.11
  10   1     0.12   0.10  -0.07    -0.25  -0.19   0.12     0.26   0.19  -0.10
  11   1    -0.07   0.29  -0.19    -0.05  -0.27   0.16     0.20   0.03  -0.02
  12   1     0.07  -0.29  -0.19     0.05   0.27   0.16    -0.20  -0.03  -0.02
  13   1    -0.03   0.29  -0.18     0.13   0.05  -0.02     0.02  -0.22   0.11
  14   1     0.03  -0.29  -0.18    -0.13  -0.05  -0.02    -0.02   0.22   0.11
  15   1     0.10   0.06  -0.04     0.01   0.23  -0.13    -0.16   0.09  -0.04
  16   1    -0.10  -0.06  -0.04    -0.01  -0.23  -0.13     0.16  -0.09  -0.04
  17   1    -0.07  -0.20   0.12    -0.13   0.00   0.00    -0.09   0.19  -0.10
  18   1     0.07   0.20   0.12     0.13  -0.00  -0.00     0.09  -0.19  -0.10
  19   1    -0.02  -0.26   0.16     0.03  -0.24   0.14     0.13  -0.16   0.09
  20   1     0.02   0.26   0.16    -0.03   0.24   0.14    -0.13   0.16   0.09
  21   1     0.10  -0.08   0.06     0.14  -0.11   0.08     0.19  -0.14   0.09
  22   1    -0.10   0.08   0.06    -0.14   0.11   0.08    -0.19   0.14   0.09
  23   1     0.00   0.00   0.05     0.00   0.00   0.08     0.00   0.00   0.11
                     16                     17                     18
                        a                      a                      a 
 Frequencies --   882.6736               926.8369               940.4504
 Red. masses --     5.2904                 2.6654                 5.9650
 Frc consts  --     0.0000                 0.0000                 0.0000
 IR Inten    --    53.9186                 7.6878                 5.0927
 Raman Activ --     0.0000                 0.0000                 0.0000
 Depolar     --     0.0000                 0.0000                 0.0000
 Atom AN      X      Y      Z        X      Y      Z        X      Y      Z
   1   7     0.37  -0.14   0.00     0.00  -0.00  -0.14     0.03  -0.07   0.00
   2   6     0.00  -0.19  -0.00    -0.00   0.00   0.15     0.00   0.06  -0.00
   3   6    -0.20   0.29  -0.00    -0.00   0.00   0.04    -0.02   0.00   0.00
   4   6    -0.12  -0.09   0.00     0.00  -0.00  -0.21     0.12  -0.13   0.00
   5   6    -0.04  -0.07   0.00     0.00   0.00   0.21     0.22   0.37  -0.00
   6   6     0.04   0.08  -0.00    -0.00  -0.00  -0.01    -0.08  -0.29   0.00
   7   6     0.07  -0.00  -0.00    -0.00  -0.00  -0.13    -0.35  -0.09   0.00
   8   1     0.45   0.46   0.00     0.00   0.00   0.08     0.08   0.09  -0.00
   9   1    -0.28   0.00   0.01     0.18   0.13   0.06    -0.08  -0.01   0.00
  10   1    -0.28   0.01  -0.02    -0.18  -0.13   0.06    -0.08  -0.01  -0.00
  11   1    -0.09  -0.05   0.00    -0.22   0.13  -0.06    -0.04   0.01   0.00
  12   1    -0.09  -0.05  -0.00     0.22  -0.13  -0.06    -0.04   0.02  -0.00
  13   1    -0.10   0.08   0.00    -0.25   0.03  -0.02    -0.05  -0.00   0.00
  14   1    -0.10   0.08  -0.00     0.25  -0.03  -0.02    -0.06  -0.00  -0.00
  15   1    -0.01  -0.02  -0.00    -0.10  -0.18   0.09     0.00  -0.03  -0.00
  16   1    -0.01  -0.02   0.00     0.10   0.18   0.09    -0.00  -0.03   0.00
  17   1     0.00  -0.02   0.00     0.13   0.18  -0.09     0.11   0.10   0.00
  18   1     0.00  -0.02  -0.00    -0.13  -0.18  -0.08     0.11   0.10  -0.00
  19   1     0.00   0.02  -0.00     0.24  -0.02   0.01     0.11  -0.08   0.00
  20   1     0.00   0.02   0.00    -0.23   0.01   0.01     0.11  -0.08  -0.00
  21   1    -0.02  -0.01   0.00     0.20  -0.15   0.09     0.22   0.03  -0.02
  22   1    -0.02  -0.01  -0.00    -0.20   0.15   0.09     0.22   0.03   0.02
  23   1     0.06  -0.06   0.00    -0.00   0.00   0.11    -0.39   0.42  -0.00
                     19                     20                     21
                        a                      a                      a 
 Frequencies --   982.5293               998.2015              1053.8479
 Red. masses --    10.8981                 2.0324                10.1452
 Frc consts  --     0.0000                 0.0000                 0.0000
 IR Inten    --    11.6366                 0.3049                 4.2261
 Raman Activ --     0.0000                 0.0000                 0.0000
 Depolar     --     0.0000                 0.0000                 0.0000
 Atom AN      X      Y      Z        X      Y      Z        X      Y      Z
   1   7     0.35   0.41   0.00     0.00   0.00   0.08    -0.04  -0.10  -0.00
   2   6    -0.55  -0.43  -0.00    -0.00  -0.00  -0.16     0.20   0.04   0.00
   3   6    -0.10  -0.06  -0.00     0.00   0.00   0.14    -0.40  -0.18   0.00
   4   6     0.04   0.15   0.00    -0.00  -0.00  -0.08     0.02   0.48  -0.00
   5   6     0.14  -0.05  -0.00    -0.00  -0.00  -0.02     0.34  -0.20   0.00
   6   6     0.02  -0.06  -0.00     0.00   0.00   0.12     0.22  -0.24   0.00
   7   6    -0.08   0.02   0.00     0.00  -0.00  -0.14    -0.21   0.23  -0.00
   8   1    -0.00  -0.03   0.00    -0.00  -0.00  -0.04     0.02   0.02   0.00
   9   1     0.21   0.09  -0.00    -0.09  -0.06  -0.03    -0.04  -0.02   0.00
  10   1     0.20   0.08   0.01     0.09   0.06  -0.03    -0.04  -0.02  -0.00
  11   1    -0.08  -0.10  -0.01     0.13  -0.12   0.05     0.10  -0.00   0.01
  12   1    -0.08  -0.10   0.01    -0.13   0.12   0.05     0.10  -0.00  -0.01
  13   1     0.05  -0.03   0.01     0.25   0.11  -0.04    -0.14  -0.04  -0.00
  14   1     0.06  -0.03  -0.01    -0.25  -0.11  -0.04    -0.14  -0.04   0.00
  15   1     0.03   0.04  -0.00     0.32  -0.06   0.02    -0.02   0.13  -0.00
  16   1     0.03   0.04   0.00    -0.32   0.06   0.02    -0.02   0.13   0.00
  17   1     0.04  -0.01  -0.00     0.33  -0.02   0.01     0.02  -0.05  -0.00
  18   1     0.05  -0.01   0.00    -0.33   0.02   0.01     0.02  -0.05   0.00
  19   1     0.00  -0.02   0.00     0.24   0.09  -0.04     0.01  -0.07   0.00
  20   1     0.01  -0.02  -0.00    -0.24  -0.09  -0.04     0.01  -0.07  -0.00
  21   1     0.00   0.01  -0.00     0.17  -0.12   0.07    -0.15   0.05   0.00
  22   1     0.00   0.01   0.00    -0.17   0.12   0.06    -0.15   0.05  -0.00
  23   1    -0.05   0.04  -0.00     0.00  -0.00   0.09     0.00  -0.03   0.00
                     22                     23                     24
                        a                      a                      a 
 Frequencies --  1082.2664              1093.3858              1105.0458
 Red. masses --     8.6398                 8.2676                 8.3031
 Frc consts  --     0.0000                 0.0000                 0.0000
 IR Inten    --    13.8200                17.2393                 0.8275
 Raman Activ --     0.0000                 0.0000                 0.0000
 Depolar     --     0.0000                 0.0000                 0.0000
 Atom AN      X      Y      Z        X      Y      Z        X      Y      Z
   1   7    -0.10   0.05  -0.00     0.07  -0.05   0.00    -0.02   0.04  -0.00
   2   6     0.20  -0.18   0.00    -0.25   0.28  -0.00     0.03  -0.11   0.00
   3   6     0.05   0.39  -0.00     0.48  -0.11   0.00    -0.00   0.12  -0.00
   4   6    -0.54  -0.01   0.00    -0.27  -0.06  -0.00     0.10  -0.22   0.00
   5   6     0.17  -0.29   0.00     0.17  -0.03  -0.00    -0.40  -0.02   0.00
   6   6     0.10   0.10  -0.00     0.16  -0.27   0.00     0.52  -0.06  -0.00
   7   6    -0.12  -0.08   0.00    -0.11   0.23  -0.00    -0.28   0.25  -0.00
   8   1    -0.11  -0.10  -0.00     0.09   0.09   0.00    -0.04  -0.04  -0.00
   9   1     0.08  -0.00  -0.01    -0.08   0.01   0.01     0.04   0.00  -0.00
  10   1     0.07  -0.00   0.01    -0.08   0.01  -0.01     0.04   0.00   0.00
  11   1     0.11  -0.05   0.00    -0.19   0.09  -0.01     0.03  -0.03  -0.00
  12   1     0.11  -0.05  -0.00    -0.19   0.09   0.01     0.03  -0.03   0.00
  13   1     0.14   0.11  -0.01     0.14  -0.02  -0.00    -0.01   0.03   0.00
  14   1     0.14   0.11   0.01     0.14  -0.03   0.00    -0.01   0.03  -0.00
  15   1    -0.13   0.00  -0.00    -0.23  -0.02  -0.00     0.10  -0.07   0.00
  16   1    -0.13   0.00   0.00    -0.23  -0.02  -0.00     0.11  -0.07  -0.00
  17   1     0.18  -0.08   0.00     0.00  -0.02   0.00    -0.20  -0.02   0.01
  18   1     0.18  -0.08  -0.00     0.00  -0.02  -0.00    -0.20  -0.02  -0.01
  19   1     0.09   0.02   0.00    -0.01  -0.07   0.00     0.29  -0.02   0.00
  20   1     0.09   0.02  -0.00    -0.01  -0.07  -0.00     0.29  -0.02  -0.00
  21   1     0.09   0.01  -0.01    -0.17   0.04   0.01    -0.11   0.08  -0.01
  22   1     0.09   0.01   0.01    -0.17   0.04  -0.01    -0.11   0.07   0.01
  23   1    -0.13   0.14  -0.00     0.07  -0.09   0.00    -0.07   0.06  -0.00
                     25                     26                     27
                        a                      a                      a 
 Frequencies --  1137.0079              1172.3207              1203.7154
 Red. masses --     8.5892                 6.5202                 4.9222
 Frc consts  --     0.0000                 0.0000                 0.0000
 IR Inten    --     5.9416                 8.0955                 4.7019
 Raman Activ --     0.0000                 0.0000                 0.0000
 Depolar     --     0.0000                 0.0000                 0.0000
 Atom AN      X      Y      Z        X      Y      Z        X      Y      Z
   1   7    -0.07   0.08   0.00    -0.00   0.00   0.20    -0.00  -0.00   0.18
   2   6     0.15  -0.25  -0.00     0.00  -0.00  -0.37     0.00   0.00  -0.24
   3   6    -0.08   0.34   0.00    -0.00   0.00   0.33    -0.00  -0.00   0.04
   4   6    -0.00  -0.27   0.00     0.00  -0.00  -0.29     0.00   0.00   0.13
   5   6     0.15   0.39  -0.00     0.00   0.00   0.25    -0.00  -0.00  -0.26
   6   6    -0.13  -0.39   0.00    -0.00  -0.00  -0.21     0.00   0.00   0.34
   7   6     0.09   0.21  -0.00     0.00   0.00   0.13    -0.00  -0.00  -0.24
   8   1    -0.09  -0.09  -0.00    -0.00  -0.00  -0.07    -0.00   0.00  -0.06
   9   1     0.08  -0.00  -0.01    -0.14  -0.12  -0.04    -0.11  -0.10  -0.03
  10   1     0.08  -0.00   0.01     0.14   0.12  -0.04     0.11   0.10  -0.03
  11   1     0.09  -0.07   0.00    -0.10  -0.22   0.07    -0.26  -0.15   0.05
  12   1     0.09  -0.07  -0.00     0.10   0.22   0.07     0.26   0.15   0.05
  13   1    -0.04   0.09   0.00    -0.06   0.19  -0.07    -0.17   0.02  -0.01
  14   1    -0.04   0.09  -0.00     0.06  -0.19  -0.07     0.17  -0.02  -0.01
  15   1    -0.03  -0.06  -0.01    -0.08  -0.17   0.06    -0.19   0.07  -0.02
  16   1    -0.03  -0.06   0.01     0.08   0.17   0.06     0.19  -0.07  -0.02
  17   1     0.02   0.10   0.00    -0.07   0.14  -0.05    -0.09  -0.14   0.05
  18   1     0.03   0.10  -0.00     0.07  -0.14  -0.05     0.09   0.15   0.05
  19   1    -0.15  -0.10  -0.00    -0.04  -0.12   0.04    -0.07   0.19  -0.06
  20   1    -0.15  -0.10   0.00     0.04   0.12   0.04     0.07  -0.19  -0.06
  21   1    -0.20   0.01   0.02    -0.10   0.08  -0.04     0.18  -0.15   0.06
  22   1    -0.19   0.01  -0.02     0.10  -0.08  -0.04    -0.18   0.15   0.06
  23   1     0.18  -0.20   0.00    -0.00   0.00  -0.06     0.00   0.00   0.11
                     28                     29                     30
                        a                      a                      a 
 Frequencies --  1240.7185              1253.0722              1260.8480
 Red. masses --     3.2765                 3.4119                 1.9832
 Frc consts  --     0.0000                 0.0000                 0.0000
 IR Inten    --     8.6256                 2.6228                 6.2505
 Raman Activ --     0.0000                 0.0000                 0.0000
 Depolar     --     0.0000                 0.0000                 0.0000
 Atom AN      X      Y      Z        X      Y      Z        X      Y      Z
   1   7    -0.00  -0.00   0.15    -0.01   0.10   0.00    -0.00  -0.00   0.02
   2   6    -0.00   0.00  -0.01     0.14  -0.15   0.00    -0.00   0.00   0.16
   3   6    -0.00  -0.00  -0.25     0.18   0.12  -0.00    -0.00   0.00  -0.04
   4   6    -0.00   0.00   0.20     0.20  -0.01   0.00    -0.00  -0.00  -0.18
   5   6    -0.00   0.00  -0.05     0.16  -0.09  -0.00    -0.00   0.00   0.11
   6   6    -0.00  -0.00  -0.19     0.11   0.14  -0.00    -0.00  -0.00   0.02
   7   6     0.00   0.00   0.19    -0.04  -0.10   0.00    -0.00  -0.00  -0.12
   8   1     0.00   0.00  -0.04    -0.08  -0.08  -0.00     0.00   0.00   0.01
   9   1    -0.08  -0.07  -0.02     0.03  -0.01  -0.02    -0.01  -0.00   0.00
  10   1     0.08   0.07  -0.02     0.03  -0.01   0.02     0.01   0.00   0.00
  11   1    -0.45  -0.02   0.01    -0.17  -0.03  -0.00    -0.26   0.07  -0.01
  12   1     0.45   0.02   0.01    -0.17  -0.04   0.00     0.26  -0.07  -0.01
  13   1     0.02  -0.14   0.04    -0.32   0.01   0.01     0.50  -0.03   0.02
  14   1    -0.01   0.14   0.04    -0.33   0.01  -0.01    -0.50   0.03   0.02
  15   1     0.09   0.11  -0.04    -0.36   0.01  -0.00    -0.16  -0.10   0.03
  16   1    -0.09  -0.11  -0.04    -0.36   0.01   0.00     0.16   0.10   0.03
  17   1     0.24  -0.03   0.01    -0.29  -0.02   0.00     0.04   0.06  -0.02
  18   1    -0.24   0.03   0.01    -0.29  -0.02   0.00    -0.04  -0.06  -0.02
  19   1     0.20  -0.10   0.03    -0.13   0.03   0.00    -0.29   0.01  -0.00
  20   1    -0.20   0.10   0.03    -0.13   0.03  -0.00     0.29  -0.01  -0.00
  21   1    -0.12   0.11  -0.04     0.06   0.00  -0.02     0.08  -0.07   0.02
  22   1     0.12  -0.11  -0.04     0.06   0.00   0.02    -0.08   0.07   0.02
  23   1     0.00  -0.00  -0.08    -0.08   0.08  -0.00     0.00  -0.00   0.04
                     31                     32                     33
                        a                      a                      a 
 Frequencies --  1279.4701              1286.0793              1301.2018
 Red. masses --     2.0943                 2.0300                 3.4906
 Frc consts  --     0.0000                 0.0000                 0.0000
 IR Inten    --     0.5295                 0.0508                10.5822
 Raman Activ --     0.0000                 0.0000                 0.0000
 Depolar     --     0.0000                 0.0000                 0.0000
 Atom AN      X      Y      Z        X      Y      Z        X      Y      Z
   1   7    -0.00  -0.00   0.05     0.00   0.00  -0.01     0.03   0.14   0.00
   2   6     0.00   0.00   0.01     0.00  -0.00   0.06     0.26  -0.09   0.00
   3   6     0.00   0.00  -0.18     0.00   0.00   0.05     0.13  -0.06  -0.00
   4   6    -0.00  -0.00  -0.10     0.00   0.00  -0.15    -0.04   0.11   0.00
   5   6     0.00   0.00   0.19    -0.00  -0.00  -0.19    -0.20  -0.04   0.00
   6   6     0.00   0.00   0.10    -0.00   0.00   0.11    -0.18  -0.07   0.00
   7   6    -0.00  -0.00  -0.08     0.00   0.00   0.12     0.04   0.10  -0.00
   8   1    -0.00  -0.00  -0.01    -0.00  -0.00   0.01    -0.11  -0.13  -0.00
   9   1    -0.02  -0.02  -0.01     0.00   0.01   0.00    -0.03  -0.03  -0.05
  10   1     0.02   0.02  -0.01    -0.00  -0.01   0.00    -0.03  -0.04   0.05
  11   1    -0.17   0.00  -0.00    -0.04   0.03  -0.00    -0.38  -0.01  -0.01
  12   1     0.17  -0.00  -0.00     0.04  -0.03  -0.00    -0.38  -0.01   0.00
  13   1    -0.04  -0.09   0.02     0.24   0.03  -0.00    -0.24  -0.01  -0.01
  14   1     0.04   0.09   0.02    -0.24  -0.03  -0.00    -0.23  -0.01   0.01
  15   1     0.49  -0.05   0.01    -0.15  -0.08   0.02     0.06   0.01   0.01
  16   1    -0.50   0.05   0.01     0.15   0.08   0.02     0.06   0.01  -0.01
  17   1    -0.38   0.10  -0.03    -0.35  -0.09   0.02     0.31   0.00  -0.01
  18   1     0.38  -0.10  -0.03     0.35   0.09   0.02     0.31   0.00   0.01
  19   1    -0.06   0.05  -0.01     0.47   0.06  -0.02     0.24  -0.02  -0.00
  20   1     0.06  -0.05  -0.01    -0.46  -0.06  -0.02     0.25  -0.02   0.00
  21   1     0.04  -0.04   0.02    -0.07   0.06  -0.02    -0.03  -0.01   0.02
  22   1    -0.04   0.04   0.02     0.07  -0.06  -0.02    -0.03  -0.01  -0.02
  23   1    -0.00   0.00   0.04     0.00  -0.00  -0.02     0.08  -0.09   0.00
                     34                     35                     36
                        a                      a                      a 
 Frequencies --  1335.2463              1361.0574              1370.0827
 Red. masses --     3.8166                 4.3731                 3.0855
 Frc consts  --     0.0000                 0.0000                 0.0000
 IR Inten    --     8.7354                14.8285               185.1653
 Raman Activ --     0.0000                 0.0000                 0.0000
 Depolar     --     0.0000                 0.0000                 0.0000
 Atom AN      X      Y      Z        X      Y      Z        X      Y      Z
   1   7    -0.06  -0.13  -0.00     0.08   0.02   0.00     0.31   0.15   0.00
   2   6    -0.29  -0.00  -0.00    -0.11  -0.02  -0.00    -0.10   0.04  -0.00
   3   6     0.26   0.08  -0.00     0.33  -0.01   0.00    -0.05   0.03   0.00
   4   6     0.09   0.05   0.00    -0.36   0.05  -0.00     0.06  -0.03   0.00
   5   6    -0.07  -0.07   0.00     0.05   0.06  -0.00     0.08  -0.02  -0.00
   6   6    -0.22  -0.01   0.00     0.19  -0.01  -0.00    -0.14   0.01   0.00
   7   6     0.03   0.07  -0.00    -0.02  -0.06   0.00     0.01   0.03  -0.00
   8   1     0.09   0.12   0.00    -0.08  -0.12  -0.00    -0.27  -0.41  -0.00
   9   1     0.08   0.07   0.07    -0.11  -0.00  -0.00    -0.45  -0.13  -0.12
  10   1     0.08   0.07  -0.07    -0.11  -0.00   0.00    -0.45  -0.13   0.11
  11   1     0.38   0.00  -0.00     0.11  -0.01  -0.00     0.15  -0.03   0.03
  12   1     0.38   0.00   0.00     0.11  -0.01   0.00     0.15  -0.03  -0.03
  13   1    -0.29  -0.03   0.03    -0.33  -0.04   0.02     0.07   0.01   0.00
  14   1    -0.29  -0.03  -0.03    -0.33  -0.04  -0.02     0.07   0.01  -0.00
  15   1    -0.17   0.01   0.00     0.37  -0.03   0.02    -0.08   0.01  -0.01
  16   1    -0.17   0.01  -0.00     0.37  -0.03  -0.02    -0.08   0.01   0.01
  17   1     0.11  -0.00  -0.01    -0.02  -0.01   0.02    -0.08  -0.00  -0.00
  18   1     0.11  -0.00   0.01    -0.02  -0.01  -0.02    -0.08  -0.00   0.00
  19   1     0.26  -0.01   0.00    -0.23   0.01  -0.00     0.14  -0.01   0.01
  20   1     0.26  -0.01  -0.00    -0.23   0.01   0.00     0.14  -0.01  -0.01
  21   1    -0.00  -0.02   0.03    -0.01   0.02  -0.02     0.01  -0.02   0.02
  22   1    -0.00  -0.02  -0.03    -0.01   0.02   0.02     0.01  -0.02  -0.02
  23   1     0.07  -0.07   0.00    -0.06   0.07  -0.00     0.03  -0.03   0.00
                     37                     38                     39
                        a                      a                      a 
 Frequencies --  1379.5624              1422.3252              1428.4516
 Red. masses --     4.9981                 1.6234                 1.6640
 Frc consts  --     0.0000                 0.0000                 0.0000
 IR Inten    --     5.4201                86.8145                74.6294
 Raman Activ --     0.0000                 0.0000                 0.0000
 Depolar     --     0.0000                 0.0000                 0.0000
 Atom AN      X      Y      Z        X      Y      Z        X      Y      Z
   1   7     0.06   0.02   0.00     0.00   0.00  -0.22     0.09  -0.19  -0.00
   2   6    -0.06   0.01  -0.00    -0.00   0.00  -0.03     0.06  -0.04  -0.00
   3   6    -0.02   0.02  -0.00     0.00   0.00   0.00    -0.04   0.02   0.00
   4   6     0.24   0.02   0.00    -0.00   0.00   0.00     0.02  -0.01  -0.00
   5   6    -0.41  -0.00   0.00     0.00  -0.00   0.00    -0.01   0.00   0.00
   6   6     0.35  -0.05  -0.00    -0.00   0.00   0.00     0.00  -0.00  -0.00
   7   6    -0.04  -0.05   0.00    -0.00   0.00   0.00     0.00  -0.00   0.00
   8   1    -0.04  -0.07  -0.00    -0.00  -0.00   0.74    -0.13  -0.23   0.00
   9   1    -0.09  -0.03  -0.02    -0.41   0.17   0.08    -0.12   0.52   0.39
  10   1    -0.09  -0.03   0.02     0.41  -0.17   0.08    -0.12   0.52  -0.38
  11   1     0.09  -0.01   0.01    -0.02  -0.02   0.00    -0.06   0.00  -0.01
  12   1     0.09  -0.01  -0.01     0.02   0.02   0.00    -0.06   0.00   0.01
  13   1     0.00  -0.00   0.01    -0.01  -0.00  -0.00     0.03  -0.02   0.02
  14   1     0.00  -0.00  -0.01     0.01   0.00  -0.00     0.03  -0.02  -0.02
  15   1    -0.21   0.01  -0.00     0.00   0.00  -0.00    -0.01   0.01  -0.01
  16   1    -0.21   0.01   0.00    -0.00  -0.00  -0.00    -0.01   0.01   0.01
  17   1     0.39   0.02  -0.01    -0.00   0.00   0.00     0.00   0.00   0.00
  18   1     0.39   0.02   0.01     0.00  -0.00   0.00     0.00   0.00  -0.00
  19   1    -0.31   0.02  -0.02    -0.00  -0.00   0.00    -0.00   0.00  -0.00
  20   1    -0.31   0.02   0.02     0.00   0.00   0.00    -0.00   0.00   0.00
  21   1    -0.01   0.04  -0.04     0.00   0.00  -0.00    -0.00   0.00  -0.00
  22   1    -0.01   0.04   0.03    -0.00  -0.00  -0.00    -0.00   0.00   0.00
  23   1    -0.05   0.05  -0.00     0.00  -0.00  -0.00    -0.00   0.00  -0.00
                     40                     41                     42
                        a                      a                      a 
 Frequencies --  1436.6518              1481.9343              1506.4386
 Red. masses --     3.2087                 1.8695                 1.5219
 Frc consts  --     0.0000                 0.0000                 0.0000
 IR Inten    --     2.0324                10.1130                 5.7520
 Raman Activ --     0.0000                 0.0000                 0.0000
 Depolar     --     0.0000                 0.0000                 0.0000
 Atom AN      X      Y      Z        X      Y      Z        X      Y      Z
   1   7    -0.00  -0.00  -0.00    -0.01   0.01  -0.00     0.00  -0.00   0.00
   2   6     0.00  -0.00   0.00    -0.01   0.28   0.00    -0.00  -0.00  -0.00
   3   6     0.00   0.00   0.00     0.03  -0.02  -0.00     0.00  -0.00  -0.00
   4   6    -0.02  -0.01   0.00    -0.01  -0.03   0.00     0.00   0.00  -0.00
   5   6    -0.00   0.02  -0.00    -0.00   0.01   0.00    -0.00  -0.00  -0.00
   6   6     0.09  -0.00  -0.00    -0.00   0.00  -0.00     0.00  -0.00   0.05
   7   6    -0.38   0.22  -0.00     0.00   0.00  -0.00     0.00   0.00   0.21
   8   1    -0.00  -0.00  -0.00     0.01   0.03   0.00     0.00  -0.00  -0.00
   9   1     0.00   0.00   0.00     0.04   0.03   0.02     0.00  -0.00  -0.00
  10   1     0.00   0.00  -0.00     0.04   0.03  -0.02    -0.00   0.00  -0.00
  11   1    -0.00  -0.00   0.00    -0.03  -0.53   0.41     0.00   0.00  -0.00
  12   1    -0.00  -0.00  -0.00    -0.03  -0.53  -0.41    -0.00  -0.00  -0.00
  13   1    -0.00  -0.00   0.00    -0.01   0.02  -0.02    -0.00   0.00  -0.00
  14   1    -0.00  -0.00  -0.00    -0.01   0.02   0.02     0.00   0.00   0.00
  15   1     0.02  -0.00   0.00     0.01   0.05  -0.04     0.00  -0.00   0.00
  16   1     0.02  -0.00  -0.00     0.01   0.05   0.04    -0.00  -0.00  -0.00
  17   1    -0.01   0.01  -0.00    -0.00  -0.02   0.01    -0.02  -0.00   0.00
  18   1    -0.01   0.01   0.00    -0.00  -0.02  -0.01     0.02   0.00   0.00
  19   1    -0.08  -0.03   0.02     0.00  -0.00   0.00    -0.02   0.02  -0.00
  20   1    -0.08  -0.03  -0.02     0.00  -0.00  -0.00     0.02  -0.02   0.00
  21   1     0.46  -0.15   0.15    -0.00  -0.00   0.00     0.44   0.14  -0.07
  22   1     0.46  -0.15  -0.15    -0.00  -0.00  -0.00    -0.44  -0.16  -0.08
  23   1     0.27  -0.44   0.00    -0.00   0.00  -0.00    -0.01  -0.00  -0.72
                     43                     44                     45
                        a                      a                      a 
 Frequencies --  1507.6577              1508.8277              1513.4277
 Red. masses --     1.8853                 1.6344                 1.8731
 Frc consts  --     0.0000                 0.0000                 0.0000
 IR Inten    --     0.9696                 2.8448                 1.6135
 Raman Activ --     0.0000                 0.0000                 0.0000
 Depolar     --     0.0000                 0.0000                 0.0000
 Atom AN      X      Y      Z        X      Y      Z        X      Y      Z
   1   7     0.01  -0.01  -0.00    -0.00   0.00   0.00     0.00   0.00  -0.00
   2   6    -0.03  -0.02  -0.00     0.01   0.02   0.00     0.01   0.03   0.00
   3   6     0.02  -0.25   0.00    -0.01   0.07  -0.00    -0.03   0.07  -0.00
   4   6     0.02   0.08  -0.00    -0.00   0.08  -0.00     0.01   0.24  -0.00
   5   6    -0.01   0.06  -0.00     0.00  -0.10   0.00     0.03  -0.03   0.00
   6   6     0.00  -0.04  -0.00     0.05  -0.04  -0.00    -0.03  -0.06   0.00
   7   6     0.01   0.04  -0.00     0.08   0.16  -0.00    -0.04  -0.08   0.00
   8   1    -0.00  -0.00   0.00     0.00   0.00  -0.00    -0.00  -0.00  -0.00
   9   1    -0.00   0.02   0.02     0.00  -0.00  -0.00     0.00   0.00   0.00
  10   1    -0.00   0.02  -0.02     0.00  -0.00   0.00     0.00   0.00  -0.00
  11   1     0.03   0.00  -0.01    -0.01  -0.02   0.02    -0.00  -0.05   0.04
  12   1     0.03   0.00   0.01    -0.01  -0.02  -0.02    -0.00  -0.05  -0.04
  13   1    -0.04   0.48  -0.37     0.02  -0.12   0.10     0.03  -0.09   0.08
  14   1    -0.04   0.48   0.37     0.02  -0.12  -0.10     0.03  -0.09  -0.08
  15   1    -0.02  -0.16   0.12    -0.01  -0.15   0.12    -0.03  -0.46   0.36
  16   1    -0.02  -0.16  -0.12    -0.01  -0.15  -0.11    -0.03  -0.46  -0.35
  17   1     0.00  -0.12   0.09    -0.01   0.17  -0.13    -0.01   0.07  -0.05
  18   1     0.00  -0.12  -0.09    -0.01   0.17   0.13    -0.01   0.07   0.05
  19   1    -0.00   0.10  -0.07    -0.03   0.13  -0.10     0.02   0.07  -0.06
  20   1    -0.00   0.10   0.07    -0.03   0.13   0.09     0.02   0.07   0.06
  21   1    -0.02  -0.10   0.07    -0.11  -0.44   0.32     0.05   0.22  -0.16
  22   1    -0.01  -0.10  -0.07    -0.09  -0.44  -0.32     0.05   0.22   0.16
  23   1    -0.03   0.04   0.01    -0.14   0.22   0.01     0.07  -0.12  -0.00
                     46                     47                     48
                        a                      a                      a 
 Frequencies --  1517.4882              1522.4984              2919.2938
 Red. masses --     1.8531                 2.0209                 1.9008
 Frc consts  --     0.0000                 0.0000                 0.0000
 IR Inten    --     1.5452                 1.2626                 9.2419
 Raman Activ --     0.0000                 0.0000                 0.0000
 Depolar     --     0.0000                 0.0000                 0.0000
 Atom AN      X      Y      Z        X      Y      Z        X      Y      Z
   1   7     0.00  -0.00  -0.00    -0.00  -0.00   0.00    -0.00   0.00  -0.00
   2   6    -0.01  -0.00   0.00    -0.00  -0.00  -0.00    -0.00  -0.00   0.01
   3   6     0.02  -0.09  -0.00     0.01  -0.02   0.00    -0.00  -0.00  -0.01
   4   6    -0.02  -0.03   0.00    -0.02  -0.09   0.00    -0.00   0.00   0.03
   5   6     0.00  -0.23   0.00     0.03  -0.11   0.00    -0.00  -0.00  -0.13
   6   6     0.01   0.10  -0.00    -0.02  -0.26   0.00     0.00   0.00   0.25
   7   6    -0.00  -0.02   0.00    -0.04  -0.04   0.00    -0.00  -0.00  -0.01
   8   1    -0.00  -0.00   0.00    -0.00  -0.00   0.00     0.00  -0.00   0.00
   9   1    -0.00   0.01   0.01     0.00  -0.00  -0.00    -0.00  -0.00   0.00
  10   1    -0.00   0.01  -0.01     0.00  -0.00   0.00     0.00   0.00   0.00
  11   1     0.01  -0.00   0.00     0.00   0.01  -0.01     0.00  -0.01  -0.01
  12   1     0.01  -0.00  -0.00     0.00   0.01   0.01    -0.00   0.01  -0.01
  13   1    -0.02   0.18  -0.14    -0.01   0.03  -0.03     0.00   0.02   0.02
  14   1    -0.02   0.18   0.14    -0.01   0.03   0.03    -0.00  -0.02   0.02
  15   1     0.02   0.02  -0.02     0.02   0.15  -0.12     0.00  -0.06  -0.07
  16   1     0.02   0.02   0.02     0.02   0.15   0.12    -0.00   0.06  -0.07
  17   1    -0.01   0.46  -0.35    -0.02   0.18  -0.14     0.00   0.20   0.24
  18   1    -0.01   0.46   0.34    -0.02   0.18   0.14     0.00  -0.20   0.25
  19   1    -0.01  -0.22   0.17     0.02   0.45  -0.36    -0.00  -0.37  -0.46
  20   1    -0.01  -0.22  -0.16     0.03   0.46   0.35     0.00   0.37  -0.46
  21   1    -0.00   0.06  -0.04     0.05   0.12  -0.09    -0.00   0.03   0.04
  22   1    -0.00   0.06   0.04     0.05   0.12   0.09     0.00  -0.03   0.04
  23   1     0.01  -0.01  -0.00     0.05  -0.09  -0.00    -0.00  -0.00  -0.00
                     49                     50                     51
                        a                      a                      a 
 Frequencies --  2930.8608              2940.4801              2951.1761
 Red. masses --     1.9245                 1.9723                 1.9967
 Frc consts  --     0.0000                 0.0000                 0.0000
 IR Inten    --     8.9180                25.0518                74.9089
 Raman Activ --     0.0000                 0.0000                 0.0000
 Depolar     --     0.0000                 0.0000                 0.0000
 Atom AN      X      Y      Z        X      Y      Z        X      Y      Z
   1   7    -0.00   0.00  -0.00    -0.00   0.00  -0.00     0.00  -0.00   0.00
   2   6    -0.00  -0.00   0.01    -0.00  -0.00   0.04     0.00   0.00  -0.09
   3   6    -0.00  -0.00  -0.06     0.00  -0.00  -0.17    -0.00   0.00   0.21
   4   6    -0.00   0.00   0.20    -0.00   0.00   0.12    -0.00   0.00   0.17
   5   6    -0.00  -0.00  -0.15     0.00   0.00   0.19     0.00  -0.00   0.09
   6   6    -0.00  -0.00  -0.12     0.00   0.00   0.08     0.00   0.00   0.04
   7   6     0.00   0.00   0.01    -0.00  -0.00  -0.01    -0.00  -0.00  -0.01
   8   1     0.00  -0.00  -0.00     0.00  -0.00  -0.00    -0.00   0.00   0.00
   9   1    -0.00  -0.00   0.00    -0.00  -0.00   0.00     0.00   0.01  -0.01
  10   1     0.00   0.00   0.00     0.00   0.00   0.00    -0.00  -0.01  -0.01
  11   1     0.00  -0.02  -0.02     0.00  -0.06  -0.08    -0.00   0.13   0.17
  12   1    -0.00   0.02  -0.02    -0.00   0.06  -0.08    -0.00  -0.13   0.17
  13   1     0.00   0.10   0.13    -0.01   0.25   0.31     0.01  -0.29  -0.37
  14   1    -0.00  -0.10   0.13     0.00  -0.24   0.31    -0.00   0.29  -0.37
  15   1    -0.00  -0.30  -0.37    -0.00  -0.17  -0.22    -0.00  -0.23  -0.29
  16   1     0.00   0.30  -0.37     0.00   0.17  -0.22     0.00   0.23  -0.30
  17   1    -0.00   0.23   0.28    -0.00  -0.27  -0.34     0.00  -0.13  -0.16
  18   1     0.00  -0.22   0.29    -0.00   0.26  -0.34    -0.00   0.13  -0.16
  19   1    -0.00   0.16   0.21    -0.00  -0.10  -0.13    -0.00  -0.05  -0.07
  20   1     0.00  -0.16   0.21    -0.00   0.10  -0.13     0.00   0.04  -0.06
  21   1     0.00  -0.02  -0.02    -0.00   0.02   0.02    -0.00   0.01   0.02
  22   1    -0.00   0.02  -0.02     0.00  -0.02   0.02     0.00  -0.01   0.02
  23   1     0.00   0.00   0.00    -0.00  -0.00  -0.00     0.00   0.00  -0.00
                     52                     53                     54
                        a                      a                      a 
 Frequencies --  2952.0978              2961.4165              2968.8136
 Red. masses --     1.4819                 1.4777                 1.5059
 Frc consts  --     0.0000                 0.0000                 0.0000
 IR Inten    --    11.2991                 4.0406                23.1249
 Raman Activ --     0.0000                 0.0000                 0.0000
 Depolar     --     0.0000                 0.0000                 0.0000
 Atom AN      X      Y      Z        X      Y      Z        X      Y      Z
   1   7     0.00   0.00  -0.00    -0.00  -0.00   0.00    -0.00   0.00   0.00
   2   6    -0.00   0.00   0.00    -0.00  -0.01  -0.00     0.00   0.01  -0.01
   3   6    -0.00   0.01  -0.00     0.00  -0.00   0.00     0.00  -0.11  -0.00
   4   6    -0.00  -0.03  -0.00     0.00   0.13  -0.00     0.00   0.13  -0.00
   5   6     0.00  -0.06  -0.00    -0.00  -0.15   0.00    -0.00   0.11  -0.00
   6   6    -0.00   0.20  -0.00    -0.00  -0.04   0.00     0.00   0.05  -0.00
   7   6    -0.01  -0.02   0.00     0.01   0.02  -0.00    -0.01  -0.02   0.00
   8   1     0.00  -0.00  -0.00     0.00  -0.00  -0.00     0.00  -0.00   0.00
   9   1    -0.00   0.00   0.00    -0.00  -0.00  -0.00     0.00   0.00  -0.00
  10   1    -0.00   0.00   0.00    -0.00  -0.00   0.00     0.00   0.00   0.00
  11   1    -0.00  -0.00  -0.00     0.00   0.01   0.02     0.00  -0.02  -0.02
  12   1    -0.00   0.00  -0.00     0.00   0.01  -0.02     0.00  -0.03   0.05
  13   1     0.00  -0.01  -0.02     0.00   0.02   0.03    -0.01   0.22   0.33
  14   1     0.00  -0.02   0.03     0.00   0.02  -0.03    -0.01   0.21  -0.32
  15   1     0.00   0.04   0.07    -0.00  -0.25  -0.37    -0.00  -0.23  -0.35
  16   1     0.00   0.04  -0.06    -0.00  -0.25   0.37    -0.00  -0.23   0.35
  17   1     0.00   0.12   0.18    -0.00   0.29   0.43    -0.00  -0.19  -0.28
  18   1    -0.00   0.12  -0.18    -0.00   0.28  -0.43     0.00  -0.19   0.28
  19   1    -0.00  -0.36  -0.54    -0.00   0.06   0.09    -0.00  -0.10  -0.14
  20   1     0.00  -0.36   0.54    -0.00   0.06  -0.09    -0.00  -0.09   0.14
  21   1    -0.00   0.03   0.04     0.00  -0.02  -0.03    -0.00   0.02   0.03
  22   1    -0.00   0.02  -0.04     0.00  -0.02   0.03    -0.00   0.02  -0.03
  23   1     0.04   0.02  -0.00    -0.03  -0.02   0.00     0.04   0.03  -0.00
                     55                     56                     57
                        a                      a                      a 
 Frequencies --  2969.8117              2978.0719              2993.6588
 Red. masses --     2.0122                 1.5151                 1.5369
 Frc consts  --     0.0000                 0.0000                 0.0000
 IR Inten    --    11.1774                52.9856                24.3215
 Raman Activ --     0.0000                 0.0000                 0.0000
 Depolar     --     0.0000                 0.0000                 0.0000
 Atom AN      X      Y      Z        X      Y      Z        X      Y      Z
   1   7     0.00   0.00   0.00    -0.00  -0.00  -0.00    -0.00   0.00  -0.00
   2   6     0.00   0.00  -0.28    -0.00  -0.08  -0.00    -0.00  -0.20  -0.00
   3   6    -0.00   0.00  -0.11    -0.00   0.16  -0.00     0.01  -0.08   0.00
   4   6    -0.00  -0.00  -0.03     0.00   0.10  -0.00    -0.00  -0.04  -0.00
   5   6     0.00  -0.00  -0.01    -0.00   0.07  -0.00     0.00  -0.02   0.00
   6   6    -0.00  -0.00  -0.00     0.00   0.02  -0.00    -0.00  -0.00   0.00
   7   6     0.00   0.00   0.00    -0.01  -0.02  -0.00     0.01   0.01   0.00
   8   1    -0.00   0.00   0.00    -0.00   0.00  -0.00     0.00  -0.00  -0.00
   9   1    -0.00   0.01  -0.01    -0.00  -0.00   0.01     0.00  -0.01   0.01
  10   1     0.00  -0.01  -0.01    -0.00  -0.00  -0.01     0.00  -0.01  -0.01
  11   1    -0.00   0.39   0.50     0.00   0.16   0.24     0.00   0.35   0.52
  12   1     0.00  -0.39   0.50     0.00   0.16  -0.23     0.00   0.35  -0.52
  13   1    -0.00   0.14   0.17     0.01  -0.28  -0.42    -0.00   0.14   0.21
  14   1     0.00  -0.14   0.18     0.01  -0.29   0.43    -0.00   0.14  -0.21
  15   1     0.00   0.04   0.05    -0.00  -0.16  -0.24     0.00   0.07   0.10
  16   1    -0.00  -0.03   0.04    -0.00  -0.16   0.24     0.00   0.06  -0.10
  17   1    -0.00   0.02   0.03     0.00  -0.12  -0.18    -0.00   0.03   0.04
  18   1     0.00  -0.01   0.01     0.00  -0.12   0.18    -0.00   0.03  -0.04
  19   1     0.00   0.00   0.00    -0.00  -0.04  -0.06     0.00   0.01   0.01
  20   1    -0.00   0.00  -0.00    -0.00  -0.04   0.06     0.00   0.01  -0.01
  21   1     0.00  -0.00  -0.00    -0.00   0.02   0.03     0.00  -0.01  -0.02
  22   1     0.00   0.00  -0.00    -0.00   0.02  -0.03     0.00  -0.01   0.02
  23   1    -0.00  -0.00   0.00     0.04   0.02  -0.00    -0.03  -0.02   0.00
                     58                     59                     60
                        a                      a                      a 
 Frequencies --  3005.1978              3006.5034              3020.5644
 Red. masses --     1.9148                 1.9432                 1.2890
 Frc consts  --     0.0000                 0.0000                 0.0000
 IR Inten    --    39.7605                45.3874                29.7379
 Raman Activ --     0.0000                 0.0000                 0.0000
 Depolar     --     0.0000                 0.0000                 0.0000
 Atom AN      X      Y      Z        X      Y      Z        X      Y      Z
   1   7    -0.00   0.00   0.00     0.00  -0.00   0.00     0.00   0.00   0.00
   2   6    -0.00  -0.00  -0.00     0.00   0.00  -0.00    -0.00  -0.00   0.00
   3   6     0.00  -0.01  -0.00    -0.00   0.00  -0.00     0.00  -0.00   0.00
   4   6    -0.00  -0.01  -0.00     0.00   0.00  -0.00    -0.00  -0.00   0.00
   5   6     0.00  -0.02  -0.00    -0.00   0.00  -0.01    -0.00  -0.01   0.00
   6   6    -0.00  -0.03  -0.00     0.00   0.00  -0.03     0.00  -0.02   0.00
   7   6    -0.18  -0.22  -0.02     0.01   0.01  -0.29     0.10  -0.13   0.00
   8   1     0.00  -0.00  -0.00    -0.00   0.00  -0.00     0.00  -0.00   0.00
   9   1     0.00  -0.00   0.00    -0.00  -0.00  -0.00     0.00   0.00  -0.00
  10   1     0.00  -0.00  -0.00     0.00   0.00  -0.00     0.00   0.00   0.00
  11   1    -0.00   0.01   0.01    -0.00   0.00   0.00    -0.00   0.00   0.00
  12   1     0.00   0.01  -0.01     0.00  -0.00   0.00    -0.00   0.00  -0.00
  13   1     0.00   0.01   0.02     0.00   0.00   0.00     0.00   0.00   0.01
  14   1     0.00   0.01  -0.02    -0.00  -0.00   0.00     0.00   0.00  -0.01
  15   1    -0.00   0.01   0.02    -0.00   0.00   0.01    -0.00   0.00   0.01
  16   1    -0.00   0.01  -0.02     0.00  -0.01   0.01    -0.00   0.00  -0.01
  17   1     0.00   0.03   0.05     0.00   0.01   0.01     0.00   0.01   0.02
  18   1     0.00   0.03  -0.05    -0.00  -0.01   0.02     0.00   0.01  -0.02
  19   1     0.00   0.04   0.06     0.00   0.04   0.05     0.00   0.02   0.03
  20   1     0.00   0.04  -0.05    -0.00  -0.04   0.05     0.00   0.02  -0.03
  21   1    -0.03   0.17   0.27    -0.01   0.41   0.51    -0.00   0.36   0.51
  22   1    -0.03   0.11  -0.20     0.02  -0.41   0.54    -0.01   0.35  -0.53
  23   1     0.71   0.49  -0.01    -0.05  -0.04  -0.04    -0.33  -0.26   0.00
                     61                     62                     63
                        a                      a                      a 
 Frequencies --  3284.1512              3285.3970              3299.2913
 Red. masses --     2.0401                 2.0506                 1.2717
 Frc consts  --     0.0000                 0.0000                 0.0000
 IR Inten    --    81.8016                81.2499                27.3566
 Raman Activ --     0.0000                 0.0000                 0.0000
 Depolar     --     0.0000                 0.0000                 0.0000
 Atom AN      X      Y      Z        X      Y      Z        X      Y      Z
   1   7    -0.17   0.22  -0.02     0.01  -0.01  -0.28     0.09   0.11   0.00
   2   6    -0.00   0.01  -0.00     0.00  -0.00  -0.01     0.01   0.01   0.00
   3   6     0.00  -0.00   0.00    -0.00   0.00   0.00    -0.00  -0.00  -0.00
   4   6    -0.00   0.00   0.00     0.00  -0.00   0.00    -0.00   0.00  -0.00
   5   6    -0.00  -0.00   0.00     0.00   0.00   0.00    -0.00  -0.00  -0.00
   6   6    -0.00  -0.00  -0.00     0.00   0.00  -0.00    -0.00   0.00  -0.00
   7   6     0.00   0.00   0.00    -0.00  -0.00  -0.00     0.00  -0.00   0.00
   8   1     0.68  -0.49  -0.00    -0.05   0.04  -0.03    -0.37   0.29   0.00
   9   1    -0.02  -0.20   0.31    -0.01  -0.40   0.53    -0.00  -0.35   0.50
  10   1    -0.02  -0.14  -0.23     0.01   0.41   0.56     0.00  -0.35  -0.51
  11   1     0.00  -0.00  -0.01    -0.00   0.01   0.01    -0.00  -0.01  -0.01
  12   1     0.00  -0.01   0.01     0.00  -0.01   0.01    -0.00  -0.01   0.01
  13   1     0.00  -0.00  -0.00    -0.00  -0.00  -0.00     0.00   0.00   0.00
  14   1     0.00  -0.00   0.00     0.00   0.00  -0.00     0.00   0.00  -0.00
  15   1    -0.00   0.00   0.00     0.00  -0.00  -0.00    -0.00  -0.00  -0.00
  16   1    -0.00   0.00  -0.00    -0.00   0.00  -0.00    -0.00  -0.00   0.00
  17   1    -0.00  -0.00  -0.00    -0.00  -0.00  -0.00    -0.00   0.00   0.00
  18   1    -0.00  -0.00   0.00     0.00   0.00  -0.00    -0.00   0.00  -0.00
  19   1     0.00   0.00   0.00     0.00  -0.00   0.00     0.00  -0.00  -0.00
  20   1     0.00   0.00  -0.00    -0.00   0.00   0.00     0.00  -0.00   0.00
  21   1    -0.00  -0.00  -0.00     0.00   0.00   0.00    -0.00   0.00   0.00
  22   1    -0.00  -0.00   0.00    -0.00   0.00   0.00    -0.00   0.00  -0.00
  23   1    -0.00  -0.00   0.00     0.00   0.00   0.00    -0.00  -0.00   0.00
