      -----------------------------------------------------------      
     |                   =====================                   |     
     |                           x T B                           |     
     |                   =====================                   |     
     |                         S. Grimme                         |     
     |          Mulliken Center for Theoretical Chemistry        |     
     |                    University of Bonn                     |     
      -----------------------------------------------------------      

   * xtb version 6.5.1 (fef0646) compiled by 'conda@b96dff2e9fd6' on 2023-01-04

   xtb is free software: you can redistribute it and/or modify it under
   the terms of the GNU Lesser General Public License as published by
   the Free Software Foundation, either version 3 of the License, or
   (at your option) any later version.
   
   xtb is distributed in the hope that it will be useful,
   but WITHOUT ANY WARRANTY; without even the implied warranty of
   MERCHANTABILITY or FITNESS FOR A PARTICULAR PURPOSE.  See the
   GNU Lesser General Public License for more details.
   
   Cite this work as:
   * C. Bannwarth, E. Caldeweyher, S. Ehlert, A. Hansen, P. Pracht,
     J. Seibert, S. Spicher, S. Grimme, WIREs Comput. Mol. Sci., 2020, 11,
     e01493. DOI: 10.1002/wcms.1493
   
   for GFN2-xTB:
   * C. Bannwarth, S. Ehlert and S. Grimme., J. Chem. Theory Comput., 2019,
     15, 1652-1671. DOI: 10.1021/acs.jctc.8b01176
   for GFN1-xTB:
   * S. Grimme, C. Bannwarth, P. Shushkov, J. Chem. Theory Comput., 2017,
     13, 1989-2009. DOI: 10.1021/acs.jctc.7b00118
   for GFN0-xTB:
   * P. Pracht, E. Caldeweyher, S. Ehlert, S. Grimme, ChemRxiv, 2019, preprint.
     DOI: 10.26434/chemrxiv.8326202.v1
   for GFN-FF:
   * S. Spicher and S. Grimme, Angew. Chem. Int. Ed., 2020, 59, 15665-15673.
     DOI: 10.1002/anie.202004239
   
   for ALPB and GBSA implicit solvation:
   * S. Ehlert, M. Stahn, S. Spicher, S. Grimme, J. Chem. Theory Comput.,
     2021, 17, 4250-4261. DOI: 10.1021/acs.jctc.1c00471
   
   for DFT-D4:
   * E. Caldeweyher, C. Bannwarth and S. Grimme, J. Chem. Phys., 2017,
     147, 034112. DOI: 10.1063/1.4993215
   * E. Caldeweyher, S. Ehlert, A. Hansen, H. Neugebauer, S. Spicher,
     C. Bannwarth and S. Grimme, J. Chem. Phys., 2019, 150, 154122.
     DOI: 10.1063/1.5090222
   * E. Caldeweyher, J.-M. Mewes, S. Ehlert and S. Grimme, Phys. Chem. Chem. Phys.
     2020, 22, 8499-8512. DOI: 10.1039/D0CP00502A
   
   for sTDA-xTB:
   * S. Grimme and C. Bannwarth, J. Chem. Phys., 2016, 145, 054103.
     DOI: 10.1063/1.4959605
   
   in the mass-spec context:
   * V. Asgeirsson, C. Bauer and S. Grimme, Chem. Sci., 2017, 8, 4879.
     DOI: 10.1039/c7sc00601b
   * J. Koopman and S. Grimme, ACS Omega 2019, 4, 12, 15120-15133.
     DOI: 10.1021/acsomega.9b02011
   
   for metadynamics refer to:
   * S. Grimme, J. Chem. Theory Comput., 2019, 155, 2847-2862
     DOI: 10.1021/acs.jctc.9b00143
   
   for SPH calculations refer to:
   * S. Spicher and S. Grimme, J. Chem. Theory Comput., 2021, 17, 1701-1714
     DOI: 10.1021/acs.jctc.0c01306
   
   with help from (in alphabetical order)
   P. Atkinson, C. Bannwarth, F. Bohle, G. Brandenburg, E. Caldeweyher
   M. Checinski, S. Dohm, S. Ehlert, S. Ehrlich, I. Gerasimov, C. Hölzer
   A. Katbashev, J. Koopman, C. Lavigne, S. Lehtola, F. März, M. Müller,
   F. Musil, H. Neugebauer, J. Pisarek, C. Plett, P. Pracht, F. Pultar,
   J. Seibert, P. Shushkov, S. Spicher, M. Stahn, M. Steiner, T. Strunk,
   J. Stückrath, T. Rose, and J. Unsleber
   
 * started run on 2023/01/23 at 20:59:04.835     

           -------------------------------------------------
          |                Calculation Setup                |
           -------------------------------------------------

          program call               : xtb init.xyz --opt -c 0 -u 0 -P 16 --input xtb.inp
          hostname                   : gpg-woodward
          coordinate file            : init.xyz
          omp threads                :                    16

   ID    Z sym.   atoms
    1    7 N      1
    2    6 C      2, 3, 5-24
    3    8 O      4
    4   17 Cl     25
    5    1 H      26-43

molecular fragmentation (1/2 indicates fragments):
1111111111111111111111112111111111111111111
# atoms in fragment 1/2:    42     1
 fragment masses (1/2) :      312.39       35.45
CMA distance (Bohr)    :  16.764
constraining FC (au)   :  0.0500

           -------------------------------------------------
          |                 G F N 2 - x T B                 |
           -------------------------------------------------

        Reference                      10.1021/acs.jctc.8b01176
      * Hamiltonian:
        H0-scaling (s, p, d)           1.850000    2.230000    2.230000
        zeta-weighting                 0.500000
      * Dispersion:
        s8                             2.700000
        a1                             0.520000
        a2                             5.000000
        s9                             5.000000
      * Repulsion:
        kExp                           1.500000    1.000000
        rExp                           1.000000
      * Coulomb:
        alpha                          2.000000
        third order                    shell-resolved
        anisotropic                    true
        a3                             3.000000
        a5                             4.000000
        cn-shift                       1.200000
        cn-exp                         4.000000
        max-rad                        5.000000


          ...................................................
          :                      SETUP                      :
          :.................................................:
          :  # basis functions                 124          :
          :  # atomic orbitals                 123          :
          :  # shells                           69          :
          :  # electrons                       124          :
          :  max. iterations                   250          :
          :  Hamiltonian                  GFN2-xTB          :
          :  restarted?                      false          :
          :  GBSA solvation                  false          :
          :  PC potential                    false          :
          :  electronic temp.          300.0000000     K    :
          :  accuracy                    1.0000000          :
          :  -> integral cutoff          0.2500000E+02      :
          :  -> integral neglect         0.1000000E-07      :
          :  -> SCF convergence          0.1000000E-05 Eh   :
          :  -> wf. convergence          0.1000000E-03 e    :
          :  Broyden damping             0.4000000          :
          ...................................................

 iter      E             dE          RMSdq      gap      omega  full diag
   1    -68.7345182 -0.687345E+02  0.433E+00    1.61       0.0  T
   2    -68.8719886 -0.137470E+00  0.250E+00    1.61       1.0  T
   3    -68.8529983  0.189903E-01  0.130E+00    1.56       1.0  T
   4    -68.8606203 -0.762203E-02  0.843E-01    1.44       1.0  T
   5    -68.8867762 -0.261560E-01  0.272E-01    1.31       1.0  T
   6    -68.8881468 -0.137051E-02  0.191E-01    1.32       1.0  T
   7    -68.8884593 -0.312549E-03  0.129E-01    1.34       1.0  T
   8    -68.8887609 -0.301608E-03  0.778E-02    1.35       1.0  T
   9    -68.8888762 -0.115328E-03  0.376E-02    1.33       1.0  T
  10    -68.8889018 -0.255890E-04  0.181E-02    1.33       1.0  T
  11    -68.8889061 -0.425857E-05  0.619E-03    1.33       2.5  T
  12    -68.8889067 -0.575667E-06  0.240E-03    1.33       6.3  T
  13    -68.8889068 -0.112790E-06  0.103E-03    1.33      14.8  T
  14    -68.8889068 -0.833154E-08  0.414E-04    1.33      36.9  T
  15    -68.8889068 -0.346044E-08  0.201E-04    1.33      75.8  T

   *** convergence criteria satisfied after 15 iterations ***

         #    Occupation            Energy/Eh            Energy/eV
      -------------------------------------------------------------
         1        2.0000           -0.9580740             -26.0705
       ...           ...                  ...                  ...
        56        2.0000           -0.4085014             -11.1159
        57        2.0000           -0.4048430             -11.0163
        58        2.0000           -0.4026383             -10.9563
        59        2.0000           -0.3584642              -9.7543
        60        2.0000           -0.3562334              -9.6936
        61        2.0000           -0.3464066              -9.4262
        62        2.0000           -0.3460993              -9.4178 (HOMO)
        63                         -0.2972795              -8.0894 (LUMO)
        64                         -0.2411392              -6.5617
        65                         -0.2346423              -6.3849
        66                         -0.2333029              -6.3485
        67                         -0.2325141              -6.3270
       ...                                ...                  ...
       123                          0.7094568              19.3053
      -------------------------------------------------------------
                  HL-Gap            0.0488198 Eh            1.3285 eV
             Fermi-level           -0.3214370 Eh           -8.7467 eV

 SCC (total)                   0 d,  0 h,  0 min,  0.263 sec
 SCC setup                      ...        0 min,  0.002 sec (  0.639%)
 Dispersion                     ...        0 min,  0.002 sec (  0.800%)
 classical contributions        ...        0 min,  0.000 sec (  0.124%)
 integral evaluation            ...        0 min,  0.010 sec (  3.861%)
 iterations                     ...        0 min,  0.232 sec ( 88.260%)
 molecular gradient             ...        0 min,  0.016 sec (  5.937%)
 printout                       ...        0 min,  0.001 sec (  0.306%)

         :::::::::::::::::::::::::::::::::::::::::::::::::::::
         ::                     SUMMARY                     ::
         :::::::::::::::::::::::::::::::::::::::::::::::::::::
         :: total energy             -67.821787121987 Eh    ::
         :: gradient norm              0.107309144182 Eh/a0 ::
         :: HOMO-LUMO gap              1.328454100375 eV    ::
         ::.................................................::
         :: SCC energy               -68.888906795610 Eh    ::
         :: -> isotropic ES            0.102422105023 Eh    ::
         :: -> anisotropic ES         -0.015822097254 Eh    ::
         :: -> anisotropic XC          0.021419414728 Eh    ::
         :: -> dispersion             -0.052119448394 Eh    ::
         :: repulsion energy           1.067269668692 Eh    ::
         :: add. restraining           0.000000000000 Eh    ::
         :: total charge               0.000000000010 e     ::
         :::::::::::::::::::::::::::::::::::::::::::::::::::::

      ----------------------------------------------------------- 
     |                   =====================                   |
     |                        A N C O P T                        |
     |                   =====================                   |
     |               Approximate Normal Coordinate               |
     |                Rational Function Optimizer                |
      ----------------------------------------------------------- 

          ...................................................
          :                      SETUP                      :
          :.................................................:
          :   optimization level            normal          :
          :   max. optcycles                   200          :
          :   ANC micro-cycles                  20          :
          :   degrees of freedom               123          :
          :.................................................:
          :   RF solver                   davidson          :
          :   write xtbopt.log                true          :
          :   linear?                        false          :
          :   energy convergence         0.5000000E-05 Eh   :
          :   grad. convergence          0.1000000E-02 Eh/α :
          :   maximium RF displ.         1.0000000          :
          :   Hlow (freq-cutoff)         0.1000000E-01      :
          :   Hmax (freq-cutoff)         5.0000000          :
          :   S6 in model hess.         20.0000000          :
          ...................................................

generating ANC from model Hessian ...
Using Lindh-Hessian (1995)
 Shifting diagonal of input Hessian by    9.9912949906028822E-003
 Lowest  eigenvalues of input Hessian
    0.000000    0.000000    0.000000    0.000000    0.000000    0.000000
    0.010000    0.010252    0.010613    0.011405    0.011642    0.011802
    0.012814    0.014505    0.015728    0.016041    0.016586    0.018479
 Highest eigenvalues
    1.930035    1.954433    2.014136    2.042047    2.106000    2.126413


........................................................................
.............................. CYCLE    1 ..............................
........................................................................
   1    -68.8889068 -0.688889E+02  0.119E-04    1.33       0.0  T
   2    -68.8889068 -0.108798E-09  0.883E-05    1.33     172.8  T
   3    -68.8889068 -0.711395E-10  0.677E-05    1.33     225.4  T
     SCC iter.                  ...        0 min,  0.061 sec
     gradient                   ...        0 min,  0.019 sec
 * total energy  :   -67.8217871 Eh     change       -0.4996110E-09 Eh
   gradient norm :     0.1073089 Eh/α   predicted     0.0000000E+00 (-100.00%)
   displ. norm   :     0.2835087 α      lambda       -0.1662702E-01
   maximum displ.:     0.0911362 α      in ANC's #68, #36, #5, ...

........................................................................
.............................. CYCLE    2 ..............................
........................................................................
   1    -68.9200201 -0.689200E+02  0.215E-01    1.52       0.0  T
   2    -68.9202246 -0.204445E-03  0.131E-01    1.58       1.0  T
   3    -68.9201927  0.318935E-04  0.508E-02    1.65       1.0  T
   4    -68.9202432 -0.505338E-04  0.290E-02    1.67       1.0  T
   5    -68.9202662 -0.229677E-04  0.168E-02    1.68       1.0  T
   6    -68.9202677 -0.147297E-05  0.133E-02    1.68       1.1  T
   7    -68.9202708 -0.310997E-05  0.745E-03    1.67       2.0  T
   8    -68.9202720 -0.125002E-05  0.357E-03    1.68       4.3  T
   9    -68.9202722 -0.130503E-06  0.171E-03    1.68       8.9  T
  10    -68.9202723 -0.115962E-06  0.593E-04    1.68      25.7  T
  11    -68.9202723 -0.866616E-08  0.268E-04    1.68      56.9  T
     SCC iter.                  ...        0 min,  0.141 sec
     gradient                   ...        0 min,  0.017 sec
 * total energy  :   -67.8339323 Eh     change       -0.1214522E-01 Eh
   gradient norm :     0.0625966 Eh/α   predicted    -0.8986972E-02 ( -26.00%)
   displ. norm   :     0.3346656 α      lambda       -0.1020443E-01
   maximum displ.:     0.1196644 α      in ANC's #5, #7, #68, ...

........................................................................
.............................. CYCLE    3 ..............................
........................................................................
   1    -68.9428598 -0.689429E+02  0.209E-01    1.80       0.0  T
   2    -68.9430949 -0.235096E-03  0.125E-01    1.86       1.0  T
   3    -68.9430854  0.951893E-05  0.467E-02    1.91       1.0  T
   4    -68.9431140 -0.285768E-04  0.261E-02    1.91       1.0  T
   5    -68.9431328 -0.188253E-04  0.150E-02    1.91       1.0  T
   6    -68.9431343 -0.148613E-05  0.115E-02    1.91       1.3  T
   7    -68.9431362 -0.188902E-05  0.690E-03    1.91       2.2  T
   8    -68.9431375 -0.130459E-05  0.359E-03    1.91       4.3  T
   9    -68.9431377 -0.220453E-06  0.129E-03    1.91      11.8  T
  10    -68.9431377 -0.401318E-07  0.507E-04    1.91      30.1  T
  11    -68.9431377 -0.185469E-08  0.328E-04    1.91      46.5  T
     SCC iter.                  ...        0 min,  0.133 sec
     gradient                   ...        0 min,  0.016 sec
 * total energy  :   -67.8404023 Eh     change       -0.6469908E-02 Eh
   gradient norm :     0.0371982 Eh/α   predicted    -0.5673670E-02 ( -12.31%)
   displ. norm   :     0.2732371 α      lambda       -0.3591278E-02
   maximum displ.:     0.1207760 α      in ANC's #5, #9, #7, ...

........................................................................
.............................. CYCLE    4 ..............................
........................................................................
   1    -68.9446598 -0.689447E+02  0.169E-01    1.95       0.0  T
   2    -68.9449076 -0.247740E-03  0.981E-02    1.95       1.0  T
   3    -68.9449312 -0.236226E-04  0.433E-02    1.95       1.0  T
   4    -68.9449355 -0.432960E-05  0.267E-02    1.95       1.0  T
   5    -68.9449465 -0.110016E-04  0.199E-02    1.95       1.0  T
   6    -68.9449506 -0.410669E-05  0.137E-02    1.95       1.1  T
   7    -68.9449549 -0.430994E-05  0.627E-03    1.95       2.4  T
   8    -68.9449558 -0.836974E-06  0.326E-03    1.95       4.7  T
   9    -68.9449560 -0.240672E-06  0.785E-04    1.95      19.4  T
  10    -68.9449560 -0.132221E-07  0.430E-04    1.95      35.4  T
     SCC iter.                  ...        0 min,  0.121 sec
     gradient                   ...        0 min,  0.015 sec
 * total energy  :   -67.8432484 Eh     change       -0.2846109E-02 Eh
   gradient norm :     0.0396959 Eh/α   predicted    -0.1929727E-02 ( -32.20%)
   displ. norm   :     0.4270424 α      lambda       -0.5079533E-02
   maximum displ.:     0.2064330 α      in ANC's #5, #9, #7, ...

........................................................................
.............................. CYCLE    5 ..............................
........................................................................
   1    -68.9436183 -0.689436E+02  0.240E-01    1.95       0.0  T
   2    -68.9441125 -0.494195E-03  0.135E-01    1.95       1.0  T
   3    -68.9441540 -0.415450E-04  0.549E-02    1.95       1.0  T
   4    -68.9441575 -0.344200E-05  0.332E-02    1.95       1.0  T
   5    -68.9441806 -0.231325E-04  0.226E-02    1.95       1.0  T
   6    -68.9441853 -0.474996E-05  0.166E-02    1.95       1.0  T
   7    -68.9441909 -0.559905E-05  0.928E-03    1.95       1.6  T
   8    -68.9441929 -0.196746E-05  0.537E-03    1.95       2.8  T
   9    -68.9441936 -0.677686E-06  0.148E-03    1.95      10.3  T
  10    -68.9441936 -0.434311E-07  0.908E-04    1.95      16.8  T
  11    -68.9441936 -0.760285E-08  0.594E-04    1.95      25.7  T
     SCC iter.                  ...        0 min,  0.133 sec
     gradient                   ...        0 min,  0.015 sec
 * total energy  :   -67.8471705 Eh     change       -0.3922125E-02 Eh
   gradient norm :     0.0354115 Eh/α   predicted    -0.3003045E-02 ( -23.43%)
   displ. norm   :     0.4036460 α      lambda       -0.4204877E-02
   maximum displ.:     0.1791217 α      in ANC's #5, #9, #7, ...

........................................................................
.............................. CYCLE    6 ..............................
........................................................................
   1    -68.9450877 -0.689451E+02  0.231E-01    1.91       0.0  T
   2    -68.9455814 -0.493752E-03  0.128E-01    1.91       1.0  T
   3    -68.9456324 -0.509490E-04  0.577E-02    1.91       1.0  T
   4    -68.9456373 -0.494111E-05  0.362E-02    1.91       1.0  T
   5    -68.9456623 -0.249525E-04  0.265E-02    1.91       1.0  T
   6    -68.9456706 -0.830837E-05  0.184E-02    1.91       1.0  T
   7    -68.9456789 -0.828261E-05  0.104E-02    1.91       1.5  T
   8    -68.9456815 -0.261051E-05  0.568E-03    1.91       2.7  T
   9    -68.9456823 -0.833070E-06  0.139E-03    1.91      11.0  T
  10    -68.9456824 -0.305201E-07  0.791E-04    1.91      19.3  T
  11    -68.9456824 -0.579853E-08  0.463E-04    1.91      33.0  T
     SCC iter.                  ...        0 min,  0.132 sec
     gradient                   ...        0 min,  0.016 sec
 * total energy  :   -67.8497863 Eh     change       -0.2615802E-02 Eh
   gradient norm :     0.0241171 Eh/α   predicted    -0.2445000E-02 (  -6.53%)
   displ. norm   :     0.2776016 α      lambda       -0.2290155E-02
   maximum displ.:     0.1557185 α      in ANC's #5, #26, #29, ...

........................................................................
.............................. CYCLE    7 ..............................
........................................................................
   1    -68.9446615 -0.689447E+02  0.120E-01    1.87       0.0  T
   2    -68.9447088 -0.473255E-04  0.705E-02    1.87       1.0  T
   3    -68.9447172 -0.831899E-05  0.213E-02    1.87       1.0  T
   4    -68.9447184 -0.124573E-05  0.133E-02    1.87       1.1  T
   5    -68.9447215 -0.307460E-05  0.961E-03    1.87       1.6  T
   6    -68.9447226 -0.115524E-05  0.744E-03    1.87       2.0  T
   7    -68.9447235 -0.829307E-06  0.552E-03    1.87       2.8  T
   8    -68.9447242 -0.731341E-06  0.192E-03    1.87       8.0  T
   9    -68.9447243 -0.137006E-06  0.705E-04    1.87      21.6  T
  10    -68.9447243 -0.364876E-08  0.507E-04    1.87      30.1  T
     SCC iter.                  ...        0 min,  0.121 sec
     gradient                   ...        0 min,  0.016 sec
 * total energy  :   -67.8507548 Eh     change       -0.9684672E-03 Eh
   gradient norm :     0.0127244 Eh/α   predicted    -0.1233370E-02 (  27.35%)
   displ. norm   :     0.1652512 α      lambda       -0.7731870E-03
   maximum displ.:     0.0966858 α      in ANC's #4, #6, #3, ...

........................................................................
.............................. CYCLE    8 ..............................
........................................................................
   1    -68.9475215 -0.689475E+02  0.773E-02    1.85       0.0  T
   2    -68.9475507 -0.291563E-04  0.450E-02    1.85       1.0  T
   3    -68.9475550 -0.426941E-05  0.184E-02    1.85       1.0  T
   4    -68.9475556 -0.603532E-06  0.134E-02    1.85       1.1  T
   5    -68.9475589 -0.335111E-05  0.956E-03    1.85       1.6  T
   6    -68.9475599 -0.104170E-05  0.652E-03    1.85       2.3  T
   7    -68.9475611 -0.117111E-05  0.264E-03    1.85       5.8  T
   8    -68.9475612 -0.117040E-06  0.155E-03    1.85       9.8  T
   9    -68.9475613 -0.583719E-07  0.829E-04    1.85      18.4  T
  10    -68.9475613 -0.655102E-08  0.624E-04    1.85      24.4  T
     SCC iter.                  ...        0 min,  0.122 sec
     gradient                   ...        0 min,  0.014 sec
 * total energy  :   -67.8512127 Eh     change       -0.4579413E-03 Eh
   gradient norm :     0.0048164 Eh/α   predicted    -0.3971571E-03 ( -13.27%)
   displ. norm   :     0.1264871 α      lambda       -0.1996093E-03
   maximum displ.:     0.0680837 α      in ANC's #4, #5, #3, ...

........................................................................
.............................. CYCLE    9 ..............................
........................................................................
   1    -68.9487252 -0.689487E+02  0.406E-02    1.85       0.0  T
   2    -68.9487262 -0.100556E-05  0.244E-02    1.85       1.0  T
   3    -68.9487236  0.259339E-05  0.906E-03    1.85       1.7  T
   4    -68.9487269 -0.331602E-05  0.343E-03    1.85       4.4  T
   5    -68.9487270 -0.899142E-07  0.273E-03    1.85       5.6  T
   6    -68.9487271 -0.792404E-07  0.185E-03    1.85       8.2  T
   7    -68.9487271 -0.536965E-07  0.593E-04    1.85      25.7  T
   8    -68.9487271 -0.790914E-08  0.263E-04    1.85      58.0  T
     SCC iter.                  ...        0 min,  0.097 sec
     gradient                   ...        0 min,  0.016 sec
 * total energy  :   -67.8513676 Eh     change       -0.1548918E-03 Eh
   gradient norm :     0.0031529 Eh/α   predicted    -0.1014043E-03 ( -34.53%)
   displ. norm   :     0.2314981 α      lambda       -0.2244317E-03
   maximum displ.:     0.1184806 α      in ANC's #4, #5, #6, ...

........................................................................
.............................. CYCLE   10 ..............................
........................................................................
   1    -68.9484494 -0.689484E+02  0.684E-02    1.85       0.0  T
   2    -68.9484509 -0.148521E-05  0.407E-02    1.85       1.0  T
   3    -68.9484458  0.511612E-05  0.123E-02    1.85       1.2  T
   4    -68.9484521 -0.634864E-05  0.422E-03    1.85       3.6  T
   5    -68.9484522 -0.130041E-06  0.342E-03    1.85       4.5  T
   6    -68.9484524 -0.139664E-06  0.215E-03    1.85       7.1  T
   7    -68.9484525 -0.718614E-07  0.849E-04    1.85      18.0  T
   8    -68.9484525 -0.128232E-07  0.432E-04    1.85      35.3  T
     SCC iter.                  ...        0 min,  0.153 sec
     gradient                   ...        0 min,  0.018 sec
 * total energy  :   -67.8515212 Eh     change       -0.1536271E-03 Eh
   gradient norm :     0.0034519 Eh/α   predicted    -0.1182339E-03 ( -23.04%)
   displ. norm   :     0.2344731 α      lambda       -0.1408381E-03
   maximum displ.:     0.1330003 α      in ANC's #5, #4, #6, ...

........................................................................
.............................. CYCLE   11 ..............................
........................................................................
   1    -68.9476966 -0.689477E+02  0.655E-02    1.85       0.0  T
   2    -68.9476972 -0.583418E-06  0.385E-02    1.85       1.0  T
   3    -68.9476957  0.148811E-05  0.618E-03    1.85       2.5  T
   4    -68.9476975 -0.180934E-05  0.173E-03    1.85       8.8  T
   5    -68.9476975 -0.339498E-07  0.124E-03    1.85      12.3  T
   6    -68.9476976 -0.189852E-07  0.781E-04    1.85      19.5  T
   7    -68.9476976 -0.604628E-08  0.469E-04    1.85      32.5  T
     SCC iter.                  ...        0 min,  0.131 sec
     gradient                   ...        0 min,  0.018 sec
 * total energy  :   -67.8516349 Eh     change       -0.1137196E-03 Eh
   gradient norm :     0.0036832 Eh/α   predicted    -0.7430753E-04 ( -34.66%)
   displ. norm   :     0.3958767 α      lambda       -0.2280869E-03
   maximum displ.:     0.2483186 α      in ANC's #5, #4, #2, ...

........................................................................
.............................. CYCLE   12 ..............................
........................................................................
   1    -68.9462530 -0.689463E+02  0.109E-01    1.85       0.0  T
   2    -68.9462540 -0.975516E-06  0.641E-02    1.85       1.0  T
   3    -68.9462517  0.223313E-05  0.681E-03    1.85       2.2  T
   4    -68.9462546 -0.282195E-05  0.204E-03    1.85       7.5  T
   5    -68.9462546 -0.487688E-07  0.135E-03    1.85      11.3  T
   6    -68.9462546 -0.252967E-07  0.692E-04    1.85      22.0  T
   7    -68.9462546 -0.403544E-08  0.500E-04    1.85      30.5  T
     SCC iter.                  ...        0 min,  0.133 sec
     gradient                   ...        0 min,  0.020 sec
 * total energy  :   -67.8518129 Eh     change       -0.1779195E-03 Eh
   gradient norm :     0.0036809 Eh/α   predicted    -0.1319174E-03 ( -25.86%)
   displ. norm   :     0.3018812 α      lambda       -0.1745675E-03
   maximum displ.:     0.1945278 α      in ANC's #5, #2, #4, ...

........................................................................
.............................. CYCLE   13 ..............................
........................................................................
   1    -68.9463513 -0.689464E+02  0.828E-02    1.85       0.0  T
   2    -68.9463521 -0.866035E-06  0.486E-02    1.85       1.0  T
   3    -68.9463494  0.277247E-05  0.811E-03    1.85       1.9  T
   4    -68.9463528 -0.343603E-05  0.288E-03    1.85       5.3  T
   5    -68.9463529 -0.690626E-07  0.210E-03    1.85       7.3  T
   6    -68.9463529 -0.412724E-07  0.139E-03    1.85      11.0  T
   7    -68.9463529 -0.309736E-07  0.686E-04    1.85      22.2  T
   8    -68.9463529 -0.540953E-08  0.409E-04    1.85      37.3  T
     SCC iter.                  ...        0 min,  0.148 sec
     gradient                   ...        0 min,  0.020 sec
 * total energy  :   -67.8519542 Eh     change       -0.1412966E-03 Eh
   gradient norm :     0.0035152 Eh/α   predicted    -0.9524858E-04 ( -32.59%)
   displ. norm   :     0.3452227 α      lambda       -0.1623968E-03
   maximum displ.:     0.2204955 α      in ANC's #5, #2, #6, ...

........................................................................
.............................. CYCLE   14 ..............................
........................................................................
   1    -68.9469098 -0.689469E+02  0.928E-02    1.85       0.0  T
   2    -68.9469110 -0.113794E-05  0.546E-02    1.85       1.0  T
   3    -68.9469061  0.487058E-05  0.109E-02    1.85       1.4  T
   4    -68.9469120 -0.591016E-05  0.360E-03    1.85       4.2  T
   5    -68.9469121 -0.865482E-07  0.276E-03    1.85       5.5  T
   6    -68.9469122 -0.859415E-07  0.172E-03    1.85       8.9  T
   7    -68.9469122 -0.423197E-07  0.845E-04    1.85      18.1  T
   8    -68.9469122 -0.105656E-07  0.478E-04    1.85      31.9  T
     SCC iter.                  ...        0 min,  0.148 sec
     gradient                   ...        0 min,  0.017 sec
 * total energy  :   -67.8520755 Eh     change       -0.1213765E-03 Eh
   gradient norm :     0.0029704 Eh/α   predicted    -0.9087845E-04 ( -25.13%)
   displ. norm   :     0.3332926 α      lambda       -0.1011782E-03
   maximum displ.:     0.2026555 α      in ANC's #5, #2, #6, ...

........................................................................
.............................. CYCLE   15 ..............................
........................................................................
   1    -68.9473321 -0.689473E+02  0.879E-02    1.84       0.0  T
   2    -68.9473329 -0.814494E-06  0.516E-02    1.84       1.0  T
   3    -68.9473295  0.343369E-05  0.906E-03    1.84       1.7  T
   4    -68.9473336 -0.416220E-05  0.287E-03    1.84       5.3  T
   5    -68.9473337 -0.549713E-07  0.217E-03    1.84       7.0  T
   6    -68.9473337 -0.517251E-07  0.132E-03    1.84      11.5  T
   7    -68.9473338 -0.221304E-07  0.751E-04    1.84      20.3  T
   8    -68.9473338 -0.786305E-08  0.409E-04    1.84      37.3  T
     SCC iter.                  ...        0 min,  0.149 sec
     gradient                   ...        0 min,  0.020 sec
 * total energy  :   -67.8521511 Eh     change       -0.7560997E-04 Eh
   gradient norm :     0.0024002 Eh/α   predicted    -0.5621413E-04 ( -25.65%)
   displ. norm   :     0.2791233 α      lambda       -0.7017569E-04
   maximum displ.:     0.1544718 α      in ANC's #5, #2, #4, ...

........................................................................
.............................. CYCLE   16 ..............................
........................................................................
   1    -68.9482694 -0.689483E+02  0.726E-02    1.84       0.0  T
   2    -68.9482699 -0.488466E-06  0.426E-02    1.84       1.0  T
   3    -68.9482685  0.143249E-05  0.593E-03    1.84       2.6  T
   4    -68.9482703 -0.182215E-05  0.217E-03    1.84       7.0  T
   5    -68.9482703 -0.330585E-07  0.160E-03    1.84       9.5  T
   6    -68.9482704 -0.287435E-07  0.943E-04    1.84      16.2  T
   7    -68.9482704 -0.102062E-07  0.586E-04    1.84      26.0  T
     SCC iter.                  ...        0 min,  0.131 sec
     gradient                   ...        0 min,  0.017 sec
 * total energy  :   -67.8522063 Eh     change       -0.5513769E-04 Eh
   gradient norm :     0.0019332 Eh/α   predicted    -0.3782529E-04 ( -31.40%)
   displ. norm   :     0.4139898 α      lambda       -0.6183521E-04
   maximum displ.:     0.2278369 α      in ANC's #2, #5, #4, ...

........................................................................
.............................. CYCLE   17 ..............................
........................................................................
   1    -68.9490518 -0.689491E+02  0.107E-01    1.84       0.0  T
   2    -68.9490529 -0.106704E-05  0.627E-02    1.84       1.0  T
   3    -68.9490516  0.123951E-05  0.648E-03    1.84       2.4  T
   4    -68.9490536 -0.199978E-05  0.351E-03    1.84       4.3  T
   5    -68.9490538 -0.115520E-06  0.250E-03    1.84       6.1  T
   6    -68.9490538 -0.748266E-07  0.142E-03    1.84      10.7  T
   7    -68.9490539 -0.245215E-07  0.876E-04    1.84      17.4  T
   8    -68.9490539 -0.954873E-08  0.344E-04    1.84      44.3  T
     SCC iter.                  ...        0 min,  0.149 sec
     gradient                   ...        0 min,  0.018 sec
 * total energy  :   -67.8522706 Eh     change       -0.6432034E-04 Eh
   gradient norm :     0.0024044 Eh/α   predicted    -0.3327571E-04 ( -48.27%)
   displ. norm   :     0.1558245 α      lambda       -0.3181290E-04
   maximum displ.:     0.0964730 α      in ANC's #2, #4, #6, ...

........................................................................
.............................. CYCLE   18 ..............................
........................................................................
   1    -68.9495590 -0.689496E+02  0.395E-02    1.84       0.0  T
   2    -68.9495591 -0.162494E-06  0.232E-02    1.84       1.0  T
   3    -68.9495591 -0.204077E-07  0.209E-03    1.84       7.3  T
   4    -68.9495592 -0.924938E-07  0.153E-03    1.84      10.0  T
   5    -68.9495593 -0.232131E-07  0.104E-03    1.84      14.6  T
   6    -68.9495593 -0.168219E-07  0.610E-04    1.84      25.0  T
   7    -68.9495593 -0.545963E-08  0.303E-04    1.84      50.4  T
     SCC iter.                  ...        0 min,  0.131 sec
     gradient                   ...        0 min,  0.018 sec
 * total energy  :   -67.8522984 Eh     change       -0.2778766E-04 Eh
   gradient norm :     0.0019752 Eh/α   predicted    -0.1629446E-04 ( -41.36%)
   displ. norm   :     0.3066573 α      lambda       -0.4756515E-04
   maximum displ.:     0.1974435 α      in ANC's #2, #4, #6, ...

........................................................................
.............................. CYCLE   19 ..............................
........................................................................
   1    -68.9495571 -0.689496E+02  0.743E-02    1.84       0.0  T
   2    -68.9495577 -0.648832E-06  0.437E-02    1.84       1.0  T
   3    -68.9495577  0.640358E-07  0.472E-03    1.84       3.2  T
   4    -68.9495582 -0.517896E-06  0.298E-03    1.84       5.1  T
   5    -68.9495582 -0.575856E-07  0.211E-03    1.84       7.2  T
   6    -68.9495583 -0.669424E-07  0.122E-03    1.84      12.5  T
   7    -68.9495583 -0.191729E-07  0.574E-04    1.84      26.6  T
   8    -68.9495583 -0.294261E-08  0.255E-04    1.84      59.9  T
     SCC iter.                  ...        0 min,  0.150 sec
     gradient                   ...        0 min,  0.017 sec
 * total energy  :   -67.8523514 Eh     change       -0.5303587E-04 Eh
   gradient norm :     0.0022086 Eh/α   predicted    -0.2477771E-04 ( -53.28%)
   displ. norm   :     0.2065739 α      lambda       -0.4133816E-04
   maximum displ.:     0.1401983 α      in ANC's #2, #4, #1, ...

........................................................................
.............................. CYCLE   20 ..............................
........................................................................
   1    -68.9493967 -0.689494E+02  0.507E-02    1.84       0.0  T
   2    -68.9493970 -0.306325E-06  0.299E-02    1.84       1.0  T
   3    -68.9493972 -0.137504E-06  0.302E-03    1.84       5.0  T
   4    -68.9493973 -0.115575E-06  0.239E-03    1.84       6.4  T
   5    -68.9493974 -0.579888E-07  0.156E-03    1.84       9.8  T
   6    -68.9493974 -0.405564E-07  0.848E-04    1.84      18.0  T
   7    -68.9493974 -0.117599E-07  0.460E-04    1.84      33.2  T
     SCC iter.                  ...        0 min,  0.131 sec
     gradient                   ...        0 min,  0.020 sec
 * total energy  :   -67.8523851 Eh     change       -0.3365653E-04 Eh
   gradient norm :     0.0021109 Eh/α   predicted    -0.2155388E-04 ( -35.96%)
   displ. norm   :     0.2493356 α      lambda       -0.4836818E-04
   maximum displ.:     0.1730230 α      in ANC's #2, #4, #1, ...
 * RMSD in coord.:     0.6909995 α      energy gain  -0.3059795E-01 Eh

generating ANC from model Hessian ...
Using Lindh-Hessian (1995)
 Shifting diagonal of input Hessian by    9.9062118446216051E-003
 Lowest  eigenvalues of input Hessian
    0.000000    0.000000    0.000000    0.000000    0.000000    0.000000
    0.010000    0.010127    0.010371    0.010632    0.011318    0.011967
    0.013733    0.014140    0.014851    0.015894    0.016206    0.016939
 Highest eigenvalues
    1.983312    2.000608    2.050802    2.076713    2.131239    2.147791


........................................................................
.............................. CYCLE   21 ..............................
........................................................................
   1    -68.9491207 -0.689491E+02  0.581E-02    1.84       0.0  T
   2    -68.9491210 -0.350597E-06  0.341E-02    1.84       1.0  T
   3    -68.9491209  0.798897E-07  0.341E-03    1.84       4.5  T
   4    -68.9491213 -0.330771E-06  0.211E-03    1.84       7.2  T
   5    -68.9491213 -0.280063E-07  0.136E-03    1.84      11.2  T
   6    -68.9491213 -0.318557E-07  0.863E-04    1.84      17.7  T
   7    -68.9491213 -0.887748E-08  0.439E-04    1.84      34.7  T
     SCC iter.                  ...        0 min,  0.161 sec
     gradient                   ...        0 min,  0.020 sec
 * total energy  :   -67.8524255 Eh     change       -0.4038438E-04 Eh
   gradient norm :     0.0020401 Eh/α   predicted     0.0000000E+00 (-100.00%)
   displ. norm   :     0.0338912 α      lambda       -0.2482526E-04
   maximum displ.:     0.0155344 α      in ANC's #2, #6, #15, ...

........................................................................
.............................. CYCLE   22 ..............................
........................................................................
   1    -68.9491418 -0.689491E+02  0.115E-02    1.84       0.0  T
   2    -68.9491419 -0.104590E-06  0.700E-03    1.84       2.2  T
   3    -68.9491418  0.130136E-06  0.279E-03    1.84       5.5  T
   4    -68.9491420 -0.231798E-06  0.154E-03    1.84       9.9  T
   5    -68.9491420 -0.178645E-07  0.119E-03    1.84      12.8  T
   6    -68.9491421 -0.172082E-07  0.568E-04    1.84      26.8  T
   7    -68.9491421 -0.738460E-08  0.197E-04    1.84      77.4  T
     SCC iter.                  ...        0 min,  0.130 sec
     gradient                   ...        0 min,  0.018 sec
 * total energy  :   -67.8524422 Eh     change       -0.1669784E-04 Eh
   gradient norm :     0.0010352 Eh/α   predicted    -0.1262410E-04 ( -24.40%)
   displ. norm   :     0.0877545 α      lambda       -0.2364015E-04
   maximum displ.:     0.0437736 α      in ANC's #3, #2, #9, ...

........................................................................
.............................. CYCLE   23 ..............................
........................................................................
   1    -68.9491772 -0.689492E+02  0.241E-02    1.84       0.0  T
   2    -68.9491774 -0.210898E-06  0.141E-02    1.84       1.1  T
   3    -68.9491771  0.269970E-06  0.329E-03    1.84       4.6  T
   4    -68.9491775 -0.391679E-06  0.137E-03    1.84      11.1  T
   5    -68.9491775 -0.101490E-07  0.108E-03    1.84      14.2  T
   6    -68.9491775 -0.144713E-07  0.712E-04    1.84      21.4  T
   7    -68.9491775 -0.734089E-08  0.360E-04    1.84      42.3  T
     SCC iter.                  ...        0 min,  0.131 sec
     gradient                   ...        0 min,  0.018 sec
 * total energy  :   -67.8524599 Eh     change       -0.1772331E-04 Eh
   gradient norm :     0.0015835 Eh/α   predicted    -0.1186201E-04 ( -33.07%)
   displ. norm   :     0.0632713 α      lambda       -0.1216884E-04
   maximum displ.:     0.0360168 α      in ANC's #2, #3, #9, ...

........................................................................
.............................. CYCLE   24 ..............................
........................................................................
   1    -68.9492932 -0.689493E+02  0.206E-02    1.84       0.0  T
   2    -68.9492933 -0.148961E-06  0.124E-02    1.84       1.2  T
   3    -68.9492929  0.377085E-06  0.396E-03    1.84       3.8  T
   4    -68.9492935 -0.570925E-06  0.205E-03    1.84       7.5  T
   5    -68.9492935 -0.234530E-07  0.155E-03    1.84       9.9  T
   6    -68.9492936 -0.370400E-07  0.659E-04    1.84      23.1  T
   7    -68.9492936 -0.863069E-08  0.233E-04    1.84      65.6  T
     SCC iter.                  ...        0 min,  0.131 sec
     gradient                   ...        0 min,  0.018 sec
 * total energy  :   -67.8524738 Eh     change       -0.1388105E-04 Eh
   gradient norm :     0.0013081 Eh/α   predicted    -0.6097067E-05 ( -56.08%)
   displ. norm   :     0.0995657 α      lambda       -0.1511177E-04
   maximum displ.:     0.0588819 α      in ANC's #2, #3, #5, ...

........................................................................
.............................. CYCLE   25 ..............................
........................................................................
   1    -68.9493461 -0.689493E+02  0.266E-02    1.84       0.0  T
   2    -68.9493463 -0.187642E-06  0.159E-02    1.84       1.0  T
   3    -68.9493462  0.467016E-07  0.334E-03    1.84       4.6  T
   4    -68.9493465 -0.269180E-06  0.233E-03    1.84       6.6  T
   5    -68.9493465 -0.312268E-07  0.163E-03    1.84       9.3  T
   6    -68.9493466 -0.523169E-07  0.611E-04    1.84      25.0  T
   7    -68.9493466 -0.817666E-08  0.275E-04    1.84      55.5  T
     SCC iter.                  ...        0 min,  0.131 sec
     gradient                   ...        0 min,  0.017 sec
 * total energy  :   -67.8524905 Eh     change       -0.1676874E-04 Eh
   gradient norm :     0.0007432 Eh/α   predicted    -0.7589464E-05 ( -54.74%)
   displ. norm   :     0.1184730 α      lambda       -0.1247732E-04
   maximum displ.:     0.0749095 α      in ANC's #2, #3, #5, ...

........................................................................
.............................. CYCLE   26 ..............................
........................................................................
   1    -68.9492765 -0.689493E+02  0.269E-02    1.84       0.0  T
   2    -68.9492766 -0.115975E-06  0.159E-02    1.84       1.0  T
   3    -68.9492765  0.138150E-06  0.293E-03    1.84       5.2  T
   4    -68.9492768 -0.275950E-06  0.174E-03    1.84       8.8  T
   5    -68.9492768 -0.119761E-07  0.126E-03    1.84      12.1  T
   6    -68.9492768 -0.336247E-07  0.500E-04    1.84      30.5  T
   7    -68.9492768 -0.274173E-08  0.270E-04    1.84      56.5  T
     SCC iter.                  ...        0 min,  0.131 sec
     gradient                   ...        0 min,  0.018 sec
 * total energy  :   -67.8525055 Eh     change       -0.1495284E-04 Eh
   gradient norm :     0.0008840 Eh/α   predicted    -0.6278692E-05 ( -58.01%)
   displ. norm   :     0.1172162 α      lambda       -0.1112367E-04
   maximum displ.:     0.0755864 α      in ANC's #2, #3, #5, ...

........................................................................
.............................. CYCLE   27 ..............................
........................................................................
   1    -68.9492095 -0.689492E+02  0.245E-02    1.84       0.0  T
   2    -68.9492096 -0.851988E-07  0.145E-02    1.84       1.1  T
   3    -68.9492096  0.159974E-07  0.192E-03    1.84       8.0  T
   4    -68.9492097 -0.937097E-07  0.127E-03    1.84      12.0  T
   5    -68.9492097 -0.800031E-08  0.869E-04    1.84      17.6  T
   6    -68.9492097 -0.137697E-07  0.469E-04    1.84      32.5  T
     SCC iter.                  ...        0 min,  0.113 sec
     gradient                   ...        0 min,  0.018 sec
 * total energy  :   -67.8525194 Eh     change       -0.1386906E-04 Eh
   gradient norm :     0.0008253 Eh/α   predicted    -0.5597401E-05 ( -59.64%)
   displ. norm   :     0.1279521 α      lambda       -0.1073545E-04
   maximum displ.:     0.0851663 α      in ANC's #2, #3, #5, ...

........................................................................
.............................. CYCLE   28 ..............................
........................................................................
   1    -68.9491465 -0.689491E+02  0.267E-02    1.84       0.0  T
   2    -68.9491466 -0.951348E-07  0.157E-02    1.84       1.0  T
   3    -68.9491465  0.624856E-07  0.203E-03    1.84       7.5  T
   4    -68.9491466 -0.129241E-06  0.112E-03    1.84      13.6  T
   5    -68.9491466 -0.631991E-08  0.834E-04    1.84      18.3  T
   6    -68.9491466 -0.103416E-07  0.472E-04    1.84      32.3  T
     SCC iter.                  ...        0 min,  0.113 sec
     gradient                   ...        0 min,  0.018 sec
 * total energy  :   -67.8525323 Eh     change       -0.1293410E-04 Eh
   gradient norm :     0.0006147 Eh/α   predicted    -0.5407811E-05 ( -58.19%)
   displ. norm   :     0.1034370 α      lambda       -0.7140859E-05
   maximum displ.:     0.0717290 α      in ANC's #2, #3, #5, ...

........................................................................
.............................. CYCLE   29 ..............................
........................................................................
   1    -68.9491743 -0.689492E+02  0.226E-02    1.84       0.0  T
   2    -68.9491744 -0.715305E-07  0.133E-02    1.84       1.1  T
   3    -68.9491744  0.150363E-07  0.157E-03    1.84       9.7  T
   4    -68.9491745 -0.640725E-07  0.966E-04    1.84      15.8  T
   5    -68.9491745 -0.470973E-08  0.701E-04    1.84      21.8  T
     SCC iter.                  ...        0 min,  0.145 sec
     gradient                   ...        0 min,  0.017 sec
 * total energy  :   -67.8525409 Eh     change       -0.8581070E-05 Eh
   gradient norm :     0.0003766 Eh/α   predicted    -0.3588818E-05 ( -58.18%)
   displ. norm   :     0.0722535 α      lambda       -0.4492079E-05
   maximum displ.:     0.0530816 α      in ANC's #2, #3, #5, ...

........................................................................
.............................. CYCLE   30 ..............................
........................................................................
   1    -68.9492630 -0.689493E+02  0.167E-02    1.84       0.0  T
   2    -68.9492630 -0.411045E-07  0.979E-03    1.84       1.6  T
   3    -68.9492630  0.206525E-07  0.116E-03    1.84      13.2  T
   4    -68.9492630 -0.459619E-07  0.615E-04    1.84      24.8  T
   5    -68.9492630 -0.174094E-08  0.426E-04    1.84      35.8  T
     SCC iter.                  ...        0 min,  0.099 sec
     gradient                   ...        0 min,  0.020 sec
 * total energy  :   -67.8525465 Eh     change       -0.5649707E-05 Eh
   gradient norm :     0.0002807 Eh/α   predicted    -0.2252102E-05 ( -60.14%)
   displ. norm   :     0.0552718 α      lambda       -0.3612393E-05
   maximum displ.:     0.0419066 α      in ANC's #2, #3, #6, ...

........................................................................
.............................. CYCLE   31 ..............................
........................................................................
   1    -68.9493280 -0.689493E+02  0.130E-02    1.84       0.0  T
   2    -68.9493280 -0.283329E-07  0.763E-03    1.84       2.0  T
   3    -68.9493280  0.128415E-08  0.860E-04    1.84      17.7  T
   4    -68.9493280 -0.186064E-07  0.542E-04    1.84      28.1  T
     SCC iter.                  ...        0 min,  0.079 sec
     gradient                   ...        0 min,  0.021 sec
 * total energy  :   -67.8525513 Eh     change       -0.4753945E-05 Eh
   gradient norm :     0.0003349 Eh/α   predicted    -0.1810094E-05 ( -61.92%)
   displ. norm   :     0.0578210 α      lambda       -0.3935848E-05
   maximum displ.:     0.0424018 α      in ANC's #2, #6, #3, ...

   *** GEOMETRY OPTIMIZATION CONVERGED AFTER 31 ITERATIONS ***

------------------------------------------------------------------------
 total energy gain   :        -0.0307641 Eh      -19.3048 kcal/mol
 total RMSD          :         0.7271978 a0        0.3848 Å
 total power (kW/mol):        -2.6055247 (step)  -16.1616 (real)
------------------------------------------------------------------------

 ANCopt (total)                0 d,  0 h,  0 min,  4.998 sec
 optimizer setup                ...        0 min,  0.000 sec (  0.007%)
 model hessian                  ...        0 min,  0.077 sec (  1.542%)
 ANC generation                 ...        0 min,  0.058 sec (  1.167%)
 coordinate transformation      ...        0 min,  0.007 sec (  0.146%)
 single point calculation       ...        0 min,  4.803 sec ( 96.108%)
 optimization log               ...        0 min,  0.026 sec (  0.530%)
 hessian update                 ...        0 min,  0.007 sec (  0.140%)
 rational function              ...        0 min,  0.013 sec (  0.263%)

================
 final structure:
================
43
 xtb: 6.5.1 (fef0646)
N            1.04364825088030        2.08860076632882       -0.13203074423430
C            2.07481605529093        1.66276117778608       -1.07281329866959
C            3.39958283674727        1.43688774282875       -0.33087095108606
O            4.42174924388710        1.02653131080097       -1.20503064800592
C            5.01442120596497        1.93487974558166       -2.03210891581695
C            4.81534429257496        3.29432309435626       -2.00298370600120
C            5.50434676305405        4.12871005449357       -2.88104661406745
C            6.39406092576225        3.64689966104937       -3.82218044143635
C            6.59679756186302        2.24156781835394       -3.89431627284390
C            7.46723949298456        1.66978828612251       -4.86149552553935
C            7.66696777355167        0.29943031946058       -4.85095782947987
C            7.01628404018104       -0.52955836170308       -3.94028250756180
C            6.14597492739713       -0.00128400419769       -3.02643685681178
C            5.92157750462179        1.38673209841104       -2.98506554256867
C            7.12143554661002        4.52405200595374       -4.72880052476479
C            7.03129194537476        5.90393936466929       -4.65457862751227
C            7.71219641785103        6.73392869644283       -5.54422686896125
C            8.48949373493604        6.19584123802230       -6.53169787334428
C            8.62537207672487        4.79845934521527       -6.64564820229962
C            9.42228248000828        4.23682960037466       -7.66221322941770
C            9.54727805654561        2.87976534543887       -7.76877233891785
C            8.90513642704413        2.04088658307730       -6.85854762533736
C            8.12167353749634        2.54039053675143       -5.83190830149292
C            7.95161792688329        3.94764816736210       -5.72813674386080
Cl           0.71447895702014        0.11040722686161        2.04056444421210
H            0.14926025537143        2.18994879451909       -0.59834829258286
H            1.28704782471298        2.97601810446866        0.29597691190412
H            0.86098992973312        1.00888107908412        1.03751617394908
H            2.23274077197237        2.38593000873621       -1.88572952710297
H            1.75850068498604        0.71759423687652       -1.51915169477514
H            3.27998817024343        0.61732534398579        0.38150672745413
H            3.68673048483342        2.33784411548869        0.22606721419555
H            4.13845985842342        3.75137777891810       -1.29767921262391
H            5.30977900135442        5.18608737170518       -2.80265255349246
H            8.34205813570554       -0.16032552051903       -5.55445865961478
H            7.20066954032574       -1.59346054378043       -3.96657413003980
H            5.62379259248368       -0.62866927959868       -2.32244339469360
H            6.42694179844623        6.37341340646179       -3.89517390566150
H            7.61377500290264        7.80556265351790       -5.44742226033447
H            9.01155758072811        6.82882391081520       -7.23444132539896
H            9.92541946325489        4.89691569778806       -8.35383353903037
H           10.14820761110156        2.44488823702343       -8.55429181011733
H            9.03518331214099        0.97787678467115       -6.98151097622252

 Bond Distances (Angstroems)
 ---------------------------
N1-C2=1.4594         N1-H26=1.0137        N1-H27=1.0149        C2-N1=1.4594         C2-C3=1.5351         C2-H29=1.0994        
C2-H30=1.0921        C3-C2=1.5351         C3-O4=1.4062         C3-H31=1.0925        C3-H32=1.0974        O4-C3=1.4062         
O4-C5=1.3640         C5-O4=1.3640         C5-C6=1.3743         C5-C14=1.4253        C6-C5=1.3743         C6-C7=1.3935         
C6-H33=1.0791        C7-C6=1.3935         C7-C8=1.3818         C7-H34=1.0780        C8-C7=1.3818         C8-C9=1.4217         
C8-C15=1.4562        C9-C8=1.4217         C9-C10=1.4213        C9-C14=1.4189        C10-C9=1.4213        C10-C11=1.3849       
C10-C23=1.4587       C11-C10=1.3849       C11-C12=1.3928       C11-H35=1.0780       C12-C11=1.3928       C12-C13=1.3681       
C12-H36=1.0801       C13-C12=1.3681       C13-C14=1.4066       C13-H37=1.0779       C14-C5=1.4253        C14-C9=1.4189        
C14-C13=1.4066       C15-C8=1.4562        C15-C16=1.3848       C15-C24=1.4213       C16-C15=1.3848       C16-C17=1.3943       
C16-H38=1.0781       C17-C16=1.3943       C17-C18=1.3671       C17-H39=1.0805       C18-C17=1.3671       C18-C19=1.4086       
C18-H40=1.0803       C19-C18=1.4086       C19-C20=1.4085       C19-C24=1.4211       C20-C19=1.4085       C20-C21=1.3670       
C20-H41=1.0804       C21-C20=1.3670       C21-C22=1.3945       C21-H42=1.0804       C22-C21=1.3945       C22-C23=1.3847       
C22-H43=1.0780       C23-C10=1.4587       C23-C22=1.3847       C23-C24=1.4213       C24-C15=1.4213       C24-C19=1.4211       
C24-C23=1.4213       Cl25-H28=1.3546      H26-N1=1.0137        H27-N1=1.0149        H28-Cl25=1.3546      H29-C2=1.0994        
H30-C2=1.0921        H31-C3=1.0925        H32-C3=1.0974        H33-C6=1.0791        H34-C7=1.0780        H35-C11=1.0780       
H36-C12=1.0801       H37-C13=1.0779       H38-C16=1.0781       H39-C17=1.0805       H40-C18=1.0803       H41-C20=1.0804       
H42-C21=1.0804       H43-C22=1.0780       
 C  H  Rav=1.0835 sigma=0.0074  Rmin=1.0779  Rmax=1.0994    15
 C  C  Rav=1.4085 sigma=0.0355  Rmin=1.3670  Rmax=1.5351    25
 N  H  Rav=1.0143 sigma=0.0006  Rmin=1.0137  Rmax=1.0149     2
 N  C  Rav=1.4594 sigma=0.0000  Rmin=1.4594  Rmax=1.4594     1
 O  C  Rav=1.3851 sigma=0.0211  Rmin=1.3640  Rmax=1.4062     2
 Cl H  Rav=1.3546 sigma=0.0000  Rmin=1.3546  Rmax=1.3546     1

 selected bond angles (degree)
 --------------------
H26-N1-C2=110.86               H27-N1-C2=110.95               H27-N1-H26=108.55              C3-C2-N1=109.95                
H29-C2-N1=112.72               H29-C2-C3=109.28               H30-C2-N1=108.14               H30-C2-C3=108.67               
H30-C2-H29=107.98              O4-C3-C2=111.70                H31-C3-C2=109.33               H31-C3-O4=105.43               
H32-C3-C2=110.51               H32-C3-O4=111.40               H32-C3-H31=108.28              C5-O4-C3=119.90                
C6-C5-O4=125.66                C14-C5-O4=115.21               C14-C5-C6=119.13               C7-C6-C5=120.49                
H33-C6-C5=121.58               H33-C6-C7=117.93               C8-C7-C6=122.60                H34-C7-C6=116.89               
H34-C7-C8=120.51               C9-C8-C7=118.10                C15-C8-C7=122.39               C15-C8-C9=119.51               
C10-C9-C8=121.30               C14-C9-C8=119.68               C14-C9-C10=119.02              C11-C10-C9=118.77              
C23-C10-C9=119.17              C23-C10-C11=122.07             

 selected dihedral angles (degree)
 ---------------------------------
C3-C2-N1-H26=183.29           C3-C2-N1-H27= 62.59           H29-C2-N1-H26= 61.09          H29-C2-N1-H27=300.40          
H30-C2-N1-H26=301.80          H30-C2-N1-H27=181.10          O4-C3-C2-N1=180.09            O4-C3-C2-H29=304.30           
O4-C3-C2-H30= 61.91           H31-C3-C2-N1= 63.79           H31-C3-C2-H29=188.00          H31-C3-C2-H30=305.61          
H32-C3-C2-N1=304.71           H32-C3-C2-H29= 68.92          H32-C3-C2-H30=186.53          C5-O4-C3-C2= 75.59            
C5-O4-C3-H31=194.25           C5-O4-C3-H32=311.47           C6-C5-O4-C3=  7.85            C14-C5-O4-C3=187.17           
C7-C6-C5-O4=178.44            C7-C6-C5-C14=359.14           H33-C6-C5-O4=359.35           H33-C6-C5-C14=180.05          
C8-C7-C6-C5=  0.86            C8-C7-C6-H33=179.98           H34-C7-C6-C5=180.47           H34-C7-C6-H33=359.60          
C9-C8-C7-C6=  0.54            C9-C8-C7-H34=180.94           C15-C8-C7-C6=180.61           C15-C8-C7-H34=  1.01          
C10-C9-C8-C7=178.20           C10-C9-C8-C15=358.12          C14-C9-C8-C7=358.12           C14-C9-C8-C15=178.04          
C11-C10-C9-C8=177.48          C11-C10-C9-C14=357.56         C23-C10-C9-C8=357.50          C23-C10-C9-C14=177.58         

 CMA Distance (Angstroems)
 ---------------------------
R(CMA):  8.7194
           -------------------------------------------------
          |                Final Singlepoint                |
           -------------------------------------------------

          ...................................................
          :                      SETUP                      :
          :.................................................:
          :  # basis functions                 124          :
          :  # atomic orbitals                 123          :
          :  # shells                           69          :
          :  # electrons                       124          :
          :  max. iterations                   250          :
          :  Hamiltonian                  GFN2-xTB          :
          :  restarted?                      false          :
          :  GBSA solvation                  false          :
          :  PC potential                    false          :
          :  electronic temp.          300.0000000     K    :
          :  accuracy                    1.0000000          :
          :  -> integral cutoff          0.2500000E+02      :
          :  -> integral neglect         0.1000000E-07      :
          :  -> SCF convergence          0.1000000E-05 Eh   :
          :  -> wf. convergence          0.1000000E-03 e    :
          :  Broyden damping             0.4000000          :
          ...................................................

 iter      E             dE          RMSdq      gap      omega  full diag
   1    -68.9493280 -0.689493E+02  0.380E-04    1.84       0.0  T
   2    -68.9493280 -0.559183E-09  0.329E-04    1.84      46.3  T
   3    -68.9493280 -0.125360E-08  0.263E-04    1.84      58.1  T

   *** convergence criteria satisfied after 3 iterations ***

         #    Occupation            Energy/Eh            Energy/eV
      -------------------------------------------------------------
         1        2.0000           -1.0264120             -27.9301
       ...           ...                  ...                  ...
        56        2.0000           -0.4036842             -10.9848
        57        2.0000           -0.4035514             -10.9812
        58        2.0000           -0.4035220             -10.9804
        59        2.0000           -0.4024783             -10.9520
        60        2.0000           -0.3997346             -10.8773
        61        2.0000           -0.3938674             -10.7177
        62        2.0000           -0.3521875              -9.5835 (HOMO)
        63                         -0.2844538              -7.7404 (LUMO)
        64                         -0.2312276              -6.2920
        65                         -0.2255671              -6.1380
        66                         -0.2243315              -6.1044
        67                         -0.2222079              -6.0466
       ...                                ...                  ...
       123                          0.7382642              20.0892
      -------------------------------------------------------------
                  HL-Gap            0.0677337 Eh            1.8431 eV
             Fermi-level           -0.3183207 Eh           -8.6619 eV

 SCC (total)                   0 d,  0 h,  0 min,  0.087 sec
 SCC setup                      ...        0 min,  0.000 sec (  0.486%)
 Dispersion                     ...        0 min,  0.001 sec (  1.436%)
 classical contributions        ...        0 min,  0.000 sec (  0.325%)
 integral evaluation            ...        0 min,  0.005 sec (  5.740%)
 iterations                     ...        0 min,  0.061 sec ( 70.329%)
 molecular gradient             ...        0 min,  0.017 sec ( 20.130%)
 printout                       ...        0 min,  0.001 sec (  1.348%)

         :::::::::::::::::::::::::::::::::::::::::::::::::::::
         ::                     SUMMARY                     ::
         :::::::::::::::::::::::::::::::::::::::::::::::::::::
         :: total energy             -67.852551275567 Eh    ::
         :: gradient norm              0.000335687710 Eh/a0 ::
         :: HOMO-LUMO gap              1.843127765811 eV    ::
         ::.................................................::
         :: SCC energy               -68.949328005727 Eh    ::
         :: -> isotropic ES            0.041125738828 Eh    ::
         :: -> anisotropic ES          0.000154637394 Eh    ::
         :: -> anisotropic XC          0.027953506244 Eh    ::
         :: -> dispersion             -0.052966000551 Eh    ::
         :: repulsion energy           1.096991781057 Eh    ::
         :: add. restraining           0.000000000000 Eh    ::
         :: total charge               0.000000000000 e     ::
         :::::::::::::::::::::::::::::::::::::::::::::::::::::

           -------------------------------------------------
          |                Property Printout                |
           -------------------------------------------------

    * Orbital Energies and Occupations

         #    Occupation            Energy/Eh            Energy/eV
      -------------------------------------------------------------
         1        2.0000           -1.0264120             -27.9301
       ...           ...                  ...                  ...
        50        2.0000           -0.4341911             -11.8149
        51        2.0000           -0.4332752             -11.7900
        52        2.0000           -0.4268003             -11.6138
        53        2.0000           -0.4118868             -11.2080
        54        2.0000           -0.4062078             -11.0535
        55        2.0000           -0.4052472             -11.0273
        56        2.0000           -0.4036842             -10.9848
        57        2.0000           -0.4035514             -10.9812
        58        2.0000           -0.4035220             -10.9804
        59        2.0000           -0.4024783             -10.9520
        60        2.0000           -0.3997346             -10.8773
        61        2.0000           -0.3938674             -10.7177
        62        2.0000           -0.3521875              -9.5835 (HOMO)
        63                         -0.2844538              -7.7404 (LUMO)
        64                         -0.2312276              -6.2920
        65                         -0.2255671              -6.1380
        66                         -0.2243315              -6.1044
        67                         -0.2222079              -6.0466
        68                         -0.1561752              -4.2497
        69                         -0.1554277              -4.2294
        70                         -0.1163248              -3.1654
        71                         -0.0745135              -2.0276
        72                         -0.0686249              -1.8674
        73                         -0.0224470              -0.6108
       ...                                ...                  ...
       123                          0.7382642              20.0892
      -------------------------------------------------------------
                  HL-Gap            0.0677337 Eh            1.8431 eV
             Fermi-level           -0.3183207 Eh           -8.6619 eV

     #   Z          covCN         q      C6AA      α(0)
     1   7 N        2.663    -0.316    28.125     7.876
     2   6 C        3.729    -0.000    20.680     6.492
     3   6 C        3.692     0.065    19.666     6.345
     4   8 O        1.705    -0.264    18.377     5.788
     5   6 C        2.861     0.135    25.053     8.204
     6   6 C        2.911    -0.074    29.836     8.957
     7   6 C        2.923    -0.040    29.002     8.831
     8   6 C        2.973    -0.005    28.145     8.702
     9   6 C        2.994     0.003    27.946     8.672
    10   6 C        2.974     0.007    27.869     8.659
    11   6 C        2.923    -0.036    28.886     8.814
    12   6 C        2.914    -0.031    28.783     8.797
    13   6 C        2.921    -0.032    28.789     8.799
    14   6 C        2.987    -0.006    28.168     8.706
    15   6 C        2.973     0.007    27.870     8.660
    16   6 C        2.923    -0.039    28.976     8.827
    17   6 C        2.913    -0.031    28.781     8.797
    18   6 C        2.921    -0.039    28.958     8.825
    19   6 C        2.986     0.012    27.739     8.639
    20   6 C        2.921    -0.037    28.933     8.821
    21   6 C        2.913    -0.031    28.775     8.796
    22   6 C        2.923    -0.038    28.938     8.822
    23   6 C        2.973     0.006    27.891     8.663
    24   6 C        2.995     0.003    27.942     8.671
    25  17 Cl       0.840    -0.463   114.346    16.359
    26   1 H        0.860     0.173     1.257     1.756
    27   1 H        0.860     0.166     1.295     1.783
    28   1 H        0.872     0.332     0.625     1.238
    29   1 H        0.923     0.036     2.505     2.475
    30   1 H        0.924     0.064     2.157     2.297
    31   1 H        0.924     0.078     1.997     2.210
    32   1 H        0.924     0.039     2.464     2.455
    33   1 H        0.926     0.027     2.630     2.536
    34   1 H        0.926     0.035     2.518     2.481
    35   1 H        0.926     0.035     2.516     2.481
    36   1 H        0.926     0.033     2.547     2.496
    37   1 H        0.926     0.050     2.325     2.384
    38   1 H        0.926     0.029     2.598     2.520
    39   1 H        0.926     0.028     2.613     2.528
    40   1 H        0.926     0.030     2.587     2.515
    41   1 H        0.926     0.030     2.579     2.511
    42   1 H        0.926     0.029     2.598     2.521
    43   1 H        0.926     0.032     2.559     2.501

 Mol. C6AA /au·bohr⁶  :      26330.517239
 Mol. C8AA /au·bohr⁸  :     682686.358240
 Mol. α(0) /au        :        259.210892


Wiberg/Mayer (AO) data.
largest (>0.10) Wiberg bond orders for each atom

 ---------------------------------------------------------------------------
     #   Z sym  total        # sym  WBO       # sym  WBO       # sym  WBO
 ---------------------------------------------------------------------------
     1   7 N    3.205 --     2 C    1.012    27 H    0.958    26 H    0.957
                            28 H    0.177
     2   6 C    3.972 --     1 N    1.012     3 C    0.989    30 H    0.974
                            29 H    0.969
     3   6 C    3.947 --     2 C    0.989     4 O    0.981    31 H    0.966
                            32 H    0.963
     4   8 O    2.235 --     5 C    1.060     3 C    0.981
     5   6 C    3.907 --     6 C    1.449    14 C    1.206     4 O    1.060
     6   6 C    3.984 --     5 C    1.449     7 C    1.363    33 H    0.963
     7   6 C    3.971 --     8 C    1.444     6 C    1.363    34 H    0.962
     8   6 C    3.987 --     7 C    1.444     9 C    1.238    15 C    1.103
     9   6 C    3.988 --    14 C    1.269    10 C    1.251     8 C    1.238
    10   6 C    3.988 --    11 C    1.441     9 C    1.251    23 C    1.099
                            13 C    0.101
    11   6 C    3.973 --    10 C    1.441    12 C    1.369    35 H    0.962
    12   6 C    3.991 --    13 C    1.516    11 C    1.369    36 H    0.970
    13   6 C    3.966 --    12 C    1.516    14 C    1.297    37 H    0.966
                            10 C    0.101
    14   6 C    3.986 --    13 C    1.297     9 C    1.269     5 C    1.206
    15   6 C    3.988 --    16 C    1.443    24 C    1.248     8 C    1.103
                            18 C    0.101
    16   6 C    3.967 --    15 C    1.443    17 C    1.361    38 H    0.963
    17   6 C    3.992 --    18 C    1.526    16 C    1.361    39 H    0.971
    18   6 C    3.963 --    17 C    1.526    19 C    1.280    40 H    0.969
                            15 C    0.101
    19   6 C    3.990 --    20 C    1.280    18 C    1.280    24 C    1.257
    20   6 C    3.964 --    21 C    1.527    19 C    1.280    41 H    0.969
                            23 C    0.101
    21   6 C    3.992 --    20 C    1.527    22 C    1.360    42 H    0.970
    22   6 C    3.970 --    23 C    1.445    21 C    1.360    43 H    0.962
    23   6 C    3.989 --    22 C    1.445    24 C    1.250    10 C    1.099
                            20 C    0.101
    24   6 C    3.988 --    19 C    1.257    23 C    1.250    15 C    1.248
    25  17 Cl   0.788 --    28 H    0.709
    26   1 H    0.970 --     1 N    0.957
    27   1 H    0.972 --     1 N    0.958
    28   1 H    0.890 --    25 Cl   0.709     1 N    0.177
    29   1 H    0.999 --     2 C    0.969
    30   1 H    0.996 --     2 C    0.974
    31   1 H    0.993 --     3 C    0.966
    32   1 H    0.998 --     3 C    0.963
    33   1 H    0.998 --     6 C    0.963
    34   1 H    0.998 --     7 C    0.962
    35   1 H    0.998 --    11 C    0.962
    36   1 H    0.998 --    12 C    0.970
    37   1 H    0.997 --    13 C    0.966
    38   1 H    0.999 --    16 C    0.963
    39   1 H    0.998 --    17 C    0.971
    40   1 H    0.998 --    18 C    0.969
    41   1 H    0.998 --    20 C    0.969
    42   1 H    0.998 --    21 C    0.970
    43   1 H    0.998 --    22 C    0.962
 ---------------------------------------------------------------------------

Topologies differ in total number of bonds
Writing topology from bond orders to xtbtopo.mol

molecular dipole:
                 x           y           z       tot (Debye)
 q only:       -0.046       1.135      -1.164
   full:       -0.245       1.270      -0.964       4.100
molecular quadrupole (traceless):
                xx          xy          yy          xz          yz          zz
 q only:       -2.661      -0.308       9.465      -2.754       2.981      -6.804
  q+dip:      -12.110      -0.073      19.193      -7.726       0.746      -7.083
   full:       -8.509       0.579      14.528      -2.522       0.818      -6.019

           -------------------------------------------------
          |                Geometry Summary                 |
           -------------------------------------------------

      molecular mass/u    :      347.8381690
   center of mass at/Å    :        5.8085934       2.5254929      -3.3941981
  moments of inertia/u·Å² :        0.9896918E+03   0.5926598E+04   0.6794760E+04
rotational constants/cm⁻¹ :        0.1703321E-01   0.2844403E-02   0.2480975E-02

 * 43 selected distances

     #   Z          #   Z                                           value/Å
     1   7 N        2   6 C                                       1.4593555
     2   6 C        3   6 C                                       1.5350911 (max)
     3   6 C        4   8 O                                       1.4061906
     4   8 O        5   6 C                                       1.3639706
     5   6 C        6   6 C                                       1.3742512
     6   6 C        7   6 C                                       1.3935282
     7   6 C        8   6 C                                       1.3818342
     8   6 C        9   6 C                                       1.4217115
     9   6 C       10   6 C                                       1.4212801
    10   6 C       11   6 C                                       1.3848768
    11   6 C       12   6 C                                       1.3928178
    12   6 C       13   6 C                                       1.3680738
     5   6 C       14   6 C                                       1.4253158
     9   6 C       14   6 C                                       1.4189445
    13   6 C       14   6 C                                       1.4066467
    15   6 C       16   6 C                                       1.3848192
    16   6 C       17   6 C                                       1.3942695
    17   6 C       18   6 C                                       1.3670510
    18   6 C       19   6 C                                       1.4085894
    19   6 C       20   6 C                                       1.4085095
    20   6 C       21   6 C                                       1.3669684
    21   6 C       22   6 C                                       1.3944794
    22   6 C       23   6 C                                       1.3846685
    15   6 C       24   6 C                                       1.4213083
    19   6 C       24   6 C                                       1.4211446
    23   6 C       24   6 C                                       1.4212888
     1   7 N       26   1 H                                       1.0137325 (min)
     1   7 N       27   1 H                                       1.0148614
     2   6 C       29   1 H                                       1.0994300
     2   6 C       30   1 H                                       1.0920687
     3   6 C       31   1 H                                       1.0924594
     3   6 C       32   1 H                                       1.0974318
     6   6 C       33   1 H                                       1.0791321
     7   6 C       34   1 H                                       1.0779839
    11   6 C       35   1 H                                       1.0779778
    12   6 C       36   1 H                                       1.0800821
    13   6 C       37   1 H                                       1.0779117
    16   6 C       38   1 H                                       1.0781191
    17   6 C       39   1 H                                       1.0804895
    18   6 C       40   1 H                                       1.0803084
    20   6 C       41   1 H                                       1.0803700
    21   6 C       42   1 H                                       1.0804052
    22   6 C       43   1 H                                       1.0779713

 * 5 distinct bonds (by element types)

   Z      Z             #   av. dist./Å        max./Å        min./Å
   1 H    6 C          15     1.0834761     1.0994300     1.0779117
   6 C    6 C          23     1.4042378     1.5350911     1.3669684
   1 H    7 N           2     1.0142969     1.0148614     1.0137325
   6 C    7 N           1     1.4593555     1.4593555     1.4593555
   6 C    8 O           2     1.3850806     1.4061906     1.3639706


optimized geometry written to: xtbopt.xyz


           -------------------------------------------------
          | TOTAL ENERGY              -67.852551275567 Eh   |
          | GRADIENT NORM               0.000335687710 Eh/α |
          | HOMO-LUMO GAP               1.843127765811 eV   |
           -------------------------------------------------

------------------------------------------------------------------------
 * finished run on 2023/01/23 at 20:59:10.236     
------------------------------------------------------------------------
 total:
 * wall-time:     0 d,  0 h,  0 min,  5.401 sec
 *  cpu-time:     0 d,  0 h, 11 min, 39.711 sec
 * ratio c/w:   129.556 speedup
 SCF:
 * wall-time:     0 d,  0 h,  0 min,  0.263 sec
 *  cpu-time:     0 d,  0 h,  0 min, 33.585 sec
 * ratio c/w:   127.574 speedup
 ANC optimizer:
 * wall-time:     0 d,  0 h,  0 min,  5.091 sec
 *  cpu-time:     0 d,  0 h, 11 min,  0.136 sec
 * ratio c/w:   129.657 speedup

