47
 energy: -77.534342446468 gnorm: 0.000466447233 xtb: 6.5.1 (fef0646)
N            4.84080345370001        2.35544256807006       -2.24228385840274
C            4.48986867133862        2.40151675245214       -0.79520795480979
C            3.99022219546217        1.00633869791641       -0.39215162597316
C            5.00958313625962       -0.00294810579474       -0.80549125225716
C            5.15360291005893       -0.55628214915407       -2.05821898588924
C            6.31055300303571       -1.34546600849750       -2.18073159025817
C            7.07143289148527       -1.37229226610575       -1.03715551796125
C            8.29069777349540       -2.07111246935998       -0.82489956856108
C            9.02510819276391       -2.20578198734798        0.33071844155624
C           10.18082127940292       -2.98290917809040        0.18635492155836
C           11.11200114301702       -3.25821519409123        1.31625345583146
C           10.34373742490894       -3.44458926256129       -1.11488359802363
C           11.37611718008251       -4.25947580893060       -1.65743757973799
C           11.60046412453396       -4.56490890902531       -2.99263784368449
C           10.85445483609382       -4.06305136830756       -4.07253330880699
N           10.26587089388832       -3.65234512232910       -4.96772916384228
C           12.70523708154787       -5.43553908315767       -3.19776940519902
C           13.06283771784068       -5.83492607543376       -4.49765267106292
N           13.29820837808501       -6.11943717284609       -5.58312273234095
C           13.33736146018256       -5.81291920391984       -2.01966855973353
C           14.45515115390684       -6.67599979452068       -1.86350879702555
C           15.08021237312757       -7.08869113909570       -0.69439979040294
C           14.69103847144908       -6.68630921450203        0.68565738826046
C           16.15542594163313       -7.95896666991601       -0.95635855843884
C           16.34599473697244       -8.20216318108793       -2.28162594979056
S           15.22103778822416       -7.38037493656092       -3.26995248180617
S           12.55556214671474       -5.06323771148973       -0.65701465922585
S            9.04481263567743       -2.91301863489254       -2.14587623239858
S            6.34689921022923       -0.41094315196113        0.22180284253013
H            5.52296260323613        3.07006088042380       -2.51021845026268
H            4.00633681247620        2.45451394070000       -2.82988701923449
H            5.23722510685968        1.37399266914910       -2.38594676860368
H            3.73697748822007        3.16648542509434       -0.61141327387995
H            5.39043497373241        2.64035378850366       -0.22836822928571
H            3.03444442280471        0.79487128832754       -0.87531142523845
H            3.83785848592520        0.98217771045087        0.68538009415198
H            4.39765236707834       -0.51719940532426       -2.82646198920463
H            6.57997952219038       -1.88928901322034       -3.06708755881500
H            8.73039809856144       -1.75800515661162        1.26447588138722
H           10.81411258701848       -2.68536346589373        2.19028972605422
H           12.13467604165690       -2.98975090692827        1.05393745369809
H           11.10031305272123       -4.31661719838167        1.57661168141273
H           13.66058152644945       -6.97183151418662        0.89988056816432
H           14.77471648138479       -5.60673522930048        0.81586706665481
H           15.34101865950512       -7.17226018007454        1.40816039831379
H           16.76471423368941       -8.38911897571786       -0.18203635515320
H           17.08991933131898       -8.82369887649697       -2.73907716427806
