      -----------------------------------------------------------      
     |                   =====================                   |     
     |                           x T B                           |     
     |                   =====================                   |     
     |                         S. Grimme                         |     
     |          Mulliken Center for Theoretical Chemistry        |     
     |                    University of Bonn                     |     
      -----------------------------------------------------------      

   * xtb version 6.5.1 (fef0646) compiled by 'conda@b96dff2e9fd6' on 2023-01-04

   xtb is free software: you can redistribute it and/or modify it under
   the terms of the GNU Lesser General Public License as published by
   the Free Software Foundation, either version 3 of the License, or
   (at your option) any later version.
   
   xtb is distributed in the hope that it will be useful,
   but WITHOUT ANY WARRANTY; without even the implied warranty of
   MERCHANTABILITY or FITNESS FOR A PARTICULAR PURPOSE.  See the
   GNU Lesser General Public License for more details.
   
   Cite this work as:
   * C. Bannwarth, E. Caldeweyher, S. Ehlert, A. Hansen, P. Pracht,
     J. Seibert, S. Spicher, S. Grimme, WIREs Comput. Mol. Sci., 2020, 11,
     e01493. DOI: 10.1002/wcms.1493
   
   for GFN2-xTB:
   * C. Bannwarth, S. Ehlert and S. Grimme., J. Chem. Theory Comput., 2019,
     15, 1652-1671. DOI: 10.1021/acs.jctc.8b01176
   for GFN1-xTB:
   * S. Grimme, C. Bannwarth, P. Shushkov, J. Chem. Theory Comput., 2017,
     13, 1989-2009. DOI: 10.1021/acs.jctc.7b00118
   for GFN0-xTB:
   * P. Pracht, E. Caldeweyher, S. Ehlert, S. Grimme, ChemRxiv, 2019, preprint.
     DOI: 10.26434/chemrxiv.8326202.v1
   for GFN-FF:
   * S. Spicher and S. Grimme, Angew. Chem. Int. Ed., 2020, 59, 15665-15673.
     DOI: 10.1002/anie.202004239
   
   for ALPB and GBSA implicit solvation:
   * S. Ehlert, M. Stahn, S. Spicher, S. Grimme, J. Chem. Theory Comput.,
     2021, 17, 4250-4261. DOI: 10.1021/acs.jctc.1c00471
   
   for DFT-D4:
   * E. Caldeweyher, C. Bannwarth and S. Grimme, J. Chem. Phys., 2017,
     147, 034112. DOI: 10.1063/1.4993215
   * E. Caldeweyher, S. Ehlert, A. Hansen, H. Neugebauer, S. Spicher,
     C. Bannwarth and S. Grimme, J. Chem. Phys., 2019, 150, 154122.
     DOI: 10.1063/1.5090222
   * E. Caldeweyher, J.-M. Mewes, S. Ehlert and S. Grimme, Phys. Chem. Chem. Phys.
     2020, 22, 8499-8512. DOI: 10.1039/D0CP00502A
   
   for sTDA-xTB:
   * S. Grimme and C. Bannwarth, J. Chem. Phys., 2016, 145, 054103.
     DOI: 10.1063/1.4959605
   
   in the mass-spec context:
   * V. Asgeirsson, C. Bauer and S. Grimme, Chem. Sci., 2017, 8, 4879.
     DOI: 10.1039/c7sc00601b
   * J. Koopman and S. Grimme, ACS Omega 2019, 4, 12, 15120-15133.
     DOI: 10.1021/acsomega.9b02011
   
   for metadynamics refer to:
   * S. Grimme, J. Chem. Theory Comput., 2019, 155, 2847-2862
     DOI: 10.1021/acs.jctc.9b00143
   
   for SPH calculations refer to:
   * S. Spicher and S. Grimme, J. Chem. Theory Comput., 2021, 17, 1701-1714
     DOI: 10.1021/acs.jctc.0c01306
   
   with help from (in alphabetical order)
   P. Atkinson, C. Bannwarth, F. Bohle, G. Brandenburg, E. Caldeweyher
   M. Checinski, S. Dohm, S. Ehlert, S. Ehrlich, I. Gerasimov, C. Hölzer
   A. Katbashev, J. Koopman, C. Lavigne, S. Lehtola, F. März, M. Müller,
   F. Musil, H. Neugebauer, J. Pisarek, C. Plett, P. Pracht, F. Pultar,
   J. Seibert, P. Shushkov, S. Spicher, M. Stahn, M. Steiner, T. Strunk,
   J. Stückrath, T. Rose, and J. Unsleber
   
 * started run on 2023/01/23 at 14:06:49.738     

           -------------------------------------------------
          |                Calculation Setup                |
           -------------------------------------------------

          program call               : xtb init.xyz --opt -c 0 -u 0 -P 16
          hostname                   : gpg-woodward
          coordinate file            : init.xyz
          omp threads                :                    16

   ID    Z sym.   atoms
    1    7 N      1
    2    6 C      2-7, 9, 10
    3   17 Cl     8, 11
    4    1 H      12-22

molecular fragmentation (1/2 indicates fragments):
1111111111211111111111
# atoms in fragment 1/2:    21     1
 fragment masses (1/2) :      156.63       35.45
CMA distance (Bohr)    :  13.443
constraining FC (au)   :  0.0500

           -------------------------------------------------
          |                 G F N 2 - x T B                 |
           -------------------------------------------------

        Reference                      10.1021/acs.jctc.8b01176
      * Hamiltonian:
        H0-scaling (s, p, d)           1.850000    2.230000    2.230000
        zeta-weighting                 0.500000
      * Dispersion:
        s8                             2.700000
        a1                             0.520000
        a2                             5.000000
        s9                             5.000000
      * Repulsion:
        kExp                           1.500000    1.000000
        rExp                           1.000000
      * Coulomb:
        alpha                          2.000000
        third order                    shell-resolved
        anisotropic                    true
        a3                             3.000000
        a5                             4.000000
        cn-shift                       1.200000
        cn-exp                         4.000000
        max-rad                        5.000000


          ...................................................
          :                      SETUP                      :
          :.................................................:
          :  # basis functions                  67          :
          :  # atomic orbitals                  65          :
          :  # shells                           35          :
          :  # electrons                        62          :
          :  max. iterations                   250          :
          :  Hamiltonian                  GFN2-xTB          :
          :  restarted?                      false          :
          :  GBSA solvation                  false          :
          :  PC potential                    false          :
          :  electronic temp.          300.0000000     K    :
          :  accuracy                    1.0000000          :
          :  -> integral cutoff          0.2500000E+02      :
          :  -> integral neglect         0.1000000E-07      :
          :  -> SCF convergence          0.1000000E-05 Eh   :
          :  -> wf. convergence          0.1000000E-03 e    :
          :  Broyden damping             0.4000000          :
          ...................................................

 iter      E             dE          RMSdq      gap      omega  full diag
   1    -35.0138648 -0.350139E+02  0.437E+00    4.24       0.0  T
   2    -35.1378941 -0.124029E+00  0.249E+00    3.33       1.0  T
   3    -35.1412201 -0.332601E-02  0.128E+00    2.53       1.0  T
   4    -35.1400778  0.114226E-02  0.635E-01    2.17       1.0  T
   5    -35.1446076 -0.452982E-02  0.286E-01    2.15       1.0  T
   6    -35.1448603 -0.252603E-03  0.204E-01    2.15       1.0  T
   7    -35.1452522 -0.391984E-03  0.925E-02    2.17       1.0  T
   8    -35.1453181 -0.658279E-04  0.417E-02    2.17       1.0  T
   9    -35.1453299 -0.118343E-04  0.104E-02    2.17       2.0  T
  10    -35.1453302 -0.321023E-06  0.530E-03    2.17       4.0  T
  11    -35.1453304 -0.180714E-06  0.291E-03    2.17       7.3  T
  12    -35.1453305 -0.804463E-07  0.130E-03    2.17      16.4  T
  13    -35.1453305 -0.855775E-08  0.925E-04    2.17      23.0  T
  14    -35.1453305 -0.677690E-08  0.507E-04    2.17      42.1  T

   *** convergence criteria satisfied after 14 iterations ***

         #    Occupation            Energy/Eh            Energy/eV
      -------------------------------------------------------------
         1        2.0000           -1.0693137             -29.0975
       ...           ...                  ...                  ...
        25        2.0000           -0.4613881             -12.5550
        26        2.0000           -0.4387156             -11.9381
        27        2.0000           -0.4320929             -11.7578
        28        2.0000           -0.4140365             -11.2665
        29        2.0000           -0.3531299              -9.6092
        30        2.0000           -0.3430561              -9.3350
        31        2.0000           -0.3426254              -9.3233 (HOMO)
        32                         -0.2630001              -7.1566 (LUMO)
        33                         -0.2613838              -7.1126
        34                         -0.1484519              -4.0396
        35                         -0.1405016              -3.8232
        36                         -0.0878857              -2.3915
       ...                                ...                  ...
        65                          0.5838908              15.8885
      -------------------------------------------------------------
                  HL-Gap            0.0796253 Eh            2.1667 eV
             Fermi-level           -0.3028127 Eh           -8.2400 eV

 SCC (total)                   0 d,  0 h,  0 min,  0.051 sec
 SCC setup                      ...        0 min,  0.000 sec (  0.442%)
 Dispersion                     ...        0 min,  0.000 sec (  0.757%)
 classical contributions        ...        0 min,  0.000 sec (  0.348%)
 integral evaluation            ...        0 min,  0.002 sec (  3.259%)
 iterations                     ...        0 min,  0.044 sec ( 87.926%)
 molecular gradient             ...        0 min,  0.003 sec (  5.429%)
 printout                       ...        0 min,  0.001 sec (  1.200%)

         :::::::::::::::::::::::::::::::::::::::::::::::::::::
         ::                     SUMMARY                     ::
         :::::::::::::::::::::::::::::::::::::::::::::::::::::
         :: total energy             -34.729565398334 Eh    ::
         :: gradient norm              0.052730962960 Eh/a0 ::
         :: HOMO-LUMO gap              2.166715503218 eV    ::
         ::.................................................::
         :: SCC energy               -35.145330495180 Eh    ::
         :: -> isotropic ES            0.096087674287 Eh    ::
         :: -> anisotropic ES         -0.024725902514 Eh    ::
         :: -> anisotropic XC          0.007144028827 Eh    ::
         :: -> dispersion             -0.017822040673 Eh    ::
         :: repulsion energy           0.415859137186 Eh    ::
         :: add. restraining           0.000000000000 Eh    ::
         :: total charge              -0.000000000000 e     ::
         :::::::::::::::::::::::::::::::::::::::::::::::::::::

      ----------------------------------------------------------- 
     |                   =====================                   |
     |                        A N C O P T                        |
     |                   =====================                   |
     |               Approximate Normal Coordinate               |
     |                Rational Function Optimizer                |
      ----------------------------------------------------------- 

          ...................................................
          :                      SETUP                      :
          :.................................................:
          :   optimization level            normal          :
          :   max. optcycles                   200          :
          :   ANC micro-cycles                  20          :
          :   degrees of freedom                60          :
          :.................................................:
          :   RF solver                   davidson          :
          :   write xtbopt.log                true          :
          :   linear?                        false          :
          :   energy convergence         0.5000000E-05 Eh   :
          :   grad. convergence          0.1000000E-02 Eh/α :
          :   maximium RF displ.         1.0000000          :
          :   Hlow (freq-cutoff)         0.1000000E-01      :
          :   Hmax (freq-cutoff)         5.0000000          :
          :   S6 in model hess.         20.0000000          :
          ...................................................

generating ANC from model Hessian ...
Using Lindh-Hessian (1995)
 Shifting diagonal of input Hessian by    9.8485600004051318E-003
 Lowest  eigenvalues of input Hessian
    0.000000    0.000000    0.000000    0.000000    0.000000    0.000000
    0.010000    0.010771    0.011933    0.012315    0.012908    0.018118
    0.023081    0.023931    0.025713    0.027006    0.028239    0.033223
 Highest eigenvalues
    1.517166    1.557549    1.610812    1.825730    1.914456    1.972396


........................................................................
.............................. CYCLE    1 ..............................
........................................................................
   1    -35.1453305 -0.351453E+02  0.296E-04    2.17       0.0  T
   2    -35.1453305 -0.484796E-09  0.221E-04    2.17      96.4  T
   3    -35.1453305 -0.368090E-09  0.173E-04    2.17     123.1  T
     SCC iter.                  ...        0 min,  0.010 sec
     gradient                   ...        0 min,  0.003 sec
 * total energy  :   -34.7295654 Eh     change       -0.2774271E-08 Eh
   gradient norm :     0.0527336 Eh/α   predicted     0.0000000E+00 (-100.00%)
   displ. norm   :     0.2715107 α      lambda       -0.1038161E-01
   maximum displ.:     0.1210694 α      in ANC's #27, #13, #35, ...

........................................................................
.............................. CYCLE    2 ..............................
........................................................................
   1    -35.1662468 -0.351662E+02  0.276E-01    2.38       0.0  T
   2    -35.1664799 -0.233039E-03  0.167E-01    2.45       1.0  T
   3    -35.1665001 -0.202364E-04  0.589E-02    2.53       1.0  T
   4    -35.1665054 -0.524896E-05  0.273E-02    2.56       1.0  T
   5    -35.1665088 -0.338765E-05  0.213E-02    2.56       1.0  T
   6    -35.1665116 -0.282251E-05  0.135E-02    2.56       1.6  T
   7    -35.1665134 -0.177323E-05  0.594E-03    2.56       3.6  T
   8    -35.1665136 -0.247301E-06  0.230E-03    2.56       9.3  T
   9    -35.1665137 -0.762762E-07  0.632E-04    2.56      33.7  T
  10    -35.1665137 -0.161626E-08  0.285E-04    2.56      74.9  T
     SCC iter.                  ...        0 min,  0.030 sec
     gradient                   ...        0 min,  0.003 sec
 * total energy  :   -34.7367755 Eh     change       -0.7210119E-02 Eh
   gradient norm :     0.0420549 Eh/α   predicted    -0.5573607E-02 ( -22.70%)
   displ. norm   :     0.4567912 α      lambda       -0.8851712E-02
   maximum displ.:     0.1923797 α      in ANC's #9, #2, #5, ...

........................................................................
.............................. CYCLE    3 ..............................
........................................................................
   1    -35.1838749 -0.351839E+02  0.291E-01    2.60       0.0  T
   2    -35.1841597 -0.284781E-03  0.177E-01    2.68       1.0  T
   3    -35.1841906 -0.309647E-04  0.649E-02    2.77       1.0  T
   4    -35.1841998 -0.914423E-05  0.331E-02    2.81       1.0  T
   5    -35.1842035 -0.374524E-05  0.254E-02    2.81       1.0  T
   6    -35.1842074 -0.390664E-05  0.147E-02    2.81       1.5  T
   7    -35.1842097 -0.225109E-05  0.693E-03    2.81       3.1  T
   8    -35.1842100 -0.306305E-06  0.317E-03    2.81       6.7  T
   9    -35.1842101 -0.130356E-06  0.120E-03    2.81      17.8  T
  10    -35.1842101 -0.538127E-08  0.846E-04    2.81      25.2  T
  11    -35.1842101 -0.376409E-08  0.548E-04    2.81      38.9  T
     SCC iter.                  ...        0 min,  0.028 sec
     gradient                   ...        0 min,  0.002 sec
 * total energy  :   -34.7427583 Eh     change       -0.5982739E-02 Eh
   gradient norm :     0.0386870 Eh/α   predicted    -0.5350390E-02 ( -10.57%)
   displ. norm   :     0.3319687 α      lambda       -0.4642252E-02
   maximum displ.:     0.1430378 α      in ANC's #9, #27, #2, ...

........................................................................
.............................. CYCLE    4 ..............................
........................................................................
   1    -35.1820528 -0.351821E+02  0.306E-01    2.85       0.0  T
   2    -35.1824644 -0.411633E-03  0.178E-01    2.99       1.0  T
   3    -35.1825114 -0.470301E-04  0.803E-02    3.11       1.0  T
   4    -35.1825276 -0.162179E-04  0.456E-02    3.17       1.0  T
   5    -35.1825369 -0.921608E-05  0.364E-02    3.17       1.0  T
   6    -35.1825480 -0.111749E-04  0.178E-02    3.17       1.2  T
   7    -35.1825516 -0.358045E-05  0.859E-03    3.17       2.5  T
   8    -35.1825522 -0.603923E-06  0.395E-03    3.17       5.4  T
   9    -35.1825524 -0.187688E-06  0.164E-03    3.17      13.0  T
  10    -35.1825524 -0.104285E-07  0.125E-03    3.17      17.0  T
  11    -35.1825524 -0.893428E-08  0.763E-04    3.17      28.0  T
  12    -35.1825524 -0.480472E-08  0.316E-04    3.17      67.4  T
     SCC iter.                  ...        0 min,  0.029 sec
     gradient                   ...        0 min,  0.002 sec
 * total energy  :   -34.7461661 Eh     change       -0.3407866E-02 Eh
   gradient norm :     0.0362778 Eh/α   predicted    -0.2576936E-02 ( -24.38%)
   displ. norm   :     0.3001597 α      lambda       -0.3997234E-02
   maximum displ.:     0.1519524 α      in ANC's #2, #35, #27, ...

........................................................................
.............................. CYCLE    5 ..............................
........................................................................
   1    -35.1792900 -0.351793E+02  0.293E-01    3.19       0.0  T
   2    -35.1796675 -0.377585E-03  0.164E-01    3.33       1.0  T
   3    -35.1797036 -0.360072E-04  0.686E-02    3.47       1.0  T
   4    -35.1797113 -0.771696E-05  0.363E-02    3.52       1.0  T
   5    -35.1797197 -0.842337E-05  0.281E-02    3.53       1.0  T
   6    -35.1797255 -0.579179E-05  0.165E-02    3.53       1.3  T
   7    -35.1797284 -0.291756E-05  0.867E-03    3.53       2.5  T
   8    -35.1797290 -0.639541E-06  0.427E-03    3.53       5.0  T
   9    -35.1797293 -0.220841E-06  0.183E-03    3.53      11.6  T
  10    -35.1797293 -0.147972E-07  0.141E-03    3.53      15.1  T
  11    -35.1797293 -0.121724E-07  0.856E-04    3.53      24.9  T
  12    -35.1797293 -0.685534E-08  0.332E-04    3.53      64.3  T
     SCC iter.                  ...        0 min,  0.035 sec
     gradient                   ...        0 min,  0.002 sec
 * total energy  :   -34.7490980 Eh     change       -0.2931913E-02 Eh
   gradient norm :     0.0244196 Eh/α   predicted    -0.2178699E-02 ( -25.69%)
   displ. norm   :     0.2589056 α      lambda       -0.2976948E-02
   maximum displ.:     0.1012562 α      in ANC's #35, #49, #7, ...

........................................................................
.............................. CYCLE    6 ..............................
........................................................................
   1    -35.1790820 -0.351791E+02  0.273E-01    3.58       0.0  T
   2    -35.1794690 -0.386959E-03  0.150E-01    3.74       1.0  T
   3    -35.1795100 -0.409738E-04  0.716E-02    3.88       1.0  T
   4    -35.1795223 -0.123567E-04  0.393E-02    3.95       1.0  T
   5    -35.1795305 -0.814873E-05  0.320E-02    3.96       1.0  T
   6    -35.1795406 -0.101210E-04  0.179E-02    3.96       1.2  T
   7    -35.1795446 -0.404659E-05  0.932E-03    3.96       2.3  T
   8    -35.1795455 -0.900100E-06  0.364E-03    3.96       5.9  T
   9    -35.1795457 -0.159402E-06  0.133E-03    3.96      16.0  T
  10    -35.1795457 -0.861952E-08  0.870E-04    3.96      24.5  T
  11    -35.1795457 -0.304541E-08  0.536E-04    3.96      39.8  T
     SCC iter.                  ...        0 min,  0.028 sec
     gradient                   ...        0 min,  0.002 sec
 * total energy  :   -34.7509104 Eh     change       -0.1812391E-02 Eh
   gradient norm :     0.0189292 Eh/α   predicted    -0.1588267E-02 ( -12.37%)
   displ. norm   :     0.2664331 α      lambda       -0.2151184E-02
   maximum displ.:     0.1478477 α      in ANC's #2, #7, #5, ...

........................................................................
.............................. CYCLE    7 ..............................
........................................................................
   1    -35.1784159 -0.351784E+02  0.150E-01    3.94       0.0  T
   2    -35.1784669 -0.510769E-04  0.874E-02    3.97       1.0  T
   3    -35.1784749 -0.796529E-05  0.301E-02    4.00       1.0  T
   4    -35.1784762 -0.125865E-05  0.173E-02    4.01       1.2  T
   5    -35.1784785 -0.233183E-05  0.125E-02    4.01       1.7  T
   6    -35.1784797 -0.124560E-05  0.895E-03    4.00       2.4  T
   7    -35.1784804 -0.678478E-06  0.584E-03    4.00       3.6  T
   8    -35.1784809 -0.488337E-06  0.131E-03    4.00      16.3  T
   9    -35.1784809 -0.160877E-07  0.742E-04    4.00      28.7  T
  10    -35.1784809 -0.224280E-08  0.486E-04    4.00      43.8  T
     SCC iter.                  ...        0 min,  0.025 sec
     gradient                   ...        0 min,  0.002 sec
 * total energy  :   -34.7518126 Eh     change       -0.9022049E-03 Eh
   gradient norm :     0.0158944 Eh/α   predicted    -0.1151950E-02 (  27.68%)
   displ. norm   :     0.1619783 α      lambda       -0.1187650E-02
   maximum displ.:     0.0816678 α      in ANC's #3, #7, #9, ...

........................................................................
.............................. CYCLE    8 ..............................
........................................................................
   1    -35.1813485 -0.351813E+02  0.112E-01    4.05       0.0  T
   2    -35.1813809 -0.323302E-04  0.663E-02    4.10       1.0  T
   3    -35.1813873 -0.644055E-05  0.278E-02    4.14       1.0  T
   4    -35.1813895 -0.217828E-05  0.180E-02    4.15       1.2  T
   5    -35.1813910 -0.155125E-05  0.143E-02    4.15       1.5  T
   6    -35.1813930 -0.197444E-05  0.498E-03    4.15       4.3  T
   7    -35.1813932 -0.230477E-06  0.300E-03    4.15       7.1  T
   8    -35.1813933 -0.853103E-07  0.167E-03    4.15      12.8  T
   9    -35.1813933 -0.200047E-07  0.125E-03    4.15      17.1  T
  10    -35.1813934 -0.892567E-08  0.885E-04    4.15      24.1  T
  11    -35.1813934 -0.986985E-08  0.273E-04    4.15      78.0  T
     SCC iter.                  ...        0 min,  0.027 sec
     gradient                   ...        0 min,  0.002 sec
 * total energy  :   -34.7525816 Eh     change       -0.7689203E-03 Eh
   gradient norm :     0.0080606 Eh/α   predicted    -0.6094068E-03 ( -20.75%)
   displ. norm   :     0.1346130 α      lambda       -0.3976398E-03
   maximum displ.:     0.0688473 α      in ANC's #9, #3, #7, ...

........................................................................
.............................. CYCLE    9 ..............................
........................................................................
   1    -35.1837140 -0.351837E+02  0.715E-02    4.16       0.0  T
   2    -35.1837158 -0.172270E-05  0.433E-02    4.16       1.0  T
   3    -35.1837170 -0.119795E-05  0.109E-02    4.16       2.0  T
   4    -35.1837175 -0.517001E-06  0.866E-03    4.16       2.5  T
   5    -35.1837178 -0.364909E-06  0.552E-03    4.16       3.9  T
   6    -35.1837181 -0.238001E-06  0.177E-03    4.16      12.0  T
   7    -35.1837181 -0.153992E-07  0.770E-04    4.16      27.7  T
   8    -35.1837181 -0.129857E-08  0.361E-04    4.16      59.0  T
     SCC iter.                  ...        0 min,  0.020 sec
     gradient                   ...        0 min,  0.002 sec
 * total energy  :   -34.7528413 Eh     change       -0.2596972E-03 Eh
   gradient norm :     0.0037089 Eh/α   predicted    -0.2024248E-03 ( -22.05%)
   displ. norm   :     0.1149291 α      lambda       -0.1386834E-03
   maximum displ.:     0.0809312 α      in ANC's #2, #9, #3, ...

........................................................................
.............................. CYCLE   10 ..............................
........................................................................
   1    -35.1845273 -0.351845E+02  0.392E-02    4.16       0.0  T
   2    -35.1845278 -0.492089E-06  0.231E-02    4.16       1.0  T
   3    -35.1845279 -0.156489E-06  0.351E-03    4.16       6.1  T
   4    -35.1845280 -0.615979E-07  0.260E-03    4.16       8.2  T
   5    -35.1845280 -0.285903E-07  0.187E-03    4.16      11.4  T
   6    -35.1845281 -0.228792E-07  0.104E-03    4.16      20.6  T
   7    -35.1845281 -0.887628E-08  0.528E-04    4.16      40.4  T
   8    -35.1845281 -0.192687E-08  0.269E-04    4.16      79.4  T
     SCC iter.                  ...        0 min,  0.020 sec
     gradient                   ...        0 min,  0.002 sec
 * total energy  :   -34.7529472 Eh     change       -0.1059951E-03 Eh
   gradient norm :     0.0022108 Eh/α   predicted    -0.7025941E-04 ( -33.71%)
   displ. norm   :     0.2291993 α      lambda       -0.1950903E-03
   maximum displ.:     0.1918857 α      in ANC's #2, #9, #5, ...

........................................................................
.............................. CYCLE   11 ..............................
........................................................................
   1    -35.1847319 -0.351847E+02  0.704E-02    4.16       0.0  T
   2    -35.1847327 -0.793145E-06  0.412E-02    4.16       1.0  T
   3    -35.1847328 -0.154406E-06  0.399E-03    4.17       5.3  T
   4    -35.1847329 -0.136289E-06  0.249E-03    4.17       8.6  T
   5    -35.1847330 -0.279922E-07  0.166E-03    4.17      12.8  T
   6    -35.1847330 -0.172943E-07  0.113E-03    4.17      18.8  T
   7    -35.1847330 -0.105993E-07  0.763E-04    4.17      27.9  T
   8    -35.1847330 -0.667070E-08  0.377E-04    4.17      56.5  T
     SCC iter.                  ...        0 min,  0.020 sec
     gradient                   ...        0 min,  0.002 sec
 * total energy  :   -34.7530973 Eh     change       -0.1500189E-03 Eh
   gradient norm :     0.0039139 Eh/α   predicted    -0.1026722E-03 ( -31.56%)
   displ. norm   :     0.3525624 α      lambda       -0.2428379E-03
   maximum displ.:     0.3115644 α      in ANC's #2, #9, #5, ...

........................................................................
.............................. CYCLE   12 ..............................
........................................................................
   1    -35.1838638 -0.351839E+02  0.114E-01    4.16       0.0  T
   2    -35.1838652 -0.137157E-05  0.669E-02    4.16       1.0  T
   3    -35.1838657 -0.534268E-06  0.845E-03    4.16       2.5  T
   4    -35.1838662 -0.464735E-06  0.611E-03    4.16       3.5  T
   5    -35.1838663 -0.175055E-06  0.375E-03    4.16       5.7  T
   6    -35.1838664 -0.897363E-07  0.207E-03    4.16      10.3  T
   7    -35.1838665 -0.264631E-07  0.916E-04    4.16      23.3  T
   8    -35.1838665 -0.844002E-08  0.275E-04    4.16      77.6  T
     SCC iter.                  ...        0 min,  0.020 sec
     gradient                   ...        0 min,  0.002 sec
 * total energy  :   -34.7532777 Eh     change       -0.1804740E-03 Eh
   gradient norm :     0.0064965 Eh/α   predicted    -0.1365139E-03 ( -24.36%)
   displ. norm   :     0.3466016 α      lambda       -0.2177801E-03
   maximum displ.:     0.3124083 α      in ANC's #2, #9, #7, ...

........................................................................
.............................. CYCLE   13 ..............................
........................................................................
   1    -35.1829875 -0.351830E+02  0.123E-01    4.16       0.0  T
   2    -35.1829893 -0.175913E-05  0.731E-02    4.16       1.0  T
   3    -35.1829908 -0.155845E-05  0.118E-02    4.16       1.8  T
   4    -35.1829914 -0.523422E-06  0.955E-03    4.16       2.2  T
   5    -35.1829920 -0.622494E-06  0.416E-03    4.16       5.1  T
   6    -35.1829921 -0.111795E-06  0.191E-03    4.16      11.1  T
   7    -35.1829921 -0.178627E-07  0.675E-04    4.16      31.6  T
   8    -35.1829921 -0.691514E-08  0.252E-04    4.16      84.7  T
     SCC iter.                  ...        0 min,  0.020 sec
     gradient                   ...        0 min,  0.002 sec
 * total energy  :   -34.7534324 Eh     change       -0.1546204E-03 Eh
   gradient norm :     0.0068639 Eh/α   predicted    -0.1219735E-03 ( -21.11%)
   displ. norm   :     0.2307933 α      lambda       -0.1699527E-03
   maximum displ.:     0.1981482 α      in ANC's #2, #7, #13, ...

........................................................................
.............................. CYCLE   14 ..............................
........................................................................
   1    -35.1835245 -0.351835E+02  0.945E-02    4.16       0.0  T
   2    -35.1835258 -0.131384E-05  0.566E-02    4.16       1.0  T
   3    -35.1835272 -0.143343E-05  0.106E-02    4.16       2.0  T
   4    -35.1835276 -0.345573E-06  0.865E-03    4.16       2.5  T
   5    -35.1835281 -0.563618E-06  0.315E-03    4.16       6.8  T
   6    -35.1835282 -0.985719E-07  0.136E-03    4.16      15.7  T
   7    -35.1835282 -0.162986E-07  0.645E-04    4.16      33.1  T
   8    -35.1835282 -0.221687E-08  0.315E-04    4.16      67.7  T
     SCC iter.                  ...        0 min,  0.019 sec
     gradient                   ...        0 min,  0.002 sec
 * total energy  :   -34.7535508 Eh     change       -0.1184894E-03 Eh
   gradient norm :     0.0042022 Eh/α   predicted    -0.8950327E-04 ( -24.46%)
   displ. norm   :     0.1894606 α      lambda       -0.1244349E-03
   maximum displ.:     0.1409530 α      in ANC's #2, #5, #13, ...

........................................................................
.............................. CYCLE   15 ..............................
........................................................................
   1    -35.1841915 -0.351842E+02  0.774E-02    4.16       0.0  T
   2    -35.1841924 -0.859031E-06  0.460E-02    4.16       1.0  T
   3    -35.1841928 -0.370848E-06  0.756E-03    4.16       2.8  T
   4    -35.1841931 -0.369332E-06  0.569E-03    4.16       3.7  T
   5    -35.1841933 -0.157889E-06  0.360E-03    4.16       5.9  T
   6    -35.1841934 -0.842878E-07  0.182E-03    4.16      11.7  T
   7    -35.1841934 -0.285700E-07  0.711E-04    4.16      30.0  T
   8    -35.1841934 -0.361180E-08  0.216E-04    4.16      98.9  T
     SCC iter.                  ...        0 min,  0.019 sec
     gradient                   ...        0 min,  0.002 sec
 * total energy  :   -34.7536467 Eh     change       -0.9585479E-04 Eh
   gradient norm :     0.0034654 Eh/α   predicted    -0.6445394E-04 ( -32.76%)
   displ. norm   :     0.3070190 α      lambda       -0.1565042E-03
   maximum displ.:     0.2226645 α      in ANC's #2, #4, #5, ...

........................................................................
.............................. CYCLE   16 ..............................
........................................................................
   1    -35.1841516 -0.351842E+02  0.121E-01    4.15       0.0  T
   2    -35.1841532 -0.153638E-05  0.716E-02    4.16       1.0  T
   3    -35.1841538 -0.629366E-06  0.892E-03    4.15       2.4  T
   4    -35.1841542 -0.427001E-06  0.675E-03    4.16       3.2  T
   5    -35.1841544 -0.219613E-06  0.453E-03    4.15       4.7  T
   6    -35.1841546 -0.129041E-06  0.218E-03    4.15       9.8  T
   7    -35.1841546 -0.370305E-07  0.958E-04    4.15      22.2  T
   8    -35.1841546 -0.653183E-08  0.298E-04    4.15      71.5  T
     SCC iter.                  ...        0 min,  0.020 sec
     gradient                   ...        0 min,  0.002 sec
 * total energy  :   -34.7537682 Eh     change       -0.1215179E-03 Eh
   gradient norm :     0.0048166 Eh/α   predicted    -0.8563092E-04 ( -29.53%)
   displ. norm   :     0.3667628 α      lambda       -0.1985612E-03
   maximum displ.:     0.2339912 α      in ANC's #2, #4, #5, ...

........................................................................
.............................. CYCLE   17 ..............................
........................................................................
   1    -35.1847091 -0.351847E+02  0.149E-01    4.15       0.0  T
   2    -35.1847109 -0.181257E-05  0.882E-02    4.15       1.0  T
   3    -35.1847111 -0.156852E-06  0.115E-02    4.15       1.9  T
   4    -35.1847123 -0.124093E-05  0.752E-03    4.15       2.8  T
   5    -35.1847126 -0.267891E-06  0.476E-03    4.15       4.5  T
   6    -35.1847127 -0.134387E-06  0.248E-03    4.15       8.6  T
   7    -35.1847128 -0.481879E-07  0.107E-03    4.15      20.0  T
   8    -35.1847128 -0.854872E-08  0.325E-04    4.15      65.6  T
   9    -35.1847128 -0.745558E-09  0.182E-04    4.15     117.4  T
     SCC iter.                  ...        0 min,  0.022 sec
     gradient                   ...        0 min,  0.002 sec
 * total energy  :   -34.7539204 Eh     change       -0.1522134E-03 Eh
   gradient norm :     0.0059157 Eh/α   predicted    -0.1126422E-03 ( -26.00%)
   displ. norm   :     0.5653612 α      lambda       -0.2303710E-03
   maximum displ.:     0.4134240 α      in ANC's #2, #4, #5, ...

........................................................................
.............................. CYCLE   18 ..............................
........................................................................
   1    -35.1815674 -0.351816E+02  0.223E-01    4.15       0.0  T
   2    -35.1815703 -0.292378E-05  0.132E-01    4.15       1.0  T
   3    -35.1815729 -0.257725E-05  0.135E-02    4.15       1.6  T
   4    -35.1815735 -0.547422E-06  0.108E-02    4.15       2.0  T
   5    -35.1815742 -0.777749E-06  0.568E-03    4.15       3.8  T
   6    -35.1815745 -0.225169E-06  0.265E-03    4.15       8.0  T
   7    -35.1815745 -0.493398E-07  0.129E-03    4.15      16.6  T
   8    -35.1815745 -0.114677E-07  0.571E-04    4.15      37.4  T
   9    -35.1815745 -0.157823E-08  0.442E-04    4.15      48.2  T
     SCC iter.                  ...        0 min,  0.022 sec
     gradient                   ...        0 min,  0.002 sec
 * total energy  :   -34.7540442 Eh     change       -0.1237171E-03 Eh
   gradient norm :     0.0071603 Eh/α   predicted    -0.1520051E-03 (  22.87%)
   displ. norm   :     0.2829456 α      lambda       -0.3490482E-03
   maximum displ.:     0.1841690 α      in ANC's #4, #13, #5, ...

........................................................................
.............................. CYCLE   19 ..............................
........................................................................
   1    -35.1849336 -0.351849E+02  0.123E-01    4.15       0.0  T
   2    -35.1849358 -0.218793E-05  0.724E-02    4.15       1.0  T
   3    -35.1849356  0.214960E-06  0.110E-02    4.15       1.9  T
   4    -35.1849370 -0.140682E-05  0.624E-03    4.15       3.4  T
   5    -35.1849372 -0.203934E-06  0.474E-03    4.15       4.5  T
   6    -35.1849374 -0.168725E-06  0.335E-03    4.15       6.4  T
   7    -35.1849375 -0.121222E-06  0.181E-03    4.15      11.8  T
   8    -35.1849376 -0.379749E-07  0.655E-04    4.15      32.5  T
   9    -35.1849376 -0.438078E-08  0.311E-04    4.15      68.5  T
     SCC iter.                  ...        0 min,  0.024 sec
     gradient                   ...        0 min,  0.002 sec
 * total energy  :   -34.7541917 Eh     change       -0.1475464E-03 Eh
   gradient norm :     0.0059956 Eh/α   predicted    -0.1884967E-03 (  27.75%)
   displ. norm   :     0.2241840 α      lambda       -0.9598798E-04
   maximum displ.:     0.1713658 α      in ANC's #2, #4, #5, ...

........................................................................
.............................. CYCLE   20 ..............................
........................................................................
   1    -35.1841607 -0.351842E+02  0.896E-02    4.16       0.0  T
   2    -35.1841616 -0.917538E-06  0.529E-02    4.16       1.0  T
   3    -35.1841618 -0.218942E-06  0.805E-03    4.16       2.6  T
   4    -35.1841624 -0.549940E-06  0.566E-03    4.16       3.8  T
   5    -35.1841625 -0.157509E-06  0.379E-03    4.16       5.6  T
   6    -35.1841626 -0.101219E-06  0.210E-03    4.16      10.1  T
   7    -35.1841627 -0.284768E-07  0.918E-04    4.16      23.2  T
   8    -35.1841627 -0.103306E-07  0.374E-04    4.16      57.0  T
     SCC iter.                  ...        0 min,  0.021 sec
     gradient                   ...        0 min,  0.002 sec
 * total energy  :   -34.7542542 Eh     change       -0.6250736E-04 Eh
   gradient norm :     0.0037968 Eh/α   predicted    -0.5040935E-04 ( -19.35%)
   displ. norm   :     0.0954506 α      lambda       -0.6305130E-04
   maximum displ.:     0.0643150 α      in ANC's #2, #5, #6, ...
 * RMSD in coord.:     0.7817350 α      energy gain  -0.2468881E-01 Eh

generating ANC from model Hessian ...
Using Lindh-Hessian (1995)
 Shifting diagonal of input Hessian by    9.9768081682953483E-003
 Lowest  eigenvalues of input Hessian
    0.000000    0.000000    0.000000    0.000000    0.000000    0.000000
    0.010000    0.010665    0.011445    0.012352    0.013484    0.014992
    0.020287    0.022726    0.023713    0.025499    0.028341    0.029202
 Highest eigenvalues
    1.456064    1.575485    1.647477    1.893815    1.983496    2.048315


........................................................................
.............................. CYCLE   21 ..............................
........................................................................
   1    -35.1852817 -0.351853E+02  0.394E-02    4.16       0.0  T
   2    -35.1852822 -0.546566E-06  0.234E-02    4.16       1.0  T
   3    -35.1852815  0.672700E-06  0.767E-03    4.16       2.8  T
   4    -35.1852825 -0.951947E-06  0.278E-03    4.16       7.7  T
   5    -35.1852825 -0.350863E-07  0.212E-03    4.16      10.1  T
   6    -35.1852825 -0.341211E-07  0.112E-03    4.16      19.1  T
   7    -35.1852826 -0.888996E-08  0.671E-04    4.16      31.8  T
   8    -35.1852826 -0.613660E-08  0.241E-04    4.16      88.6  T
     SCC iter.                  ...        0 min,  0.021 sec
     gradient                   ...        0 min,  0.002 sec
 * total energy  :   -34.7542891 Eh     change       -0.3486387E-04 Eh
   gradient norm :     0.0029446 Eh/α   predicted     0.0000000E+00 (-100.00%)
   displ. norm   :     0.0485848 α      lambda       -0.5085417E-04
   maximum displ.:     0.0329175 α      in ANC's #6, #7, #2, ...

........................................................................
.............................. CYCLE   22 ..............................
........................................................................
   1    -35.1855607 -0.351856E+02  0.277E-02    4.16       0.0  T
   2    -35.1855612 -0.496852E-06  0.170E-02    4.16       1.3  T
   3    -35.1855614 -0.202471E-06  0.539E-03    4.16       4.0  T
   4    -35.1855616 -0.152234E-06  0.400E-03    4.16       5.3  T
   5    -35.1855616 -0.564516E-07  0.302E-03    4.16       7.1  T
   6    -35.1855617 -0.787378E-07  0.750E-04    4.16      28.4  T
   7    -35.1855617 -0.402965E-08  0.336E-04    4.16      63.5  T
     SCC iter.                  ...        0 min,  0.018 sec
     gradient                   ...        0 min,  0.002 sec
 * total energy  :   -34.7543141 Eh     change       -0.2500551E-04 Eh
   gradient norm :     0.0012719 Eh/α   predicted    -0.2553069E-04 (   2.10%)
   displ. norm   :     0.0742063 α      lambda       -0.2615789E-04
   maximum displ.:     0.0465199 α      in ANC's #2, #1, #3, ...

........................................................................
.............................. CYCLE   23 ..............................
........................................................................
   1    -35.1858646 -0.351859E+02  0.368E-02    4.16       0.0  T
   2    -35.1858649 -0.381505E-06  0.219E-02    4.16       1.0  T
   3    -35.1858651 -0.161622E-06  0.499E-03    4.16       4.3  T
   4    -35.1858653 -0.149607E-06  0.373E-03    4.16       5.7  T
   5    -35.1858653 -0.581621E-07  0.260E-03    4.16       8.2  T
   6    -35.1858654 -0.518124E-07  0.863E-04    4.16      24.7  T
   7    -35.1858654 -0.446333E-08  0.393E-04    4.16      54.3  T
     SCC iter.                  ...        0 min,  0.018 sec
     gradient                   ...        0 min,  0.002 sec
 * total energy  :   -34.7543380 Eh     change       -0.2394931E-04 Eh
   gradient norm :     0.0016017 Eh/α   predicted    -0.1311159E-04 ( -45.25%)
   displ. norm   :     0.0783415 α      lambda       -0.1657809E-04
   maximum displ.:     0.0544641 α      in ANC's #2, #1, #6, ...

........................................................................
.............................. CYCLE   24 ..............................
........................................................................
   1    -35.1858550 -0.351859E+02  0.347E-02    4.15       0.0  T
   2    -35.1858553 -0.216266E-06  0.206E-02    4.15       1.0  T
   3    -35.1858553 -0.768599E-07  0.404E-03    4.15       5.3  T
   4    -35.1858555 -0.118737E-06  0.300E-03    4.15       7.1  T
   5    -35.1858555 -0.434512E-07  0.203E-03    4.15      10.5  T
   6    -35.1858555 -0.321398E-07  0.599E-04    4.15      35.6  T
   7    -35.1858555 -0.296676E-08  0.244E-04    4.15      87.5  T
     SCC iter.                  ...        0 min,  0.018 sec
     gradient                   ...        0 min,  0.002 sec
 * total energy  :   -34.7543581 Eh     change       -0.2003181E-04 Eh
   gradient norm :     0.0012859 Eh/α   predicted    -0.8311832E-05 ( -58.51%)
   displ. norm   :     0.1015565 α      lambda       -0.1649314E-04
   maximum displ.:     0.0719101 α      in ANC's #2, #1, #6, ...

........................................................................
.............................. CYCLE   25 ..............................
........................................................................
   1    -35.1857088 -0.351857E+02  0.416E-02    4.15       0.0  T
   2    -35.1857091 -0.285785E-06  0.245E-02    4.15       1.0  T
   3    -35.1857092 -0.989231E-07  0.355E-03    4.15       6.0  T
   4    -35.1857092 -0.698289E-07  0.275E-03    4.15       7.8  T
   5    -35.1857093 -0.353107E-07  0.205E-03    4.15      10.4  T
   6    -35.1857093 -0.329741E-07  0.764E-04    4.15      27.9  T
   7    -35.1857093 -0.541878E-08  0.282E-04    4.15      75.5  T
     SCC iter.                  ...        0 min,  0.018 sec
     gradient                   ...        0 min,  0.002 sec
 * total energy  :   -34.7543773 Eh     change       -0.1921169E-04 Eh
   gradient norm :     0.0007961 Eh/α   predicted    -0.8284421E-05 ( -56.88%)
   displ. norm   :     0.0889523 α      lambda       -0.1097802E-04
   maximum displ.:     0.0653473 α      in ANC's #2, #1, #5, ...

........................................................................
.............................. CYCLE   26 ..............................
........................................................................
   1    -35.1856163 -0.351856E+02  0.370E-02    4.15       0.0  T
   2    -35.1856165 -0.149254E-06  0.218E-02    4.15       1.0  T
   3    -35.1856165 -0.522045E-07  0.246E-03    4.15       8.7  T
   4    -35.1856166 -0.312778E-07  0.193E-03    4.15      11.1  T
   5    -35.1856166 -0.193467E-07  0.144E-03    4.15      14.9  T
   6    -35.1856166 -0.158750E-07  0.517E-04    4.15      41.2  T
   7    -35.1856166 -0.238219E-08  0.225E-04    4.15      94.6  T
     SCC iter.                  ...        0 min,  0.018 sec
     gradient                   ...        0 min,  0.002 sec
 * total energy  :   -34.7543911 Eh     change       -0.1380629E-04 Eh
   gradient norm :     0.0008287 Eh/α   predicted    -0.5509163E-05 ( -60.10%)
   displ. norm   :     0.0873496 α      lambda       -0.1063710E-04
   maximum displ.:     0.0645441 α      in ANC's #2, #5, #1, ...

........................................................................
.............................. CYCLE   27 ..............................
........................................................................
   1    -35.1855409 -0.351855E+02  0.369E-02    4.15       0.0  T
   2    -35.1855410 -0.736024E-07  0.217E-02    4.15       1.0  T
   3    -35.1855410 -0.141966E-07  0.200E-03    4.15      10.7  T
   4    -35.1855411 -0.343113E-07  0.138E-03    4.15      15.4  T
   5    -35.1855411 -0.885218E-08  0.959E-04    4.15      22.2  T
   6    -35.1855411 -0.616401E-08  0.403E-04    4.15      52.9  T
     SCC iter.                  ...        0 min,  0.015 sec
     gradient                   ...        0 min,  0.002 sec
 * total energy  :   -34.7544051 Eh     change       -0.1407445E-04 Eh
   gradient norm :     0.0008984 Eh/α   predicted    -0.5337968E-05 ( -62.07%)
   displ. norm   :     0.1124991 α      lambda       -0.1341438E-04
   maximum displ.:     0.0830056 α      in ANC's #2, #5, #1, ...

........................................................................
.............................. CYCLE   28 ..............................
........................................................................
   1    -35.1855016 -0.351855E+02  0.484E-02    4.15       0.0  T
   2    -35.1855017 -0.856365E-07  0.285E-02    4.15       1.0  T
   3    -35.1855017 -0.917161E-08  0.237E-03    4.15       9.0  T
   4    -35.1855018 -0.581710E-07  0.152E-03    4.15      14.0  T
   5    -35.1855018 -0.120905E-07  0.854E-04    4.15      25.0  T
   6    -35.1855018 -0.464528E-08  0.446E-04    4.15      47.8  T
     SCC iter.                  ...        0 min,  0.016 sec
     gradient                   ...        0 min,  0.002 sec
 * total energy  :   -34.7544226 Eh     change       -0.1747062E-04 Eh
   gradient norm :     0.0009071 Eh/α   predicted    -0.6746541E-05 ( -61.38%)
   displ. norm   :     0.1315695 α      lambda       -0.1413313E-04
   maximum displ.:     0.0984778 α      in ANC's #2, #5, #3, ...

........................................................................
.............................. CYCLE   29 ..............................
........................................................................
   1    -35.1854718 -0.351855E+02  0.577E-02    4.15       0.0  T
   2    -35.1854720 -0.132099E-06  0.339E-02    4.15       1.0  T
   3    -35.1854720 -0.481910E-07  0.238E-03    4.15       9.0  T
   4    -35.1854721 -0.373167E-07  0.175E-03    4.15      12.2  T
   5    -35.1854721 -0.174300E-07  0.111E-03    4.15      19.3  T
   6    -35.1854721 -0.909533E-08  0.481E-04    4.15      44.3  T
   7    -35.1854721 -0.990539E-09  0.240E-04    4.15      88.8  T
     SCC iter.                  ...        0 min,  0.019 sec
     gradient                   ...        0 min,  0.002 sec
 * total energy  :   -34.7544406 Eh     change       -0.1797531E-04 Eh
   gradient norm :     0.0008850 Eh/α   predicted    -0.7123441E-05 ( -60.37%)
   displ. norm   :     0.1221681 α      lambda       -0.1168543E-04
   maximum displ.:     0.0938853 α      in ANC's #2, #5, #3, ...

........................................................................
.............................. CYCLE   30 ..............................
........................................................................
   1    -35.1855531 -0.351856E+02  0.546E-02    4.15       0.0  T
   2    -35.1855532 -0.120225E-06  0.321E-02    4.15       1.0  T
   3    -35.1855533 -0.613095E-07  0.173E-03    4.15      12.3  T
   4    -35.1855533 -0.830055E-08  0.126E-03    4.15      17.0  T
   5    -35.1855533 -0.576370E-08  0.863E-04    4.15      24.7  T
   6    -35.1855533 -0.645579E-08  0.421E-04    4.15      50.6  T
     SCC iter.                  ...        0 min,  0.016 sec
     gradient                   ...        0 min,  0.002 sec
 * total energy  :   -34.7544556 Eh     change       -0.1498456E-04 Eh
   gradient norm :     0.0006957 Eh/α   predicted    -0.5886132E-05 ( -60.72%)
   displ. norm   :     0.0958975 α      lambda       -0.8618839E-05
   maximum displ.:     0.0770351 α      in ANC's #2, #5, #4, ...

........................................................................
.............................. CYCLE   31 ..............................
........................................................................
   1    -35.1857460 -0.351857E+02  0.433E-02    4.15       0.0  T
   2    -35.1857461 -0.764957E-07  0.255E-02    4.15       1.0  T
   3    -35.1857461 -0.478808E-07  0.174E-03    4.15      12.2  T
   4    -35.1857462 -0.851281E-08  0.138E-03    4.15      15.5  T
   5    -35.1857462 -0.981808E-08  0.919E-04    4.15      23.2  T
   6    -35.1857462 -0.690175E-08  0.374E-04    4.15      57.1  T
     SCC iter.                  ...        0 min,  0.015 sec
     gradient                   ...        0 min,  0.002 sec
 * total energy  :   -34.7544670 Eh     change       -0.1139296E-04 Eh
   gradient norm :     0.0004502 Eh/α   predicted    -0.4330830E-05 ( -61.99%)
   displ. norm   :     0.0706644 α      lambda       -0.6245172E-05
   maximum displ.:     0.0584586 α      in ANC's #2, #5, #1, ...

........................................................................
.............................. CYCLE   32 ..............................
........................................................................
   1    -35.1858185 -0.351858E+02  0.320E-02    4.15       0.0  T
   2    -35.1858186 -0.392828E-07  0.188E-02    4.15       1.1  T
   3    -35.1858186 -0.195853E-07  0.161E-03    4.15      13.3  T
   4    -35.1858186 -0.175890E-07  0.121E-03    4.15      17.6  T
   5    -35.1858186 -0.862373E-08  0.649E-04    4.15      32.8  T
   6    -35.1858186 -0.308247E-08  0.267E-04    4.15      79.8  T
     SCC iter.                  ...        0 min,  0.015 sec
     gradient                   ...        0 min,  0.002 sec
 * total energy  :   -34.7544756 Eh     change       -0.8658800E-05 Eh
   gradient norm :     0.0003518 Eh/α   predicted    -0.3131230E-05 ( -63.84%)
   displ. norm   :     0.0616585 α      lambda       -0.5692416E-05
   maximum displ.:     0.0502475 α      in ANC's #2, #5, #1, ...

........................................................................
.............................. CYCLE   33 ..............................
........................................................................
   1    -35.1859131 -0.351859E+02  0.267E-02    4.15       0.0  T
   2    -35.1859131 -0.327274E-07  0.157E-02    4.15       1.4  T
   3    -35.1859131 -0.263819E-07  0.145E-03    4.15      14.7  T
   4    -35.1859132 -0.724898E-08  0.118E-03    4.15      18.1  T
   5    -35.1859132 -0.946803E-08  0.592E-04    4.15      36.0  T
   6    -35.1859132 -0.271256E-08  0.208E-04    4.15     102.5  T
     SCC iter.                  ...        0 min,  0.015 sec
     gradient                   ...        0 min,  0.002 sec
 * total energy  :   -34.7544837 Eh     change       -0.8021225E-05 Eh
   gradient norm :     0.0003767 Eh/α   predicted    -0.2852114E-05 ( -64.44%)
   displ. norm   :     0.0680397 α      lambda       -0.6179379E-05
   maximum displ.:     0.0526952 α      in ANC's #2, #1, #5, ...

........................................................................
.............................. CYCLE   34 ..............................
........................................................................
   1    -35.1858866 -0.351859E+02  0.283E-02    4.15       0.0  T
   2    -35.1858867 -0.441620E-07  0.167E-02    4.15       1.3  T
   3    -35.1858867 -0.340018E-07  0.165E-03    4.15      12.9  T
   4    -35.1858867 -0.932182E-08  0.135E-03    4.15      15.8  T
   5    -35.1858867 -0.114684E-07  0.759E-04    4.15      28.1  T
   6    -35.1858867 -0.467688E-08  0.231E-04    4.15      92.2  T
     SCC iter.                  ...        0 min,  0.015 sec
     gradient                   ...        0 min,  0.002 sec
 * total energy  :   -34.7544923 Eh     change       -0.8652129E-05 Eh
   gradient norm :     0.0003728 Eh/α   predicted    -0.3096543E-05 ( -64.21%)
   displ. norm   :     0.0867644 α      lambda       -0.7255251E-05
   maximum displ.:     0.0643457 α      in ANC's #2, #1, #3, ...

........................................................................
.............................. CYCLE   35 ..............................
........................................................................
   1    -35.1858875 -0.351859E+02  0.348E-02    4.15       0.0  T
   2    -35.1858876 -0.694109E-07  0.205E-02    4.15       1.0  T
   3    -35.1858876 -0.595411E-07  0.196E-03    4.15      10.9  T
   4    -35.1858876 -0.976567E-08  0.152E-03    4.15      14.1  T
   5    -35.1858876 -0.124688E-07  0.947E-04    4.15      22.5  T
   6    -35.1858876 -0.851932E-08  0.255E-04    4.15      83.8  T
     SCC iter.                  ...        0 min,  0.015 sec
     gradient                   ...        0 min,  0.002 sec
 * total energy  :   -34.7545022 Eh     change       -0.9880962E-05 Eh
   gradient norm :     0.0003639 Eh/α   predicted    -0.3643622E-05 ( -63.12%)
   displ. norm   :     0.1044929 α      lambda       -0.7526743E-05
   maximum displ.:     0.0764672 α      in ANC's #2, #1, #3, ...

........................................................................
.............................. CYCLE   36 ..............................
........................................................................
   1    -35.1858198 -0.351858E+02  0.415E-02    4.15       0.0  T
   2    -35.1858199 -0.903127E-07  0.245E-02    4.15       1.0  T
   3    -35.1858200 -0.806147E-07  0.227E-03    4.15       9.4  T
   4    -35.1858200 -0.127060E-07  0.175E-03    4.15      12.2  T
   5    -35.1858200 -0.196948E-07  0.991E-04    4.15      21.5  T
   6    -35.1858200 -0.908665E-08  0.333E-04    4.15      64.0  T
     SCC iter.                  ...        0 min,  0.015 sec
     gradient                   ...        0 min,  0.002 sec
 * total energy  :   -34.7545120 Eh     change       -0.9781562E-05 Eh
   gradient norm :     0.0004132 Eh/α   predicted    -0.3784575E-05 ( -61.31%)
   displ. norm   :     0.1046921 α      lambda       -0.6086112E-05
   maximum displ.:     0.0775090 α      in ANC's #2, #1, #3, ...

........................................................................
.............................. CYCLE   37 ..............................
........................................................................
   1    -35.1857977 -0.351858E+02  0.416E-02    4.15       0.0  T
   2    -35.1857978 -0.770386E-07  0.245E-02    4.15       1.0  T
   3    -35.1857979 -0.725463E-07  0.207E-03    4.15      10.3  T
   4    -35.1857979 -0.135039E-07  0.144E-03    4.15      14.8  T
   5    -35.1857979 -0.141777E-07  0.762E-04    4.15      28.0  T
   6    -35.1857979 -0.485498E-08  0.298E-04    4.15      71.6  T
     SCC iter.                  ...        0 min,  0.015 sec
     gradient                   ...        0 min,  0.002 sec
 * total energy  :   -34.7545197 Eh     change       -0.7683482E-05 Eh
   gradient norm :     0.0004114 Eh/α   predicted    -0.3060660E-05 ( -60.17%)
   displ. norm   :     0.0835182 α      lambda       -0.3967913E-05
   maximum displ.:     0.0647758 α      in ANC's #2, #1, #3, ...

........................................................................
.............................. CYCLE   38 ..............................
........................................................................
   1    -35.1858240 -0.351858E+02  0.337E-02    4.15       0.0  T
   2    -35.1858240 -0.477335E-07  0.199E-02    4.15       1.1  T
   3    -35.1858241 -0.408266E-07  0.159E-03    4.15      13.4  T
   4    -35.1858241 -0.635789E-08  0.124E-03    4.15      17.2  T
   5    -35.1858241 -0.121179E-07  0.544E-04    4.15      39.2  T
   6    -35.1858241 -0.158419E-08  0.280E-04    4.15      76.2  T
     SCC iter.                  ...        0 min,  0.016 sec
     gradient                   ...        0 min,  0.002 sec
 * total energy  :   -34.7545247 Eh     change       -0.5076044E-05 Eh
   gradient norm :     0.0003851 Eh/α   predicted    -0.1990682E-05 ( -60.78%)
   displ. norm   :     0.0566685 α      lambda       -0.2577275E-05
   maximum displ.:     0.0469905 α      in ANC's #2, #5, #3, ...

........................................................................
.............................. CYCLE   39 ..............................
........................................................................
   1    -35.1858663 -0.351859E+02  0.237E-02    4.15       0.0  T
   2    -35.1858663 -0.234137E-07  0.139E-02    4.15       1.5  T
   3    -35.1858664 -0.159184E-07  0.100E-03    4.15      21.3  T
   4    -35.1858664 -0.243877E-08  0.800E-04    4.15      26.6  T
   5    -35.1858664 -0.429264E-08  0.485E-04    4.15      44.0  T
     SCC iter.                  ...        0 min,  0.014 sec
     gradient                   ...        0 min,  0.002 sec
 * total energy  :   -34.7545282 Eh     change       -0.3441932E-05 Eh
   gradient norm :     0.0002923 Eh/α   predicted    -0.1292779E-05 ( -62.44%)
   displ. norm   :     0.0444502 α      lambda       -0.2222913E-05
   maximum displ.:     0.0389320 α      in ANC's #2, #5, #3, ...

   *** GEOMETRY OPTIMIZATION CONVERGED AFTER 39 ITERATIONS ***

------------------------------------------------------------------------
 total energy gain   :        -0.0249628 Eh      -15.6644 kcal/mol
 total RMSD          :         0.9711567 a0        0.5139 Å
 total power (kW/mol):        -1.6805062 (step)  -69.9826 (real)
------------------------------------------------------------------------

 ANCopt (total)                0 d,  0 h,  0 min,  0.937 sec
 optimizer setup                ...        0 min,  0.000 sec (  0.014%)
 model hessian                  ...        0 min,  0.010 sec (  1.031%)
 ANC generation                 ...        0 min,  0.002 sec (  0.266%)
 coordinate transformation      ...        0 min,  0.001 sec (  0.090%)
 single point calculation       ...        0 min,  0.910 sec ( 97.207%)
 optimization log               ...        0 min,  0.003 sec (  0.333%)
 hessian update                 ...        0 min,  0.001 sec (  0.120%)
 rational function              ...        0 min,  0.005 sec (  0.554%)

================
 final structure:
================
22
 xtb: 6.5.1 (fef0646)
N            1.05365118957764        0.30794472683515       -0.10689227841451
C            2.50832528642446        0.31406122191131       -0.02316094154717
C            3.15819717628612        1.60476921890967       -0.55217960246650
C            4.65266110636336        1.51812521737370       -0.44058263706619
C            5.39690650470286        0.88902048192082       -1.43125088221014
C            6.76938071636819        0.76563183794411       -1.32071801398397
C            7.40828000371699        1.27673053828618       -0.20250272725257
Cl           9.12485116795586        1.12939587117389       -0.05594498323397
C            6.68613772817116        1.90623721430425        0.79801406123748
C            5.31349817325587        2.02021515282838        0.67312529472965
Cl          -0.00921057159970       -2.28740476788161        0.81315360353997
H            0.48062815783950       -1.09169086638603        0.39983827452043
H            0.74639350230650        0.43123706569394       -1.06633641441031
H            0.65384794161908        1.05136431703990        0.45636919320105
H            2.87874143322873       -0.54066189500326       -0.59304412735921
H            2.78434949403450        0.16748452631947        1.02309206662074
H            2.78894248834389        2.45601562606435        0.02463934323360
H            2.87074280203475        1.74563122462769       -1.59721244926184
H            4.89902066691099        0.49290096633051       -2.30412472106041
H            7.34141056519602        0.27781330564698       -2.09412118815408
H            7.19374929450726        2.30222922620074        1.66328927003296
H            4.75119517275855        2.51224978985539        1.45316985930611

 Bond Distances (Angstroems)
 ---------------------------
N1-C2=1.4571         N1-H13=1.0150        N1-H14=1.0148        C2-N1=1.4571         C2-C3=1.5389         C2-H15=1.0920        
C2-H16=1.0919        C3-C2=1.5389         C3-C4=1.5011         C3-H17=1.0926        C3-H18=1.0930        C4-C3=1.5011         
C4-C5=1.3896         C4-C10=1.3889        C5-C4=1.3896         C5-C6=1.3824         C5-H19=1.0801        C6-C5=1.3824         
C6-C7=1.3856         C6-H20=1.0786        C7-C6=1.3856         C7-Cl8=1.7291        C7-C9=1.3852         Cl8-C7=1.7291        
C9-C7=1.3852         C9-C10=1.3830        C9-H21=1.0785        C10-C4=1.3889        C10-C9=1.3830        C10-H22=1.0802       
Cl11-H12=1.3567      H12-Cl11=1.3567      H13-N1=1.0150        H14-N1=1.0148        H15-C2=1.0920        H16-C2=1.0919        
H17-C3=1.0926        H18-C3=1.0930        H19-C5=1.0801        H20-C6=1.0786        H21-C9=1.0785        H22-C10=1.0802       
 C  H  Rav=1.0859 sigma=0.0065  Rmin=1.0785  Rmax=1.0930     8
 C  C  Rav=1.4194 sigma=0.0589  Rmin=1.3824  Rmax=1.5389     8
 N  H  Rav=1.0149 sigma=0.0001  Rmin=1.0148  Rmax=1.0150     2
 N  C  Rav=1.4571 sigma=0.0000  Rmin=1.4571  Rmax=1.4571     1
 Cl H  Rav=1.3567 sigma=0.0000  Rmin=1.3567  Rmax=1.3567     1
 Cl C  Rav=1.7291 sigma=0.0000  Rmin=1.7291  Rmax=1.7291     1

 selected bond angles (degree)
 --------------------
H13-N1-C2=110.86               H14-N1-C2=111.00               H14-N1-H13=108.45              C3-C2-N1=113.91                
H15-C2-N1=107.78               H15-C2-C3=109.50               H16-C2-N1=107.87               H16-C2-C3=109.59               
H16-C2-H15=108.01              C4-C3-C2=110.27                H17-C3-C2=109.22               H17-C3-C4=110.01               
H18-C3-C2=109.01               H18-C3-C4=109.90               H18-C3-H17=108.39              C5-C4-C3=120.42                
C10-C4-C3=120.83               C10-C4-C5=118.72               C6-C5-C4=121.01                H19-C5-C4=119.69               
H19-C5-C6=119.31               C7-C6-C5=119.30                H20-C6-C5=120.64               H20-C6-C7=120.06               
Cl8-C7-C6=119.65               C9-C7-C6=120.67                C9-C7-Cl8=119.67               C10-C9-C7=119.32               
H21-C9-C7=120.06               H21-C9-C10=120.62              C9-C10-C4=120.99               H22-C10-C4=119.74              
H22-C10-C9=119.27              

 selected dihedral angles (degree)
 ---------------------------------
C3-C2-N1-H13= 58.74           C3-C2-N1-H14=298.14           H15-C2-N1-H13=297.02          H15-C2-N1-H14=176.43          
H16-C2-N1-H13=180.62          H16-C2-N1-H14= 60.03          C4-C3-C2-N1=180.57            C4-C3-C2-H15=301.33           
C4-C3-C2-H16= 59.63           H17-C3-C2-N1= 59.56           H17-C3-C2-H15=180.32          H17-C3-C2-H16=298.63          
H18-C3-C2-N1=301.30           H18-C3-C2-H15= 62.06          H18-C3-C2-H16=180.36          C5-C4-C3-C2= 84.05            
C5-C4-C3-H17=204.58           C5-C4-C3-H18=323.85           C10-C4-C3-C2=266.37           C10-C4-C3-H17= 26.91          
C10-C4-C3-H18=146.18          C6-C5-C4-C3=182.03            C6-C5-C4-C10=359.75           H19-C5-C4-C3=  2.29           
H19-C5-C4-C10=180.01          C7-C6-C5-C4=  0.10            C7-C6-C5-H19=179.84           H20-C6-C5-C4=180.11           
H20-C6-C5-H19=359.86          Cl8-C7-C6-C5=180.09           Cl8-C7-C6-H20=  0.07          C9-C7-C6-C5=  0.00            
C9-C7-C6-H20=179.97           C10-C9-C7-C6=  0.09           C10-C9-C7-Cl8=179.99          H21-C9-C7-C6=180.12           
H21-C9-C7-Cl8=  0.00          C9-C10-C4-C3=178.03           C9-C10-C4-C5=  0.32           H22-C10-C4-C3=357.72          
H22-C10-C4-C5=180.00          C4-C10-C9-C7=359.75           C4-C10-C9-H21=179.72          H22-C10-C9-C7=180.07          
H22-C10-C9-H21=  0.04         

 CMA Distance (Angstroems)
 ---------------------------
R(CMA):  6.6642
           -------------------------------------------------
          |                Final Singlepoint                |
           -------------------------------------------------

          ...................................................
          :                      SETUP                      :
          :.................................................:
          :  # basis functions                  67          :
          :  # atomic orbitals                  65          :
          :  # shells                           35          :
          :  # electrons                        62          :
          :  max. iterations                   250          :
          :  Hamiltonian                  GFN2-xTB          :
          :  restarted?                      false          :
          :  GBSA solvation                  false          :
          :  PC potential                    false          :
          :  electronic temp.          300.0000000     K    :
          :  accuracy                    1.0000000          :
          :  -> integral cutoff          0.2500000E+02      :
          :  -> integral neglect         0.1000000E-07      :
          :  -> SCF convergence          0.1000000E-05 Eh   :
          :  -> wf. convergence          0.1000000E-03 e    :
          :  Broyden damping             0.4000000          :
          ...................................................

 iter      E             dE          RMSdq      gap      omega  full diag
   1    -35.1858664 -0.351859E+02  0.199E-04    4.15       0.0  T
   2    -35.1858664 -0.876170E-10  0.149E-04    4.15     143.2  T
   3    -35.1858664 -0.505622E-10  0.998E-05    4.15     213.6  T

   *** convergence criteria satisfied after 3 iterations ***

         #    Occupation            Energy/Eh            Energy/eV
      -------------------------------------------------------------
         1        2.0000           -1.0584576             -28.8021
       ...           ...                  ...                  ...
        25        2.0000           -0.4461815             -12.1412
        26        2.0000           -0.4267720             -11.6131
        27        2.0000           -0.4207570             -11.4494
        28        2.0000           -0.4109962             -11.1838
        29        2.0000           -0.3994807             -10.8704
        30        2.0000           -0.3994165             -10.8687
        31        2.0000           -0.3978097             -10.8250 (HOMO)
        32                         -0.2451435              -6.6707 (LUMO)
        33                         -0.2445707              -6.6551
        34                         -0.1396809              -3.8009
        35                         -0.1195869              -3.2541
        36                         -0.0616173              -1.6767
       ...                                ...                  ...
        65                          0.6319610              17.1965
      -------------------------------------------------------------
                  HL-Gap            0.1526661 Eh            4.1543 eV
             Fermi-level           -0.3214766 Eh           -8.7478 eV

 SCC (total)                   0 d,  0 h,  0 min,  0.012 sec
 SCC setup                      ...        0 min,  0.000 sec (  0.671%)
 Dispersion                     ...        0 min,  0.000 sec (  1.634%)
 classical contributions        ...        0 min,  0.000 sec (  0.231%)
 integral evaluation            ...        0 min,  0.001 sec (  6.472%)
 iterations                     ...        0 min,  0.008 sec ( 70.562%)
 molecular gradient             ...        0 min,  0.002 sec ( 15.485%)
 printout                       ...        0 min,  0.000 sec (  3.832%)

         :::::::::::::::::::::::::::::::::::::::::::::::::::::
         ::                     SUMMARY                     ::
         :::::::::::::::::::::::::::::::::::::::::::::::::::::
         :: total energy             -34.754528170260 Eh    ::
         :: gradient norm              0.000292712500 Eh/a0 ::
         :: HOMO-LUMO gap              4.154256934812 eV    ::
         ::.................................................::
         :: SCC energy               -35.185866359886 Eh    ::
         :: -> isotropic ES            0.031690452173 Eh    ::
         :: -> anisotropic ES         -0.005573735887 Eh    ::
         :: -> anisotropic XC          0.014258377091 Eh    ::
         :: -> dispersion             -0.018489433535 Eh    ::
         :: repulsion energy           0.431375092595 Eh    ::
         :: add. restraining           0.000000000000 Eh    ::
         :: total charge               0.000000000000 e     ::
         :::::::::::::::::::::::::::::::::::::::::::::::::::::

           -------------------------------------------------
          |                Property Printout                |
           -------------------------------------------------

    * Orbital Energies and Occupations

         #    Occupation            Energy/Eh            Energy/eV
      -------------------------------------------------------------
         1        2.0000           -1.0584576             -28.8021
       ...           ...                  ...                  ...
        19        2.0000           -0.4962717             -13.5042
        20        2.0000           -0.4958365             -13.4924
        21        2.0000           -0.4853701             -13.2076
        22        2.0000           -0.4635049             -12.6126
        23        2.0000           -0.4548293             -12.3765
        24        2.0000           -0.4505540             -12.2602
        25        2.0000           -0.4461815             -12.1412
        26        2.0000           -0.4267720             -11.6131
        27        2.0000           -0.4207570             -11.4494
        28        2.0000           -0.4109962             -11.1838
        29        2.0000           -0.3994807             -10.8704
        30        2.0000           -0.3994165             -10.8687
        31        2.0000           -0.3978097             -10.8250 (HOMO)
        32                         -0.2451435              -6.6707 (LUMO)
        33                         -0.2445707              -6.6551
        34                         -0.1396809              -3.8009
        35                         -0.1195869              -3.2541
        36                         -0.0616173              -1.6767
        37                          0.0127440               0.3468
        38                          0.0153519               0.4177
        39                          0.0179323               0.4880
        40                          0.0180472               0.4911
        41                          0.0310027               0.8436
        42                          0.0606798               1.6512
       ...                                ...                  ...
        65                          0.6319610              17.1965
      -------------------------------------------------------------
                  HL-Gap            0.1526661 Eh            4.1543 eV
             Fermi-level           -0.3214766 Eh           -8.7478 eV

     #   Z          covCN         q      C6AA      α(0)
     1   7 N        2.666    -0.309    27.962     7.854
     2   6 C        3.734     0.004    20.607     6.479
     3   6 C        3.806    -0.073    21.895     6.661
     4   6 C        2.970     0.009    27.811     8.650
     5   6 C        2.928    -0.036    28.907     8.817
     6   6 C        2.953    -0.039    28.972     8.828
     7   6 C        2.890     0.098    25.831     8.333
     8  17 Cl       0.966    -0.179   104.789    15.661
     9   6 C        2.953    -0.039    28.976     8.829
    10   6 C        2.927    -0.036    28.904     8.817
    11  17 Cl       0.839    -0.466   114.451    16.366
    12   1 H        0.876     0.331     0.625     1.238
    13   1 H        0.860     0.167     1.292     1.780
    14   1 H        0.860     0.166     1.294     1.782
    15   1 H        0.924     0.056     2.241     2.341
    16   1 H        0.924     0.055     2.256     2.349
    17   1 H        0.924     0.042     2.420     2.433
    18   1 H        0.924     0.043     2.409     2.427
    19   1 H        0.926     0.046     2.372     2.408
    20   1 H        0.926     0.058     2.224     2.332
    21   1 H        0.926     0.058     2.225     2.333
    22   1 H        0.926     0.045     2.377     2.411

 Mol. C6AA /au·bohr⁶  :       6802.305988
 Mol. C8AA /au·bohr⁸  :     188059.206724
 Mol. α(0) /au        :        129.128782


Wiberg/Mayer (AO) data.
largest (>0.10) Wiberg bond orders for each atom

 ---------------------------------------------------------------------------
     #   Z sym  total        # sym  WBO       # sym  WBO       # sym  WBO
 ---------------------------------------------------------------------------
     1   7 N    3.222 --     2 C    1.013    14 H    0.958    13 H    0.958
                            12 H    0.181
     2   6 C    3.973 --     1 N    1.013     3 C    0.979    16 H    0.974
                            15 H    0.974
     3   6 C    3.996 --     4 C    1.012     2 C    0.979    17 H    0.974
                            18 H    0.971
     4   6 C    3.989 --    10 C    1.410     5 C    1.407     3 C    1.012
     5   6 C    3.991 --     6 C    1.448     4 C    1.407    19 H    0.968
                             9 C    0.108
     6   6 C    3.989 --     5 C    1.448     7 C    1.401    20 H    0.967
                            10 C    0.108
     7   6 C    3.915 --     9 C    1.404     6 C    1.401     8 Cl   0.973
     8  17 Cl   1.106 --     7 C    0.973
     9   6 C    3.989 --    10 C    1.445     7 C    1.404    21 H    0.967
                             5 C    0.108
    10   6 C    3.991 --     9 C    1.445     4 C    1.410    22 H    0.968
                             6 C    0.108
    11  17 Cl   0.784 --    12 H    0.706
    12   1 H    0.890 --    11 Cl   0.706     1 N    0.181
    13   1 H    0.972 --     1 N    0.958
    14   1 H    0.972 --     1 N    0.958
    15   1 H    0.997 --     2 C    0.974
    16   1 H    0.997 --     2 C    0.974
    17   1 H    0.998 --     3 C    0.974
    18   1 H    0.998 --     3 C    0.971
    19   1 H    0.998 --     5 C    0.968
    20   1 H    0.996 --     6 C    0.967
    21   1 H    0.996 --     9 C    0.967
    22   1 H    0.998 --    10 C    0.968
 ---------------------------------------------------------------------------

Topologies differ in total number of bonds
Writing topology from bond orders to xtbtopo.mol

molecular dipole:
                 x           y           z       tot (Debye)
 q only:       -0.189       1.716      -0.662
   full:       -0.104       1.645      -0.637       4.493
molecular quadrupole (traceless):
                xx          xy          yy          xz          yz          zz
 q only:      -20.170      -2.369       4.381      -0.921       5.188      15.789
  q+dip:      -16.541      -1.451       2.491      -0.973       6.398      14.050
   full:      -16.318      -0.923       3.781      -1.099       4.459      12.537

           -------------------------------------------------
          |                Geometry Summary                 |
           -------------------------------------------------

      molecular mass/u    :      192.0858138
   center of mass at/Å    :        4.5749907       0.5038838      -0.0381350
  moments of inertia/u·Å² :        0.2676205E+03   0.2351362E+04   0.2439790E+04
rotational constants/cm⁻¹ :        0.6299082E-01   0.7169306E-02   0.6909460E-02

 * 19 selected distances

     #   Z          #   Z                                           value/Å
     1   7 N        2   6 C                                       1.4570949
     2   6 C        3   6 C                                       1.5388703
     4   6 C        5   6 C                                       1.3896395
     5   6 C        6   6 C                                       1.3824356
     6   6 C        7   6 C                                       1.3855757
     7   6 C        8  17 Cl                                      1.7291049 (max)
     7   6 C        9   6 C                                       1.3852084
     4   6 C       10   6 C                                       1.3889369
     9   6 C       10   6 C                                       1.3830141
     1   7 N       13   1 H                                       1.0149589
     1   7 N       14   1 H                                       1.0147803 (min)
     2   6 C       15   1 H                                       1.0920288
     2   6 C       16   1 H                                       1.0919339
     3   6 C       17   1 H                                       1.0925611
     3   6 C       18   1 H                                       1.0929620
     5   6 C       19   1 H                                       1.0801435
     6   6 C       20   1 H                                       1.0785814
     9   6 C       21   1 H                                       1.0785085
    10   6 C       22   1 H                                       1.0801632

 * 5 distinct bonds (by element types)

   Z      Z             #   av. dist./Å        max./Å        min./Å
   1 H    6 C           8     1.0858603     1.0929620     1.0785085
   6 C    6 C           7     1.4076686     1.5388703     1.3824356
   1 H    7 N           2     1.0148696     1.0149589     1.0147803
   6 C    7 N           1     1.4570949     1.4570949     1.4570949
   6 C   17 Cl          1     1.7291049     1.7291049     1.7291049


optimized geometry written to: xtbopt.xyz


           -------------------------------------------------
          | TOTAL ENERGY              -34.754528170260 Eh   |
          | GRADIENT NORM               0.000292712500 Eh/α |
          | HOMO-LUMO GAP               4.154256934812 eV   |
           -------------------------------------------------

------------------------------------------------------------------------
 * finished run on 2023/01/23 at 14:06:50.756     
------------------------------------------------------------------------
 total:
 * wall-time:     0 d,  0 h,  0 min,  1.018 sec
 *  cpu-time:     0 d,  0 h,  1 min, 28.990 sec
 * ratio c/w:    87.388 speedup
 SCF:
 * wall-time:     0 d,  0 h,  0 min,  0.051 sec
 *  cpu-time:     0 d,  0 h,  0 min,  7.155 sec
 * ratio c/w:   140.828 speedup
 ANC optimizer:
 * wall-time:     0 d,  0 h,  0 min,  0.949 sec
 *  cpu-time:     0 d,  0 h,  1 min, 19.532 sec
 * ratio c/w:    83.789 speedup

