 Entering Gaussian System
 *********************************************
 Gaussian 98:
 frequency output generated by the xtb code
 *********************************************
                         Standard orientation:
 --------------------------------------------------------------------
  Center     Atomic     Atomic              Coordinates (Angstroms)
  Number     Number      Type              X           Y           Z
 --------------------------------------------------------------------
    1          7             0       -1.089790   -2.110584    0.305738
    2          6             0       -0.052083   -1.924251   -0.746797
    3          6             0        0.800635   -0.726215   -0.474972
    4          6             0        1.924487   -0.827630    0.332935
    5          6             0        2.684824    0.287277    0.622660
    6          6             0        2.326489    1.520488    0.113489
    7          6             0        1.204816    1.636653   -0.682937
    8          6             0        0.444739    0.521096   -0.972713
    9         17             0       -2.878394    0.869556    0.524579
   10          1             0       -1.711015   -2.912341    0.111191
   11          1             0       -1.678375   -1.260111    0.385428
   12          1             0       -0.653638   -2.263075    1.227816
   13          1             0       -0.528616   -1.820170   -1.727875
   14          1             0        0.578372   -2.818715   -0.816297
   15          1             0        2.195683   -1.789490    0.738236
   16          1             0        3.557876    0.195994    1.250347
   17          1             0        2.919944    2.391716    0.341036
   18          1             0        0.919640    2.600644   -1.076818
   19          1             0       -0.438312    0.610860   -1.584460
 --------------------------------------------------------------------
     1 basis functions        1 primitive gaussians
     1 alpha electrons        1 beta electrons

 Harmonic frequencies (cm**-1), IR intensities (km*mol⁻¹),
 Raman scattering activities (A**4/amu), Raman depolarization ratios,
 reduced masses (AMU), force constants (mDyne/A) and normal coordinates:
                      1                      2                      3
                        a                      a                      a 
 Frequencies --  -139.7107               -23.8762                58.4638
 Red. masses --    21.5308                11.9597                23.1544
 Frc consts  --     0.0000                 0.0000                 0.0000
 IR Inten    --   133.6028                 1.7708                13.2763
 Raman Activ --     0.0000                 0.0000                 0.0000
 Depolar     --     0.0000                 0.0000                 0.0000
 Atom AN      X      Y      Z        X      Y      Z        X      Y      Z
   1   7     0.34  -0.50  -0.01    -0.10   0.08  -0.03    -0.03   0.10   0.06
   2   6     0.15  -0.11  -0.11     0.11  -0.10   0.14    -0.05   0.15   0.04
   3   6     0.04  -0.04  -0.02     0.07  -0.07   0.10     0.04   0.09   0.04
   4   6     0.02  -0.01   0.01     0.30  -0.07  -0.22     0.05  -0.01   0.02
   5   6    -0.01   0.00   0.02     0.27  -0.03  -0.28     0.20  -0.09  -0.06
   6   6    -0.03  -0.01   0.01     0.01   0.00  -0.01     0.35  -0.07  -0.11
   7   6    -0.02  -0.03  -0.00    -0.22   0.00   0.32     0.33   0.03  -0.07
   8   6     0.00  -0.05  -0.01    -0.19  -0.03   0.37     0.18   0.12   0.01
   9  17    -0.37   0.55   0.08    -0.15   0.13  -0.23    -0.68  -0.22   0.05
  10   1     0.13  -0.17  -0.01    -0.02   0.02  -0.01     0.03  -0.01   0.03
  11   1     0.06  -0.19   0.03    -0.02   0.03  -0.08    -0.06  -0.01  -0.00
  12   1     0.13  -0.14  -0.02    -0.08   0.06   0.02    -0.00   0.07   0.02
  13   1     0.00  -0.00  -0.01     0.08  -0.07   0.01    -0.02   0.06   0.02
  14   1     0.08  -0.00  -0.10     0.03  -0.03   0.11    -0.02   0.04  -0.01
  15   1     0.01  -0.00   0.00     0.15  -0.03  -0.13    -0.02  -0.01   0.02
  16   1    -0.01   0.01   0.01     0.13  -0.01  -0.15     0.06  -0.05  -0.02
  17   1    -0.01   0.00   0.00    -0.00   0.01  -0.02     0.14  -0.04  -0.05
  18   1    -0.01  -0.01  -0.00    -0.12   0.01   0.15     0.13   0.01  -0.03
  19   1     0.00  -0.02  -0.01    -0.11  -0.01   0.19     0.05   0.06   0.01
                      4                      5                      6
                        a                      a                      a 
 Frequencies --   116.8334               140.7449               282.7394
 Red. masses --    14.2911                10.3058                 5.9369
 Frc consts  --     0.0000                 0.0000                 0.0000
 IR Inten    --     9.7190                20.4998                 3.9279
 Raman Activ --     0.0000                 0.0000                 0.0000
 Depolar     --     0.0000                 0.0000                 0.0000
 Atom AN      X      Y      Z        X      Y      Z        X      Y      Z
   1   7    -0.14   0.31  -0.27     0.30   0.28   0.38     0.18   0.21  -0.15
   2   6     0.22  -0.18   0.01    -0.09   0.02  -0.05     0.23  -0.13  -0.10
   3   6     0.24  -0.17  -0.09     0.08  -0.05  -0.29    -0.06   0.04  -0.08
   4   6     0.17  -0.02   0.02     0.06  -0.14  -0.28    -0.24  -0.00   0.15
   5   6    -0.02   0.10   0.10    -0.06  -0.13   0.02    -0.11  -0.08   0.08
   6   6    -0.15   0.05   0.08    -0.17  -0.05   0.30     0.10  -0.14  -0.18
   7   6    -0.03  -0.12  -0.12    -0.04  -0.00   0.12    -0.05  -0.01   0.04
   8   6     0.17  -0.23  -0.20     0.08  -0.01  -0.18    -0.18   0.06   0.09
   9  17    -0.26   0.13   0.32    -0.11   0.00  -0.10     0.03   0.01   0.08
  10   1    -0.11   0.14  -0.10     0.11   0.02   0.25     0.24  -0.16   0.20
  11   1     0.04   0.14  -0.10     0.03   0.05   0.04    -0.15  -0.05  -0.31
  12   1    -0.12   0.04  -0.04     0.17   0.21   0.08     0.05   0.47   0.03
  13   1     0.16  -0.12  -0.05    -0.12   0.00   0.03     0.12  -0.15  -0.07
  14   1     0.04  -0.08   0.14    -0.06  -0.01  -0.05     0.11  -0.01   0.10
  15   1     0.07   0.01   0.02     0.03  -0.06  -0.13    -0.11  -0.00   0.07
  16   1    -0.02   0.06   0.06    -0.03  -0.05   0.02    -0.04  -0.03   0.04
  17   1    -0.10   0.04   0.06    -0.10  -0.01   0.18     0.09  -0.06  -0.12
  18   1    -0.03  -0.05  -0.05    -0.02   0.01   0.07    -0.00   0.01   0.03
  19   1     0.07  -0.10  -0.10     0.04   0.01  -0.08    -0.07   0.03   0.06
                      7                      8                      9
                        a                      a                      a 
 Frequencies --   304.1026               344.2680               361.8912
 Red. masses --     7.6183                 6.2428                 8.7157
 Frc consts  --     0.0000                 0.0000                 0.0000
 IR Inten    --     6.0224                 0.4102                 0.5296
 Raman Activ --     0.0000                 0.0000                 0.0000
 Depolar     --     0.0000                 0.0000                 0.0000
 Atom AN      X      Y      Z        X      Y      Z        X      Y      Z
   1   7    -0.30  -0.29  -0.01     0.11   0.03   0.08     0.01  -0.00   0.01
   2   6     0.01  -0.09   0.27     0.26  -0.22   0.19     0.02  -0.02   0.02
   3   6    -0.13   0.11  -0.01    -0.16   0.16  -0.18    -0.02   0.01  -0.02
   4   6     0.03   0.06  -0.24    -0.20   0.03  -0.17    -0.26   0.08   0.32
   5   6     0.05   0.00  -0.07    -0.09  -0.14   0.03     0.23  -0.09  -0.34
   6   6    -0.05   0.10   0.25     0.09  -0.09   0.02     0.02  -0.01  -0.00
   7   6     0.15   0.09  -0.05     0.10   0.08   0.03    -0.23   0.08   0.36
   8   6     0.13   0.12  -0.22    -0.14   0.23  -0.05     0.22  -0.04  -0.34
   9  17     0.08   0.01   0.04    -0.05  -0.02  -0.02    -0.01  -0.00  -0.01
  10   1     0.13  -0.26   0.05    -0.18   0.21  -0.13    -0.02   0.02  -0.01
  11   1    -0.27  -0.20  -0.19     0.24   0.14   0.16     0.03   0.01   0.02
  12   1    -0.16   0.18   0.08    -0.02  -0.29  -0.00     0.00  -0.03  -0.00
  13   1     0.06  -0.16   0.03     0.13  -0.29   0.00     0.01  -0.02   0.00
  14   1     0.08   0.02   0.20     0.18  -0.00   0.25     0.01  -0.00   0.02
  15   1     0.03   0.00  -0.12    -0.10  -0.02  -0.08    -0.16   0.05   0.21
  16   1     0.03  -0.04  -0.04    -0.05  -0.08   0.03     0.14  -0.05  -0.21
  17   1    -0.06   0.03   0.16     0.05  -0.05   0.02     0.01  -0.01  -0.00
  18   1     0.08   0.03  -0.03     0.08   0.05   0.03    -0.15   0.05   0.22
  19   1     0.07   0.06  -0.11    -0.05   0.12   0.00     0.16  -0.04  -0.23
                     10                     11                     12
                        a                      a                      a 
 Frequencies --   472.8465               542.5941               590.4902
 Red. masses --    10.1469                 9.7948                11.1309
 Frc consts  --     0.0000                 0.0000                 0.0000
 IR Inten    --     5.6634                 3.7397                 0.1498
 Raman Activ --     0.0000                 0.0000                 0.0000
 Depolar     --     0.0000                 0.0000                 0.0000
 Atom AN      X      Y      Z        X      Y      Z        X      Y      Z
   1   7     0.19   0.12  -0.11     0.11   0.08  -0.05     0.01  -0.01   0.01
   2   6     0.18   0.24   0.04    -0.11  -0.35  -0.24     0.04  -0.03   0.04
   3   6    -0.16   0.24   0.44    -0.33  -0.18   0.19     0.10  -0.09   0.09
   4   6     0.02  -0.14   0.09    -0.18   0.14   0.01    -0.00  -0.43   0.09
   5   6     0.13  -0.20  -0.13     0.02   0.11  -0.23    -0.40  -0.10  -0.25
   6   6    -0.33  -0.21   0.16     0.06   0.31   0.26    -0.11   0.10  -0.11
   7   6    -0.03  -0.07  -0.26     0.25  -0.08  -0.04    -0.02   0.48  -0.11
   8   6    -0.14   0.01  -0.07     0.06  -0.07   0.21     0.36   0.11   0.22
   9  17    -0.01  -0.00   0.00    -0.01  -0.00   0.00     0.00  -0.00  -0.00
  10   1     0.05   0.04  -0.05    -0.08   0.07   0.15    -0.00   0.00  -0.00
  11   1     0.05   0.03  -0.01     0.12   0.09  -0.03     0.01   0.00  -0.00
  12   1     0.05   0.01  -0.03     0.12   0.08  -0.05    -0.01  -0.01   0.01
  13   1     0.09   0.09  -0.00    -0.02  -0.09  -0.07     0.03  -0.04  -0.00
  14   1     0.09   0.10  -0.00    -0.02  -0.09  -0.06     0.02  -0.00   0.05
  15   1     0.02  -0.08  -0.09     0.07   0.05  -0.04     0.05  -0.09   0.05
  16   1     0.12  -0.03  -0.16     0.07  -0.06  -0.16    -0.10   0.03  -0.08
  17   1    -0.12  -0.05   0.07     0.02   0.09   0.07     0.07  -0.06   0.06
  18   1     0.11  -0.02  -0.16     0.09  -0.07  -0.15    -0.05   0.11  -0.06
  19   1     0.01  -0.07  -0.10     0.08   0.04  -0.02     0.09  -0.03   0.06
                     13                     14                     15
                        a                      a                      a 
 Frequencies --   659.5168               750.5955               796.3379
 Red. masses --     9.0161                 4.7405                 9.3950
 Frc consts  --     0.0000                 0.0000                 0.0000
 IR Inten    --     8.9748                25.8130                10.6254
 Raman Activ --     0.0000                 0.0000                 0.0000
 Depolar     --     0.0000                 0.0000                 0.0000
 Atom AN      X      Y      Z        X      Y      Z        X      Y      Z
   1   7    -0.05  -0.02   0.03    -0.09  -0.03   0.08    -0.13  -0.10   0.04
   2   6     0.01   0.03   0.03     0.01  -0.02  -0.03    -0.14  -0.35  -0.23
   3   6     0.28  -0.05  -0.37     0.23  -0.04  -0.30    -0.02   0.07   0.10
   4   6    -0.14   0.04   0.25    -0.07   0.04   0.21     0.21   0.02   0.10
   5   6     0.23  -0.08  -0.28     0.03   0.01   0.12     0.34  -0.02   0.22
   6   6    -0.18   0.02   0.22    -0.15  -0.03   0.14    -0.14  -0.24  -0.09
   7   6     0.18  -0.03  -0.31    -0.07   0.09   0.03    -0.08   0.36  -0.15
   8   6    -0.16   0.07   0.20    -0.13   0.10   0.16    -0.00   0.22  -0.09
   9  17     0.00  -0.00   0.00     0.00   0.00  -0.00    -0.00  -0.00   0.00
  10   1     0.02  -0.02  -0.04     0.00  -0.02  -0.02    -0.19   0.03   0.25
  11   1    -0.04  -0.03   0.01    -0.05  -0.03   0.03     0.11   0.07  -0.04
  12   1    -0.04  -0.03   0.02    -0.04  -0.03   0.03     0.09   0.08  -0.03
  13   1    -0.02  -0.01   0.02    -0.04  -0.03   0.01    -0.03  -0.11  -0.07
  14   1    -0.02  -0.01   0.01    -0.04  -0.04   0.00    -0.04  -0.09  -0.06
  15   1    -0.16   0.05   0.24     0.18  -0.06  -0.26     0.00  -0.00   0.05
  16   1    -0.01   0.01   0.02     0.24  -0.04  -0.29     0.08   0.12   0.10
  17   1    -0.16   0.04   0.22     0.22  -0.09  -0.35    -0.08  -0.05   0.04
  18   1    -0.01   0.02   0.02     0.22  -0.02  -0.29     0.03   0.16   0.06
  19   1    -0.18   0.05   0.25     0.16  -0.05  -0.25    -0.03   0.03   0.01
                     16                     17                     18
                        a                      a                      a 
 Frequencies --   836.5648               867.3814               897.7333
 Red. masses --     2.4857                 3.4386                 3.4548
 Frc consts  --     0.0000                 0.0000                 0.0000
 IR Inten    --    34.1721                 0.8821                 1.0503
 Raman Activ --     0.0000                 0.0000                 0.0000
 Depolar     --     0.0000                 0.0000                 0.0000
 Atom AN      X      Y      Z        X      Y      Z        X      Y      Z
   1   7    -0.09   0.07  -0.05    -0.00  -0.00   0.00    -0.01   0.00   0.02
   2   6    -0.20   0.18  -0.16    -0.02   0.01  -0.01     0.00   0.02  -0.01
   3   6     0.00   0.00  -0.01     0.00   0.01   0.01     0.02  -0.01  -0.04
   4   6     0.06  -0.03   0.02    -0.15   0.04   0.23    -0.16   0.06   0.22
   5   6     0.05   0.02   0.00    -0.09   0.03   0.13     0.08  -0.02  -0.10
   6   6    -0.02   0.01   0.00     0.02   0.01  -0.01     0.15  -0.05  -0.22
   7   6    -0.02  -0.04   0.03     0.07  -0.03  -0.10     0.03  -0.01  -0.05
   8   6     0.03  -0.05   0.04     0.17  -0.05  -0.26    -0.11   0.03   0.19
   9  17     0.01   0.00  -0.01    -0.00  -0.00  -0.00     0.00   0.00  -0.00
  10   1     0.11  -0.11   0.09    -0.01   0.00   0.01     0.02  -0.01  -0.02
  11   1    -0.19  -0.13   0.42     0.00  -0.00   0.01    -0.02  -0.01   0.01
  12   1     0.41  -0.09  -0.23     0.04  -0.01  -0.02     0.00  -0.01   0.00
  13   1     0.22  -0.30  -0.21     0.02  -0.01  -0.02     0.00  -0.01  -0.00
  14   1     0.03   0.07   0.42    -0.01   0.00   0.03    -0.00   0.00   0.02
  15   1     0.02   0.01   0.05     0.29  -0.10  -0.41     0.30  -0.10  -0.43
  16   1    -0.00   0.03   0.03     0.20  -0.06  -0.28    -0.17   0.05   0.24
  17   1    -0.01   0.01  -0.03    -0.01   0.01   0.02    -0.24   0.07   0.34
  18   1     0.00  -0.03  -0.04    -0.17   0.05   0.25    -0.11   0.03   0.16
  19   1     0.01  -0.05   0.01    -0.30   0.09   0.45     0.24  -0.07  -0.35
                     19                     20                     21
                        a                      a                      a 
 Frequencies --   926.1289               937.1259               963.7032
 Red. masses --     4.1056                 3.4093                 9.5030
 Frc consts  --     0.0000                 0.0000                 0.0000
 IR Inten    --     0.3110                 0.0174                36.4582
 Raman Activ --     0.0000                 0.0000                 0.0000
 Depolar     --     0.0000                 0.0000                 0.0000
 Atom AN      X      Y      Z        X      Y      Z        X      Y      Z
   1   7    -0.01  -0.00  -0.00    -0.01   0.01   0.01     0.32   0.18  -0.24
   2   6     0.02  -0.02   0.01     0.02  -0.01  -0.01    -0.29  -0.13   0.30
   3   6    -0.01   0.01   0.03     0.04  -0.01  -0.05    -0.12  -0.16  -0.02
   4   6    -0.09   0.02   0.14    -0.01  -0.01   0.04    -0.10   0.25  -0.12
   5   6     0.18  -0.06  -0.29    -0.07   0.02   0.08     0.17  -0.02   0.12
   6   6    -0.06   0.03   0.11     0.18  -0.04  -0.25    -0.13  -0.20  -0.05
   7   6    -0.14   0.04   0.21    -0.17   0.05   0.26    -0.07   0.20  -0.07
   8   6     0.11  -0.03  -0.20     0.02  -0.00  -0.07     0.23  -0.04   0.14
   9  17    -0.00  -0.00   0.00     0.00   0.00   0.00     0.00   0.00  -0.00
  10   1    -0.01   0.00   0.01     0.01  -0.00  -0.01     0.26  -0.03  -0.31
  11   1     0.01   0.00  -0.00    -0.01  -0.01   0.01    -0.09  -0.07   0.01
  12   1    -0.00   0.01   0.00    -0.01  -0.00   0.01    -0.02  -0.09  -0.03
  13   1     0.01   0.03   0.01    -0.00   0.01   0.00    -0.11  -0.03   0.09
  14   1    -0.01  -0.01  -0.02    -0.01  -0.01  -0.01    -0.14  -0.08   0.06
  15   1     0.15  -0.05  -0.21    -0.03   0.01   0.05    -0.04   0.06  -0.05
  16   1    -0.34   0.10   0.48     0.14  -0.04  -0.21     0.04  -0.03   0.04
  17   1     0.14  -0.04  -0.19    -0.32   0.10   0.47    -0.03  -0.06  -0.01
  18   1     0.22  -0.06  -0.31     0.35  -0.09  -0.48    -0.01   0.04  -0.04
  19   1    -0.17   0.05   0.24    -0.10   0.03   0.14     0.04  -0.02   0.07
                     22                     23                     24
                        a                      a                      a 
 Frequencies --   999.0802              1019.7132              1033.4606
 Red. masses --    10.6518                 5.4321                 5.3900
 Frc consts  --     0.0000                 0.0000                 0.0000
 IR Inten    --     6.2076                 6.6300                19.4273
 Raman Activ --     0.0000                 0.0000                 0.0000
 Depolar     --     0.0000                 0.0000                 0.0000
 Atom AN      X      Y      Z        X      Y      Z        X      Y      Z
   1   7    -0.22  -0.03   0.26    -0.16   0.23   0.12    -0.08  -0.13  -0.28
   2   6     0.33   0.15  -0.27     0.35  -0.28  -0.08     0.04   0.00   0.42
   3   6    -0.07  -0.07   0.00    -0.03  -0.05   0.13     0.15  -0.01  -0.06
   4   6    -0.19   0.36  -0.21    -0.00  -0.01  -0.03    -0.11   0.16  -0.10
   5   6     0.05  -0.05   0.04    -0.04   0.00  -0.03    -0.10  -0.02  -0.05
   6   6    -0.16  -0.23  -0.06     0.06   0.02   0.04    -0.01  -0.09   0.00
   7   6    -0.06   0.04  -0.04     0.02   0.09  -0.04    -0.01   0.00   0.01
   8   6     0.37  -0.14   0.25    -0.15   0.09  -0.13     0.03   0.00   0.05
   9  17     0.00  -0.00  -0.00     0.01   0.00  -0.01    -0.00  -0.00  -0.00
  10   1    -0.07   0.00   0.07     0.21  -0.10  -0.13    -0.19  -0.01   0.37
  11   1    -0.05  -0.00   0.05    -0.30  -0.14   0.31     0.15   0.07   0.05
  12   1    -0.07  -0.00   0.07     0.07  -0.13  -0.05     0.37   0.12  -0.23
  13   1     0.10   0.06  -0.07     0.11   0.28   0.01     0.20   0.35   0.06
  14   1     0.13   0.07  -0.05    -0.27  -0.31  -0.16    -0.13  -0.08  -0.05
  15   1    -0.10   0.08  -0.08    -0.00   0.01   0.02    -0.04   0.04  -0.05
  16   1    -0.01  -0.10   0.02    -0.02  -0.04  -0.00    -0.03  -0.09  -0.03
  17   1    -0.05  -0.06  -0.01     0.06  -0.03   0.06     0.03  -0.06   0.03
  18   1    -0.09  -0.04  -0.06     0.04   0.08   0.08     0.02   0.00  -0.01
  19   1     0.07  -0.08   0.11    -0.05   0.05  -0.03     0.03  -0.02  -0.02
                     25                     26                     27
                        a                      a                      a 
 Frequencies --  1092.0500              1129.8119              1182.5122
 Red. masses --     6.5739                 3.7349                 1.2983
 Frc consts  --     0.0000                 0.0000                 0.0000
 IR Inten    --     0.3581                 0.8816                 0.0482
 Raman Activ --     0.0000                 0.0000                 0.0000
 Depolar     --     0.0000                 0.0000                 0.0000
 Atom AN      X      Y      Z        X      Y      Z        X      Y      Z
   1   7     0.01   0.01   0.01     0.03  -0.02   0.02     0.00  -0.00   0.00
   2   6    -0.03  -0.03  -0.02    -0.07   0.07  -0.06     0.00   0.01   0.00
   3   6     0.00   0.00   0.01     0.07  -0.08   0.07     0.04  -0.05   0.04
   4   6     0.08   0.14   0.03     0.05   0.23  -0.01    -0.04  -0.06  -0.01
   5   6    -0.26   0.16  -0.21    -0.13  -0.01  -0.08    -0.00  -0.04   0.01
   6   6    -0.24  -0.36  -0.09     0.12  -0.09   0.10    -0.05   0.05  -0.04
   7   6     0.19  -0.24   0.18    -0.04   0.18  -0.07     0.02   0.02   0.01
   8   6     0.09   0.11   0.03    -0.20  -0.12  -0.11     0.04   0.07   0.01
   9  17     0.00  -0.00  -0.00    -0.00   0.00   0.00     0.00   0.00  -0.00
  10   1     0.02  -0.00  -0.02    -0.02   0.02  -0.02    -0.00   0.00  -0.00
  11   1    -0.01  -0.01  -0.01     0.02   0.01  -0.05     0.00   0.00  -0.01
  12   1    -0.01  -0.01   0.01    -0.05   0.01   0.03    -0.01   0.00   0.00
  13   1    -0.01  -0.02  -0.00    -0.03  -0.08  -0.02     0.01   0.01  -0.00
  14   1     0.00  -0.00   0.01     0.05   0.06   0.04    -0.00  -0.00   0.01
  15   1     0.26   0.17   0.14     0.32   0.23   0.17     0.14   0.06   0.08
  16   1    -0.03   0.34  -0.09    -0.08  -0.28   0.00    -0.08  -0.47   0.05
  17   1    -0.06  -0.12  -0.02     0.29  -0.26   0.25    -0.44   0.40  -0.39
  18   1     0.31   0.07   0.21     0.16   0.15   0.09     0.34   0.19   0.21
  19   1     0.07   0.29  -0.01    -0.12  -0.42  -0.00    -0.01  -0.12   0.02
                     28                     29                     30
                        a                      a                      a 
 Frequencies --  1200.8764              1211.8933              1237.5113
 Red. masses --     1.7579                 3.0943                 8.1742
 Frc consts  --     0.0000                 0.0000                 0.0000
 IR Inten    --     0.8078                11.2913                 4.0926
 Raman Activ --     0.0000                 0.0000                 0.0000
 Depolar     --     0.0000                 0.0000                 0.0000
 Atom AN      X      Y      Z        X      Y      Z        X      Y      Z
   1   7    -0.01   0.01  -0.01     0.19  -0.15   0.16     0.04  -0.00  -0.00
   2   6    -0.01  -0.04  -0.00    -0.15   0.15  -0.12    -0.13  -0.21  -0.11
   3   6     0.05   0.08   0.02     0.05  -0.11   0.06     0.33   0.51   0.16
   4   6    -0.09  -0.00  -0.06    -0.03   0.01  -0.04     0.08   0.16   0.02
   5   6    -0.03   0.10  -0.05     0.01   0.05  -0.00    -0.18  -0.00  -0.13
   6   6     0.01   0.03   0.00     0.01   0.00   0.01    -0.05  -0.09  -0.02
   7   6     0.10  -0.00   0.07    -0.03   0.02  -0.03     0.03  -0.21   0.06
   8   6     0.01  -0.12   0.04    -0.04   0.01  -0.02     0.12   0.14   0.05
   9  17    -0.00   0.00  -0.00    -0.00  -0.00   0.00     0.00  -0.00   0.00
  10   1    -0.00  -0.00   0.01    -0.05   0.07  -0.09    -0.00   0.01  -0.02
  11   1    -0.01  -0.01   0.02     0.11   0.01  -0.22    -0.03  -0.03  -0.02
  12   1     0.00  -0.00  -0.00    -0.18   0.03   0.16    -0.04  -0.02   0.02
  13   1    -0.05  -0.05   0.01     0.49   0.17  -0.27    -0.12  -0.18  -0.00
  14   1    -0.00  -0.01  -0.04    -0.39  -0.24   0.32    -0.22  -0.19   0.02
  15   1    -0.40  -0.20  -0.24    -0.12  -0.05  -0.06    -0.12  -0.02  -0.08
  16   1     0.05   0.39  -0.05    -0.00   0.01   0.00    -0.10  -0.27  -0.01
  17   1    -0.01   0.02  -0.01     0.02  -0.02   0.02    -0.03  -0.02  -0.01
  18   1     0.36   0.18   0.22     0.07   0.05   0.03    -0.20  -0.17  -0.10
  19   1    -0.08  -0.54   0.05     0.01   0.10  -0.03     0.01  -0.15   0.04
                     31                     32                     33
                        a                      a                      a 
 Frequencies --  1290.4884              1315.8406              1344.6000
 Red. masses --     3.3543                 4.3130                11.6180
 Frc consts  --     0.0000                 0.0000                 0.0000
 IR Inten    --     0.1908                25.8398                 1.6493
 Raman Activ --     0.0000                 0.0000                 0.0000
 Depolar     --     0.0000                 0.0000                 0.0000
 Atom AN      X      Y      Z        X      Y      Z        X      Y      Z
   1   7    -0.02   0.03  -0.01     0.05  -0.11  -0.17    -0.00   0.00  -0.02
   2   6    -0.03  -0.00  -0.02     0.33   0.32  -0.05    -0.00   0.03  -0.02
   3   6     0.13  -0.09   0.11    -0.11  -0.09   0.02     0.25  -0.25   0.23
   4   6     0.17   0.11   0.10    -0.01   0.00  -0.01    -0.30  -0.17  -0.17
   5   6    -0.02   0.08  -0.03     0.03  -0.02   0.02     0.08   0.42  -0.03
   6   6    -0.14   0.13  -0.13    -0.01   0.02  -0.01     0.23  -0.21   0.20
   7   6    -0.08  -0.01  -0.05    -0.00   0.04  -0.01    -0.33  -0.18  -0.19
   8   6    -0.04  -0.22   0.01    -0.01  -0.06   0.00     0.08   0.38  -0.03
   9  17    -0.00  -0.00  -0.00    -0.00  -0.00  -0.00     0.00   0.00  -0.00
  10   1    -0.01   0.00   0.01    -0.15   0.05   0.14    -0.01   0.00   0.01
  11   1    -0.03  -0.01   0.00     0.02  -0.04   0.12    -0.01  -0.01   0.02
  12   1     0.04  -0.03  -0.03    -0.06   0.12   0.02    -0.00   0.01  -0.00
  13   1    -0.09  -0.08   0.03    -0.44  -0.27   0.21    -0.09  -0.09   0.03
  14   1     0.13   0.09  -0.03    -0.42  -0.29   0.22     0.08   0.06  -0.00
  15   1    -0.35  -0.18  -0.20     0.02   0.01   0.02    -0.04  -0.03  -0.02
  16   1    -0.07  -0.37   0.03     0.01   0.03   0.01    -0.00  -0.02   0.00
  17   1     0.17  -0.15   0.15     0.00   0.00   0.01     0.03  -0.02   0.02
  18   1     0.27   0.16   0.16     0.03   0.03   0.03     0.02   0.01   0.01
  19   1     0.07   0.45  -0.04     0.01   0.07   0.00     0.01   0.04   0.00
                     34                     35                     36
                        a                      a                      a 
 Frequencies --  1370.4722              1406.6768              1444.8852
 Red. masses --     2.5068                 1.6354                 8.5675
 Frc consts  --     0.0000                 0.0000                 0.0000
 IR Inten    --   131.0639                71.1663                 3.1036
 Raman Activ --     0.0000                 0.0000                 0.0000
 Depolar     --     0.0000                 0.0000                 0.0000
 Atom AN      X      Y      Z        X      Y      Z        X      Y      Z
   1   7    -0.28   0.02   0.14    -0.04  -0.07  -0.17    -0.02  -0.05   0.03
   2   6     0.07   0.10  -0.02    -0.07  -0.05  -0.02     0.05  -0.04   0.05
   3   6    -0.00  -0.02   0.03     0.02  -0.02   0.01    -0.25   0.24  -0.22
   4   6    -0.01   0.01  -0.01     0.03   0.02   0.02    -0.06  -0.28   0.02
   5   6    -0.00  -0.00  -0.00    -0.02   0.01  -0.02     0.23   0.19   0.12
   6   6     0.01  -0.01   0.01    -0.01  -0.02  -0.00    -0.22   0.21  -0.19
   7   6    -0.01   0.01  -0.01     0.02   0.01   0.01    -0.13  -0.30  -0.03
   8   6    -0.00  -0.01  -0.00    -0.01   0.01  -0.01     0.22   0.12   0.13
   9  17    -0.01  -0.00   0.00    -0.01  -0.00  -0.01    -0.00  -0.00  -0.00
  10   1     0.43  -0.32  -0.14     0.25  -0.22   0.02    -0.01   0.04  -0.13
  11   1     0.43   0.36  -0.31     0.37   0.20   0.60     0.03   0.01   0.03
  12   1     0.25  -0.17  -0.15    -0.36   0.35   0.21     0.07   0.14  -0.01
  13   1    -0.09  -0.12   0.03     0.07   0.05  -0.04     0.06   0.05  -0.01
  14   1    -0.13  -0.09   0.03     0.05   0.04  -0.01    -0.08  -0.07  -0.03
  15   1    -0.01   0.00   0.00    -0.03  -0.02  -0.03     0.15   0.01   0.10
  16   1    -0.00   0.01   0.00    -0.01  -0.03  -0.01     0.03  -0.18   0.06
  17   1     0.00   0.00  -0.00    -0.00  -0.01  -0.00     0.21  -0.19   0.19
  18   1     0.01   0.01  -0.00    -0.01  -0.00   0.00     0.17   0.02   0.11
  19   1     0.00   0.01  -0.00    -0.00   0.01  -0.00     0.04  -0.15   0.06
                     37                     38                     39
                        a                      a                      a 
 Frequencies --  1447.1800              1481.5091              1483.8751
 Red. masses --     2.2365                 7.4660                 3.6494
 Frc consts  --     0.0000                 0.0000                 0.0000
 IR Inten    --    72.3955                 1.3677                11.6140
 Raman Activ --     0.0000                 0.0000                 0.0000
 Depolar     --     0.0000                 0.0000                 0.0000
 Atom AN      X      Y      Z        X      Y      Z        X      Y      Z
   1   7     0.08   0.18  -0.16    -0.00  -0.00   0.00     0.02   0.03  -0.02
   2   6    -0.02  -0.01  -0.02    -0.05  -0.00   0.06     0.03   0.22   0.21
   3   6    -0.04   0.07  -0.05     0.21   0.29   0.09    -0.12  -0.18  -0.04
   4   6    -0.03  -0.07  -0.01    -0.23   0.02  -0.17     0.10  -0.01   0.07
   5   6     0.05   0.02   0.03     0.01  -0.32   0.08     0.00   0.16  -0.03
   6   6    -0.04   0.06  -0.04     0.15   0.17   0.07    -0.07  -0.09  -0.03
   7   6    -0.04  -0.07  -0.02    -0.28  -0.03  -0.18     0.13   0.03   0.09
   8   6     0.05   0.01   0.03     0.05  -0.27   0.09    -0.03   0.11  -0.04
   9  17     0.00   0.00   0.00     0.00   0.00  -0.00     0.00   0.00  -0.00
  10   1     0.12  -0.23   0.60     0.00  -0.00   0.01    -0.01  -0.01   0.09
  11   1    -0.01   0.01  -0.06    -0.00  -0.00   0.05    -0.04  -0.02   0.02
  12   1    -0.35  -0.56   0.07    -0.03   0.02   0.02    -0.06  -0.07   0.02
  13   1     0.01   0.09  -0.00     0.12  -0.26  -0.10     0.29  -0.48  -0.18
  14   1    -0.01  -0.00   0.09    -0.10  -0.05  -0.29    -0.16  -0.06  -0.57
  15   1     0.05   0.01   0.03     0.17   0.13   0.09    -0.06  -0.05  -0.03
  16   1     0.01  -0.02   0.01     0.06   0.23  -0.01    -0.03  -0.10   0.01
  17   1     0.05  -0.04   0.04     0.03   0.07   0.01    -0.02  -0.03  -0.00
  18   1     0.05   0.01   0.03     0.16   0.12   0.09    -0.08  -0.05  -0.04
  19   1     0.01  -0.02   0.01     0.07   0.23  -0.00    -0.03  -0.07  -0.00
                     40                     41                     42
                        a                      a                      a 
 Frequencies --  1600.8311              1611.9994              2849.4063
 Red. masses --    11.5161                11.5215                 1.9955
 Frc consts  --     0.0000                 0.0000                 0.0000
 IR Inten    --     0.3536                 1.2783              1501.0054
 Raman Activ --     0.0000                 0.0000                 0.0000
 Depolar     --     0.0000                 0.0000                 0.0000
 Atom AN      X      Y      Z        X      Y      Z        X      Y      Z
   1   7     0.00   0.00  -0.00    -0.01  -0.00   0.01    -0.15   0.23   0.01
   2   6    -0.02   0.02  -0.02    -0.01  -0.02  -0.02     0.01  -0.02   0.01
   3   6     0.26  -0.31   0.25     0.22   0.15   0.12    -0.00  -0.00   0.00
   4   6    -0.17   0.10  -0.14    -0.38  -0.27  -0.21    -0.00   0.00  -0.00
   5   6     0.07  -0.37   0.13     0.18   0.34   0.06     0.00   0.00   0.00
   6   6    -0.30   0.35  -0.28    -0.19  -0.09  -0.11     0.00   0.00   0.00
   7   6     0.17  -0.14   0.14     0.37   0.25   0.20    -0.00   0.00  -0.00
   8   6    -0.05   0.37  -0.11    -0.18  -0.35  -0.05     0.00   0.00   0.00
   9  17    -0.00   0.00   0.00    -0.00  -0.00   0.00     0.01  -0.01  -0.00
  10   1    -0.00   0.00  -0.00    -0.00  -0.00  -0.00    -0.02  -0.00  -0.01
  11   1    -0.00  -0.00  -0.00     0.00   0.00   0.01     0.54  -0.79  -0.06
  12   1     0.00  -0.00  -0.00    -0.00   0.01   0.00     0.01   0.01   0.03
  13   1    -0.03  -0.04   0.00    -0.02  -0.02   0.00    -0.00  -0.00  -0.01
  14   1     0.04   0.04   0.00     0.00  -0.00   0.01    -0.05   0.08  -0.00
  15   1     0.02   0.06   0.00     0.10   0.04   0.06     0.00  -0.00   0.00
  16   1     0.05   0.07   0.02     0.02  -0.08   0.03    -0.00   0.00  -0.00
  17   1     0.08  -0.06   0.07    -0.01  -0.06   0.00    -0.00  -0.00  -0.00
  18   1    -0.00  -0.06   0.01    -0.08  -0.03  -0.05     0.00  -0.00   0.00
  19   1    -0.04  -0.08  -0.01    -0.01   0.09  -0.03     0.00  -0.00  -0.00
                     43                     44                     45
                        a                      a                      a 
 Frequencies --  2952.1590              2983.0558              3087.7584
 Red. masses --     1.9307                 1.5467                 1.7635
 Frc consts  --     0.0000                 0.0000                 0.0000
 IR Inten    --     0.6992                 5.8250                12.3012
 Raman Activ --     0.0000                 0.0000                 0.0000
 Depolar     --     0.0000                 0.0000                 0.0000
 Atom AN      X      Y      Z        X      Y      Z        X      Y      Z
   1   7     0.02  -0.02  -0.00     0.01  -0.01  -0.00     0.00  -0.00  -0.00
   2   6     0.19  -0.20   0.10    -0.03  -0.07  -0.21    -0.00   0.00  -0.00
   3   6     0.01  -0.01   0.00    -0.00  -0.00  -0.00     0.00   0.01  -0.00
   4   6    -0.00   0.00  -0.00     0.00   0.00   0.00    -0.05   0.16  -0.07
   5   6    -0.00  -0.00   0.00     0.00   0.00   0.00     0.14  -0.01   0.10
   6   6    -0.00   0.00  -0.00     0.00   0.00   0.00    -0.03  -0.04  -0.01
   7   6     0.00  -0.00   0.00    -0.00   0.00  -0.00    -0.01   0.02  -0.01
   8   6    -0.00   0.00  -0.00     0.00   0.00   0.00    -0.00  -0.00  -0.00
   9  17    -0.00   0.00  -0.00    -0.00   0.00   0.00    -0.00  -0.00   0.00
  10   1     0.00   0.00   0.00     0.00  -0.00  -0.00    -0.00   0.00   0.00
  11   1    -0.05   0.07   0.00    -0.02   0.03   0.00    -0.00   0.00  -0.00
  12   1     0.00  -0.00   0.00    -0.01   0.00  -0.03    -0.00  -0.00   0.00
  13   1    -0.18   0.02  -0.40     0.39  -0.11   0.76     0.00   0.00   0.00
  14   1    -0.49   0.69   0.05    -0.28   0.37  -0.01     0.00  -0.01  -0.00
  15   1     0.00  -0.01   0.00     0.00  -0.00   0.00     0.17  -0.60   0.26
  16   1    -0.00   0.00  -0.00    -0.00   0.00  -0.00    -0.53   0.05  -0.38
  17   1     0.00   0.00  -0.00     0.00  -0.00  -0.00     0.12   0.17   0.04
  18   1    -0.00   0.00  -0.00     0.00  -0.00   0.00     0.02  -0.08   0.03
  19   1     0.00   0.00   0.00    -0.00  -0.00  -0.00     0.00   0.00  -0.00
                     46                     47                     48
                        a                      a                      a 
 Frequencies --  3091.9206              3098.8770              3109.5193
 Red. masses --     1.7952                 1.8589                 1.8958
 Frc consts  --     0.0000                 0.0000                 0.0000
 IR Inten    --     1.0972                58.4050                33.5999
 Raman Activ --     0.0000                 0.0000                 0.0000
 Depolar     --     0.0000                 0.0000                 0.0000
 Atom AN      X      Y      Z        X      Y      Z        X      Y      Z
   1   7    -0.00   0.00  -0.00    -0.00  -0.00  -0.00    -0.00   0.00  -0.00
   2   6    -0.00   0.00  -0.00    -0.00   0.00  -0.00    -0.00   0.00  -0.00
   3   6    -0.00   0.00  -0.00     0.00   0.01   0.00    -0.00   0.00  -0.00
   4   6    -0.02   0.06  -0.02    -0.05   0.16  -0.07    -0.01   0.05  -0.02
   5   6    -0.00   0.00  -0.00    -0.14   0.01  -0.10    -0.10   0.01  -0.07
   6   6     0.05   0.07   0.02     0.05   0.07   0.02    -0.13  -0.19  -0.05
   7   6     0.06  -0.21   0.09    -0.02   0.08  -0.03     0.02  -0.06   0.03
   8   6    -0.04   0.00  -0.03     0.02  -0.01   0.01    -0.06   0.01  -0.04
   9  17    -0.00   0.00   0.00    -0.00  -0.00   0.00    -0.00   0.00   0.00
  10   1    -0.00  -0.00  -0.00    -0.00  -0.00  -0.00    -0.00  -0.00  -0.00
  11   1     0.00  -0.00  -0.00    -0.00   0.00  -0.00     0.00  -0.00  -0.00
  12   1     0.00  -0.00   0.00     0.00  -0.00   0.00     0.00  -0.00   0.00
  13   1     0.00  -0.00   0.00     0.00  -0.00   0.00     0.00   0.00   0.00
  14   1     0.00  -0.00  -0.00     0.00  -0.01  -0.00     0.00  -0.00  -0.00
  15   1     0.06  -0.20   0.09     0.16  -0.55   0.23     0.04  -0.15   0.06
  16   1     0.01  -0.00   0.01     0.47  -0.05   0.34     0.33  -0.03   0.24
  17   1    -0.19  -0.28  -0.07    -0.18  -0.26  -0.07     0.43   0.63   0.17
  18   1    -0.23   0.75  -0.31     0.08  -0.26   0.11    -0.06   0.19  -0.08
  19   1     0.16  -0.02   0.11    -0.08   0.01  -0.05     0.21  -0.02   0.14
                     49                     50                     51
                        a                      a                      a 
 Frequencies --  3115.7806              3189.8444              3213.3170
 Red. masses --     1.8775                 1.8285                 1.7045
 Frc consts  --     0.0000                 0.0000                 0.0000
 IR Inten    --     4.5189                27.6749                32.6155
 Raman Activ --     0.0000                 0.0000                 0.0000
 Depolar     --     0.0000                 0.0000                 0.0000
 Atom AN      X      Y      Z        X      Y      Z        X      Y      Z
   1   7     0.00  -0.00   0.00    -0.16  -0.18  -0.07    -0.09   0.04  -0.21
   2   6    -0.00   0.00  -0.00    -0.00  -0.00  -0.00    -0.00   0.00  -0.01
   3   6    -0.01  -0.01  -0.00    -0.00   0.00   0.00     0.00   0.00  -0.00
   4   6     0.00  -0.01   0.00     0.00   0.00   0.00     0.00  -0.00   0.00
   5   6     0.01  -0.00   0.01    -0.00   0.00  -0.00     0.00  -0.00   0.00
   6   6     0.03   0.04   0.01    -0.00  -0.00  -0.00     0.00   0.00   0.00
   7   6    -0.02   0.08  -0.03     0.00  -0.00   0.00    -0.00   0.00  -0.00
   8   6    -0.21   0.02  -0.15     0.00   0.00   0.00    -0.00  -0.00  -0.00
   9  17    -0.00  -0.00   0.00    -0.00   0.00   0.00     0.00  -0.00   0.00
  10   1     0.00   0.00   0.00     0.57   0.75   0.20    -0.08  -0.08  -0.04
  11   1    -0.00   0.00  -0.00     0.00  -0.04  -0.01    -0.03   0.04  -0.02
  12   1    -0.00   0.00  -0.00     0.03  -0.04   0.08     0.42  -0.13   0.85
  13   1     0.00   0.00   0.00     0.00   0.00   0.00     0.01  -0.00   0.02
  14   1     0.00  -0.00   0.00     0.00  -0.00  -0.00    -0.00   0.01   0.00
  15   1    -0.01   0.03  -0.01     0.00  -0.00   0.00    -0.00   0.00  -0.00
  16   1    -0.05   0.00  -0.03     0.00  -0.00   0.00    -0.00  -0.00  -0.00
  17   1    -0.10  -0.15  -0.04     0.00   0.00   0.00    -0.00  -0.00  -0.00
  18   1     0.07  -0.23   0.10    -0.00   0.00  -0.00     0.00  -0.00   0.00
  19   1     0.74  -0.08   0.51    -0.00  -0.00  -0.00     0.00  -0.00   0.00
