      -----------------------------------------------------------      
     |                   =====================                   |     
     |                           x T B                           |     
     |                   =====================                   |     
     |                         S. Grimme                         |     
     |          Mulliken Center for Theoretical Chemistry        |     
     |                    University of Bonn                     |     
      -----------------------------------------------------------      

   * xtb version 6.5.1 (fef0646) compiled by 'conda@b96dff2e9fd6' on 2023-01-04

   xtb is free software: you can redistribute it and/or modify it under
   the terms of the GNU Lesser General Public License as published by
   the Free Software Foundation, either version 3 of the License, or
   (at your option) any later version.
   
   xtb is distributed in the hope that it will be useful,
   but WITHOUT ANY WARRANTY; without even the implied warranty of
   MERCHANTABILITY or FITNESS FOR A PARTICULAR PURPOSE.  See the
   GNU Lesser General Public License for more details.
   
   Cite this work as:
   * C. Bannwarth, E. Caldeweyher, S. Ehlert, A. Hansen, P. Pracht,
     J. Seibert, S. Spicher, S. Grimme, WIREs Comput. Mol. Sci., 2020, 11,
     e01493. DOI: 10.1002/wcms.1493
   
   for GFN2-xTB:
   * C. Bannwarth, S. Ehlert and S. Grimme., J. Chem. Theory Comput., 2019,
     15, 1652-1671. DOI: 10.1021/acs.jctc.8b01176
   for GFN1-xTB:
   * S. Grimme, C. Bannwarth, P. Shushkov, J. Chem. Theory Comput., 2017,
     13, 1989-2009. DOI: 10.1021/acs.jctc.7b00118
   for GFN0-xTB:
   * P. Pracht, E. Caldeweyher, S. Ehlert, S. Grimme, ChemRxiv, 2019, preprint.
     DOI: 10.26434/chemrxiv.8326202.v1
   for GFN-FF:
   * S. Spicher and S. Grimme, Angew. Chem. Int. Ed., 2020, 59, 15665-15673.
     DOI: 10.1002/anie.202004239
   
   for ALPB and GBSA implicit solvation:
   * S. Ehlert, M. Stahn, S. Spicher, S. Grimme, J. Chem. Theory Comput.,
     2021, 17, 4250-4261. DOI: 10.1021/acs.jctc.1c00471
   
   for DFT-D4:
   * E. Caldeweyher, C. Bannwarth and S. Grimme, J. Chem. Phys., 2017,
     147, 034112. DOI: 10.1063/1.4993215
   * E. Caldeweyher, S. Ehlert, A. Hansen, H. Neugebauer, S. Spicher,
     C. Bannwarth and S. Grimme, J. Chem. Phys., 2019, 150, 154122.
     DOI: 10.1063/1.5090222
   * E. Caldeweyher, J.-M. Mewes, S. Ehlert and S. Grimme, Phys. Chem. Chem. Phys.
     2020, 22, 8499-8512. DOI: 10.1039/D0CP00502A
   
   for sTDA-xTB:
   * S. Grimme and C. Bannwarth, J. Chem. Phys., 2016, 145, 054103.
     DOI: 10.1063/1.4959605
   
   in the mass-spec context:
   * V. Asgeirsson, C. Bauer and S. Grimme, Chem. Sci., 2017, 8, 4879.
     DOI: 10.1039/c7sc00601b
   * J. Koopman and S. Grimme, ACS Omega 2019, 4, 12, 15120-15133.
     DOI: 10.1021/acsomega.9b02011
   
   for metadynamics refer to:
   * S. Grimme, J. Chem. Theory Comput., 2019, 155, 2847-2862
     DOI: 10.1021/acs.jctc.9b00143
   
   for SPH calculations refer to:
   * S. Spicher and S. Grimme, J. Chem. Theory Comput., 2021, 17, 1701-1714
     DOI: 10.1021/acs.jctc.0c01306
   
   with help from (in alphabetical order)
   P. Atkinson, C. Bannwarth, F. Bohle, G. Brandenburg, E. Caldeweyher
   M. Checinski, S. Dohm, S. Ehlert, S. Ehrlich, I. Gerasimov, C. Hölzer
   A. Katbashev, J. Koopman, C. Lavigne, S. Lehtola, F. März, M. Müller,
   F. Musil, H. Neugebauer, J. Pisarek, C. Plett, P. Pracht, F. Pultar,
   J. Seibert, P. Shushkov, S. Spicher, M. Stahn, M. Steiner, T. Strunk,
   J. Stückrath, T. Rose, and J. Unsleber
   
 * started run on 2023/01/24 at 15:22:40.502     

           -------------------------------------------------
          |                Calculation Setup                |
           -------------------------------------------------

          program call               : xtb init.xyz --opt -c 0 -u 0 -P 16 --alpb water
          hostname                   : gpg-woodward
          coordinate file            : init.xyz
          omp threads                :                    16

   ID    Z sym.   atoms
    1    7 N      1, 5
    2    6 C      2-4
    3   17 Cl     6
    4    1 H      7-13

molecular fragmentation (1/2 indicates fragments):
1111121111111
# atoms in fragment 1/2:    12     1
 fragment masses (1/2) :       71.10       35.45
CMA distance (Bohr)    :   8.482
constraining FC (au)   :  0.0500

           -------------------------------------------------
          |                 G F N 2 - x T B                 |
           -------------------------------------------------

        Reference                      10.1021/acs.jctc.8b01176
      * Hamiltonian:
        H0-scaling (s, p, d)           1.850000    2.230000    2.230000
        zeta-weighting                 0.500000
      * Dispersion:
        s8                             2.700000
        a1                             0.520000
        a2                             5.000000
        s9                             5.000000
      * Repulsion:
        kExp                           1.500000    1.000000
        rExp                           1.000000
      * Coulomb:
        alpha                          2.000000
        third order                    shell-resolved
        anisotropic                    true
        a3                             3.000000
        a5                             4.000000
        cn-shift                       1.200000
        cn-exp                         4.000000
        max-rad                        5.000000

      * Solvation model:               ALPB
        Solvent                        water
        Parameter file                 internal GFN2-xTB/ALPB
        Dielectric constant                8.0200E+01
        Reference state                gsolv [1 M gas/solution]
        Free energy shift                  1.0808E-03 Eh       6.7819E-01 kcal/mol
        Temperature                        2.9815E+02 K
        Density                            1.0000E+00 kg/L
        Solvent mass                       1.8000E+01 g/mol
        Interaction kernel             P16
        Born radius scaling (c1)           1.4744E+00
        Born radii integrator          GBOBC
        Born offset                        0.0000E+00 a0       0.0000E+00 AA
        H-bond correction              true
        Ion screening                  false
        Surface tension                    1.0000E-05 Eh       1.5569E+01 dyn/cm
        Grid points                               230 per atom

          ...................................................
          :                      SETUP                      :
          :.................................................:
          :  # basis functions                  37          :
          :  # atomic orbitals                  36          :
          :  # shells                           20          :
          :  # electrons                        36          :
          :  max. iterations                   250          :
          :  Hamiltonian                  GFN2-xTB          :
          :  restarted?                      false          :
          :  GBSA solvation                   true          :
          :  PC potential                    false          :
          :  electronic temp.          300.0000000     K    :
          :  accuracy                    1.0000000          :
          :  -> integral cutoff          0.2500000E+02      :
          :  -> integral neglect         0.1000000E-07      :
          :  -> SCF convergence          0.1000000E-05 Eh   :
          :  -> wf. convergence          0.1000000E-03 e    :
          :  Broyden damping             0.4000000          :
          ...................................................

 iter      E             dE          RMSdq      gap      omega  full diag
   1    -20.5484833 -0.205485E+02  0.500E+00    5.91       0.0  T
   2    -20.6140941 -0.656108E-01  0.285E+00    5.52       1.0  T
   3    -20.6179700 -0.387586E-02  0.135E+00    5.02       1.0  T
   4    -20.6188106 -0.840687E-03  0.514E-01    4.97       1.0  T
   5    -20.6197013 -0.890640E-03  0.371E-01    4.94       1.0  T
   6    -20.6202829 -0.581645E-03  0.172E-01    5.06       1.0  T
   7    -20.6203999 -0.116947E-03  0.928E-02    5.05       1.0  T
   8    -20.6204264 -0.265675E-04  0.157E-02    5.02       1.8  T
   9    -20.6204264  0.680691E-07  0.860E-03    5.02       3.2  T
  10    -20.6204267 -0.361298E-06  0.231E-03    5.02      12.0  T
  11    -20.6204268 -0.187362E-07  0.112E-03    5.02      24.9  T
  12    -20.6204268 -0.366388E-08  0.452E-04    5.02      61.4  T
  13    -20.6204268 -0.762167E-09  0.107E-04    5.02     260.1  T

   *** convergence criteria satisfied after 13 iterations ***

         #    Occupation            Energy/Eh            Energy/eV
      -------------------------------------------------------------
         1        2.0000           -1.0116627             -27.5287
       ...           ...                  ...                  ...
        12        2.0000           -0.4729030             -12.8683
        13        2.0000           -0.4660227             -12.6811
        14        2.0000           -0.4568013             -12.4302
        15        2.0000           -0.4292298             -11.6799
        16        2.0000           -0.4058757             -11.0444
        17        2.0000           -0.4056063             -11.0371
        18        2.0000           -0.4050254             -11.0213 (HOMO)
        19                         -0.2206028              -6.0029 (LUMO)
        20                         -0.2149528              -5.8492
        21                         -0.0385869              -1.0500
        22                          0.0687750               1.8715
        23                          0.0824051               2.2424
       ...                                ...                  ...
        36                          1.0423920              28.3649
      -------------------------------------------------------------
                  HL-Gap            0.1844226 Eh            5.0184 eV
             Fermi-level           -0.3128141 Eh           -8.5121 eV

 SCC (total)                   0 d,  0 h,  0 min,  0.014 sec
 SCC setup                      ...        0 min,  0.000 sec (  1.536%)
 Dispersion                     ...        0 min,  0.000 sec (  1.103%)
 classical contributions        ...        0 min,  0.000 sec (  0.407%)
 integral evaluation            ...        0 min,  0.001 sec (  4.977%)
 iterations                     ...        0 min,  0.011 sec ( 80.192%)
 molecular gradient             ...        0 min,  0.001 sec (  9.367%)
 printout                       ...        0 min,  0.000 sec (  0.709%)

         :::::::::::::::::::::::::::::::::::::::::::::::::::::
         ::                     SUMMARY                     ::
         :::::::::::::::::::::::::::::::::::::::::::::::::::::
         :: total energy             -20.373022844602 Eh    ::
         :: total w/o Gsasa/hb       -20.360948289393 Eh    ::
         :: gradient norm              0.051871870157 Eh/a0 ::
         :: HOMO-LUMO gap              5.018393809615 eV    ::
         ::.................................................::
         :: SCC energy               -20.620426763035 Eh    ::
         :: -> isotropic ES            0.123820691803 Eh    ::
         :: -> anisotropic ES         -0.028952889645 Eh    ::
         :: -> anisotropic XC          0.012791534891 Eh    ::
         :: -> dispersion             -0.006579217999 Eh    ::
         :: -> Gsolv                  -0.073516927334 Eh    ::
         ::    -> Gelec               -0.061442372125 Eh    ::
         ::    -> Gsasa               -0.005453498970 Eh    ::
         ::    -> Ghb                 -0.007701815936 Eh    ::
         ::    -> Gshift               0.001080759698 Eh    ::
         :: repulsion energy           0.247402361247 Eh    ::
         :: add. restraining           0.000000000000 Eh    ::
         :: total charge               0.000000000000 e     ::
         :::::::::::::::::::::::::::::::::::::::::::::::::::::

      ----------------------------------------------------------- 
     |                   =====================                   |
     |                        A N C O P T                        |
     |                   =====================                   |
     |               Approximate Normal Coordinate               |
     |                Rational Function Optimizer                |
      ----------------------------------------------------------- 

          ...................................................
          :                      SETUP                      :
          :.................................................:
          :   optimization level            normal          :
          :   max. optcycles                   200          :
          :   ANC micro-cycles                  20          :
          :   degrees of freedom                33          :
          :.................................................:
          :   RF solver                   davidson          :
          :   write xtbopt.log                true          :
          :   linear?                        false          :
          :   energy convergence         0.5000000E-05 Eh   :
          :   grad. convergence          0.1000000E-02 Eh/α :
          :   maximium RF displ.         1.0000000          :
          :   Hlow (freq-cutoff)         0.1000000E-01      :
          :   Hmax (freq-cutoff)         5.0000000          :
          :   S6 in model hess.         20.0000000          :
          ...................................................

generating ANC from model Hessian ...
Using Lindh-Hessian (1995)
 Shifting diagonal of input Hessian by    1.0992208313499650E-002
 Lowest  eigenvalues of input Hessian
    0.010000    0.000000    0.000000    0.000000    0.000000    0.000000
    0.000000    0.011947    0.013958    0.018081    0.021421    0.023910
    0.036915    0.040841    0.065377    0.068056    0.072709    0.082122
 Highest eigenvalues
    1.140156    1.154969    1.286277    1.444165    1.547837    2.464601


........................................................................
.............................. CYCLE    1 ..............................
........................................................................
   1    -20.6204268 -0.206204E+02  0.458E-05    5.02       0.0  T
   2    -20.6204268 -0.945022E-12  0.299E-05    5.02     928.8  T
   3    -20.6204268  0.143530E-11  0.183E-05    5.02    1513.3  T
     SCC iter.                  ...        0 min,  0.002 sec
     gradient                   ...        0 min,  0.001 sec
 * total energy  :   -20.3730228 Eh     change       -0.3344880E-10 Eh
   gradient norm :     0.0518715 Eh/α   predicted     0.0000000E+00 (-100.00%)
   displ. norm   :     0.4840344 α      lambda       -0.9504795E-02
   maximum displ.:     0.3562916 α      in ANC's #1, #5, #7, ...

........................................................................
.............................. CYCLE    2 ..............................
........................................................................
   1    -20.6411236 -0.206411E+02  0.287E-01    5.17       0.0  T
   2    -20.6412398 -0.116192E-03  0.160E-01    5.15       1.0  T
   3    -20.6412314  0.841482E-05  0.735E-02    5.15       1.0  T
   4    -20.6412487 -0.173345E-04  0.385E-02    5.13       1.0  T
   5    -20.6412569 -0.822817E-05  0.152E-02    5.13       1.8  T
   6    -20.6412574 -0.489880E-06  0.981E-03    5.13       2.8  T
   7    -20.6412578 -0.380536E-06  0.426E-03    5.13       6.5  T
   8    -20.6412579 -0.665100E-07  0.490E-04    5.13      56.7  T
   9    -20.6412579 -0.242125E-09  0.119E-04    5.13     233.9  T
     SCC iter.                  ...        0 min,  0.006 sec
     gradient                   ...        0 min,  0.001 sec
 * total energy  :   -20.3779776 Eh     change       -0.4954804E-02 Eh
   gradient norm :     0.0300173 Eh/α   predicted    -0.5865822E-02 (  18.39%)
   displ. norm   :     0.1867978 α      lambda       -0.1880064E-02
   maximum displ.:     0.1377808 α      in ANC's #1, #10, #19, ...

........................................................................
.............................. CYCLE    3 ..............................
........................................................................
   1    -20.6435854 -0.206436E+02  0.214E-01    5.11       0.0  T
   2    -20.6435967 -0.113540E-04  0.120E-01    5.11       1.0  T
   3    -20.6435951  0.160251E-05  0.248E-02    5.11       1.1  T
   4    -20.6436001 -0.497841E-05  0.115E-02    5.10       2.4  T
   5    -20.6436006 -0.522726E-06  0.626E-03    5.10       4.4  T
   6    -20.6436007 -0.841464E-07  0.339E-03    5.10       8.2  T
   7    -20.6436007 -0.372695E-07  0.201E-03    5.10      13.8  T
   8    -20.6436008 -0.161770E-07  0.483E-04    5.10      57.4  T
   9    -20.6436008 -0.642693E-09  0.190E-04    5.10     146.0  T
     SCC iter.                  ...        0 min,  0.006 sec
     gradient                   ...        0 min,  0.001 sec
 * total energy  :   -20.3792441 Eh     change       -0.1266480E-02 Eh
   gradient norm :     0.0147446 Eh/α   predicted    -0.9728329E-03 ( -23.19%)
   displ. norm   :     0.2776186 α      lambda       -0.1233146E-02
   maximum displ.:     0.2261171 α      in ANC's #1, #7, #10, ...

........................................................................
.............................. CYCLE    4 ..............................
........................................................................
   1    -20.6421696 -0.206422E+02  0.318E-01    5.03       0.0  T
   2    -20.6421860 -0.164287E-04  0.177E-01    5.03       1.0  T
   3    -20.6421866 -0.561314E-06  0.316E-02    5.02       1.0  T
   4    -20.6421943 -0.774521E-05  0.144E-02    5.02       1.9  T
   5    -20.6421948 -0.469231E-06  0.835E-03    5.02       3.3  T
   6    -20.6421950 -0.234193E-06  0.453E-03    5.02       6.1  T
   7    -20.6421951 -0.737011E-07  0.972E-04    5.02      28.5  T
   8    -20.6421951 -0.214853E-08  0.399E-04    5.02      69.6  T
     SCC iter.                  ...        0 min,  0.006 sec
     gradient                   ...        0 min,  0.001 sec
 * total energy  :   -20.3797827 Eh     change       -0.5385407E-03 Eh
   gradient norm :     0.0170682 Eh/α   predicted    -0.6640966E-03 (  23.31%)
   displ. norm   :     0.3010312 α      lambda       -0.1101117E-02
   maximum displ.:     0.2531732 α      in ANC's #1, #5, #7, ...

........................................................................
.............................. CYCLE    5 ..............................
........................................................................
   1    -20.6421057 -0.206421E+02  0.293E-01    5.02       0.0  T
   2    -20.6421188 -0.131529E-04  0.164E-01    5.02       1.0  T
   3    -20.6421193 -0.466083E-06  0.313E-02    5.01       1.0  T
   4    -20.6421260 -0.670234E-05  0.176E-02    5.01       1.6  T
   5    -20.6421268 -0.811093E-06  0.112E-02    5.01       2.5  T
   6    -20.6421273 -0.482667E-06  0.466E-03    5.01       5.9  T
   7    -20.6421274 -0.723564E-07  0.149E-03    5.01      18.7  T
   8    -20.6421274 -0.371510E-08  0.273E-04    5.01     101.7  T
   9    -20.6421274 -0.564455E-10  0.132E-04    5.01     210.0  T
     SCC iter.                  ...        0 min,  0.006 sec
     gradient                   ...        0 min,  0.001 sec
 * total energy  :   -20.3804270 Eh     change       -0.6443074E-03 Eh
   gradient norm :     0.0175607 Eh/α   predicted    -0.6004505E-03 (  -6.81%)
   displ. norm   :     0.2676385 α      lambda       -0.7995561E-03
   maximum displ.:     0.2151367 α      in ANC's #1, #7, #8, ...

........................................................................
.............................. CYCLE    6 ..............................
........................................................................
   1    -20.6445685 -0.206446E+02  0.863E-02    5.05       0.0  T
   2    -20.6445754 -0.685133E-05  0.553E-02    5.05       1.0  T
   3    -20.6445772 -0.180726E-05  0.271E-02    5.05       1.0  T
   4    -20.6445793 -0.207058E-05  0.192E-02    5.05       1.4  T
   5    -20.6445807 -0.141930E-05  0.118E-02    5.05       2.3  T
   6    -20.6445812 -0.553343E-06  0.171E-03    5.05      16.2  T
   7    -20.6445812 -0.400061E-08  0.568E-04    5.05      48.8  T
   8    -20.6445812 -0.407198E-09  0.144E-04    5.05     193.3  T
     SCC iter.                  ...        0 min,  0.006 sec
     gradient                   ...        0 min,  0.001 sec
 * total energy  :   -20.3810933 Eh     change       -0.6662789E-03 Eh
   gradient norm :     0.0101192 Eh/α   predicted    -0.4284102E-03 ( -35.70%)
   displ. norm   :     0.5551274 α      lambda       -0.1287698E-02
   maximum displ.:     0.4342188 α      in ANC's #1, #7, #8, ...

........................................................................
.............................. CYCLE    7 ..............................
........................................................................
   1    -20.6440544 -0.206441E+02  0.193E-01    5.08       0.0  T
   2    -20.6440772 -0.228453E-04  0.124E-01    5.08       1.0  T
   3    -20.6440921 -0.149046E-04  0.519E-02    5.08       1.0  T
   4    -20.6440975 -0.538003E-05  0.404E-02    5.08       1.0  T
   5    -20.6441035 -0.602231E-05  0.239E-02    5.08       1.2  T
   6    -20.6441059 -0.237410E-05  0.341E-03    5.08       8.1  T
   7    -20.6441059 -0.110548E-07  0.142E-03    5.08      19.5  T
   8    -20.6441059 -0.136879E-08  0.253E-04    5.08     109.7  T
   9    -20.6441059 -0.873683E-10  0.136E-04    5.08     204.0  T
     SCC iter.                  ...        0 min,  0.006 sec
     gradient                   ...        0 min,  0.001 sec
 * total energy  :   -20.3819643 Eh     change       -0.8710132E-03 Eh
   gradient norm :     0.0091126 Eh/α   predicted    -0.8422559E-03 (  -3.30%)
   displ. norm   :     0.2828935 α      lambda       -0.4504542E-03
   maximum displ.:     0.1685831 α      in ANC's #1, #7, #5, ...

........................................................................
.............................. CYCLE    8 ..............................
........................................................................
   1    -20.6455552 -0.206456E+02  0.136E-01    5.10       0.0  T
   2    -20.6455645 -0.931759E-05  0.818E-02    5.10       1.0  T
   3    -20.6455688 -0.421111E-05  0.276E-02    5.10       1.0  T
   4    -20.6455700 -0.125492E-05  0.215E-02    5.10       1.3  T
   5    -20.6455716 -0.158499E-05  0.143E-02    5.10       1.9  T
   6    -20.6455725 -0.881037E-06  0.268E-03    5.10      10.3  T
   7    -20.6455725 -0.159031E-07  0.118E-03    5.10      23.5  T
   8    -20.6455725 -0.114962E-08  0.168E-04    5.10     165.2  T
   9    -20.6455725 -0.415028E-10  0.102E-04    5.10     272.3  T
     SCC iter.                  ...        0 min,  0.006 sec
     gradient                   ...        0 min,  0.001 sec
 * total energy  :   -20.3822533 Eh     change       -0.2890056E-03 Eh
   gradient norm :     0.0095797 Eh/α   predicted    -0.2432510E-03 ( -15.83%)
   displ. norm   :     0.2318596 α      lambda       -0.2112096E-03
   maximum displ.:     0.1711257 α      in ANC's #1, #7, #5, ...

........................................................................
.............................. CYCLE    9 ..............................
........................................................................
   1    -20.6450628 -0.206451E+02  0.854E-02    5.09       0.0  T
   2    -20.6450658 -0.294161E-05  0.536E-02    5.09       1.0  T
   3    -20.6450683 -0.250824E-05  0.202E-02    5.09       1.4  T
   4    -20.6450692 -0.865571E-06  0.161E-02    5.09       1.7  T
   5    -20.6450703 -0.108749E-05  0.610E-03    5.09       4.5  T
   6    -20.6450704 -0.153359E-06  0.154E-03    5.09      18.0  T
   7    -20.6450704 -0.314595E-08  0.653E-04    5.09      42.5  T
   8    -20.6450704 -0.417831E-09  0.103E-04    5.09     270.3  T
     SCC iter.                  ...        0 min,  0.006 sec
     gradient                   ...        0 min,  0.001 sec
 * total energy  :   -20.3823939 Eh     change       -0.1406106E-03 Eh
   gradient norm :     0.0044235 Eh/α   predicted    -0.1112813E-03 ( -20.86%)
   displ. norm   :     0.1865282 α      lambda       -0.1856934E-03
   maximum displ.:     0.1126257 α      in ANC's #5, #1, #4, ...

........................................................................
.............................. CYCLE   10 ..............................
........................................................................
   1    -20.6465320 -0.206465E+02  0.107E-01    5.09       0.0  T
   2    -20.6465343 -0.228921E-05  0.618E-02    5.09       1.0  T
   3    -20.6465340  0.286264E-06  0.184E-02    5.10       1.5  T
   4    -20.6465361 -0.209738E-05  0.108E-02    5.10       2.6  T
   5    -20.6465364 -0.342018E-06  0.593E-03    5.10       4.7  T
   6    -20.6465366 -0.140984E-06  0.233E-03    5.10      11.9  T
   7    -20.6465366 -0.142610E-07  0.852E-04    5.10      32.6  T
   8    -20.6465366 -0.120516E-08  0.137E-04    5.10     201.8  T
     SCC iter.                  ...        0 min,  0.006 sec
     gradient                   ...        0 min,  0.001 sec
 * total energy  :   -20.3824967 Eh     change       -0.1027769E-03 Eh
   gradient norm :     0.0040025 Eh/α   predicted    -0.9607591E-04 (  -6.52%)
   displ. norm   :     0.2248428 α      lambda       -0.1173773E-03
   maximum displ.:     0.1611211 α      in ANC's #1, #5, #4, ...

........................................................................
.............................. CYCLE   11 ..............................
........................................................................
   1    -20.6459021 -0.206459E+02  0.102E-01    5.09       0.0  T
   2    -20.6459058 -0.372462E-05  0.612E-02    5.08       1.0  T
   3    -20.6459084 -0.263943E-05  0.179E-02    5.08       1.5  T
   4    -20.6459091 -0.691364E-06  0.121E-02    5.08       2.3  T
   5    -20.6459094 -0.248533E-06  0.742E-03    5.09       3.7  T
   6    -20.6459098 -0.388661E-06  0.180E-03    5.08      15.4  T
   7    -20.6459098 -0.539106E-08  0.433E-04    5.08      64.1  T
   8    -20.6459098 -0.359712E-09  0.138E-04    5.08     201.4  T
     SCC iter.                  ...        0 min,  0.006 sec
     gradient                   ...        0 min,  0.001 sec
 * total energy  :   -20.3825720 Eh     change       -0.7533878E-04 Eh
   gradient norm :     0.0045656 Eh/α   predicted    -0.6165538E-04 ( -18.16%)
   displ. norm   :     0.1573384 α      lambda       -0.1174299E-03
   maximum displ.:     0.0981665 α      in ANC's #5, #4, #1, ...

........................................................................
.............................. CYCLE   12 ..............................
........................................................................
   1    -20.6455215 -0.206455E+02  0.115E-01    5.09       0.0  T
   2    -20.6455235 -0.201948E-05  0.656E-02    5.08       1.0  T
   3    -20.6455248 -0.121882E-05  0.101E-02    5.08       2.7  T
   4    -20.6455249 -0.173896E-06  0.690E-03    5.08       4.0  T
   5    -20.6455251 -0.128144E-06  0.427E-03    5.08       6.5  T
   6    -20.6455252 -0.869462E-07  0.202E-03    5.08      13.7  T
   7    -20.6455252 -0.135518E-07  0.682E-04    5.08      40.7  T
   8    -20.6455252 -0.934719E-09  0.126E-04    5.08     220.5  T
     SCC iter.                  ...        0 min,  0.006 sec
     gradient                   ...        0 min,  0.001 sec
 * total energy  :   -20.3826713 Eh     change       -0.9933074E-04 Eh
   gradient norm :     0.0044876 Eh/α   predicted    -0.6016678E-04 ( -39.43%)
   displ. norm   :     0.3496005 α      lambda       -0.2917075E-03
   maximum displ.:     0.2279464 α      in ANC's #5, #4, #3, ...

........................................................................
.............................. CYCLE   13 ..............................
........................................................................
   1    -20.6428820 -0.206429E+02  0.288E-01    5.06       0.0  T
   2    -20.6428925 -0.104674E-04  0.162E-01    5.06       1.0  T
   3    -20.6428973 -0.476348E-05  0.190E-02    5.06       1.5  T
   4    -20.6428978 -0.510103E-06  0.151E-02    5.06       1.8  T
   5    -20.6428986 -0.884310E-06  0.767E-03    5.06       3.6  T
   6    -20.6428988 -0.201654E-06  0.392E-03    5.06       7.1  T
   7    -20.6428989 -0.496783E-07  0.110E-03    5.06      25.3  T
   8    -20.6428989 -0.303147E-08  0.300E-04    5.06      92.5  T
   9    -20.6428989 -0.599769E-10  0.110E-04    5.06     253.1  T
     SCC iter.                  ...        0 min,  0.006 sec
     gradient                   ...        0 min,  0.001 sec
 * total energy  :   -20.3828231 Eh     change       -0.1517543E-03 Eh
   gradient norm :     0.0092854 Eh/α   predicted    -0.1636805E-03 (   7.86%)
   displ. norm   :     0.0453233 α      lambda       -0.9913106E-04
   maximum displ.:     0.0270086 α      in ANC's #2, #5, #1, ...

........................................................................
.............................. CYCLE   14 ..............................
........................................................................
   1    -20.6449324 -0.206449E+02  0.209E-02    5.09       0.0  T
   2    -20.6449327 -0.313078E-06  0.122E-02    5.08       2.3  T
   3    -20.6449326  0.100333E-06  0.542E-03    5.09       5.1  T
   4    -20.6449327 -0.178097E-06  0.236E-03    5.08      11.7  T
   5    -20.6449328 -0.206790E-07  0.140E-03    5.08      19.8  T
   6    -20.6449328 -0.605754E-08  0.696E-04    5.08      39.8  T
   7    -20.6449328 -0.189720E-08  0.295E-04    5.08      93.9  T
     SCC iter.                  ...        0 min,  0.005 sec
     gradient                   ...        0 min,  0.001 sec
 * total energy  :   -20.3828978 Eh     change       -0.7472733E-04 Eh
   gradient norm :     0.0047382 Eh/α   predicted    -0.4966867E-04 ( -33.53%)
   displ. norm   :     0.2346856 α      lambda       -0.1821641E-03
   maximum displ.:     0.1414175 α      in ANC's #5, #3, #4, ...

........................................................................
.............................. CYCLE   15 ..............................
........................................................................
   1    -20.6459769 -0.206460E+02  0.143E-01    5.08       0.0  T
   2    -20.6459802 -0.327662E-05  0.820E-02    5.08       1.0  T
   3    -20.6459825 -0.230840E-05  0.148E-02    5.09       1.9  T
   4    -20.6459829 -0.346945E-06  0.102E-02    5.09       2.7  T
   5    -20.6459832 -0.363253E-06  0.553E-03    5.09       5.0  T
   6    -20.6459834 -0.153237E-06  0.255E-03    5.09      10.9  T
   7    -20.6459834 -0.166323E-07  0.401E-04    5.09      69.2  T
   8    -20.6459834 -0.242274E-09  0.167E-04    5.09     166.0  T
     SCC iter.                  ...        0 min,  0.005 sec
     gradient                   ...        0 min,  0.001 sec
 * total energy  :   -20.3830139 Eh     change       -0.1161218E-03 Eh
   gradient norm :     0.0037436 Eh/α   predicted    -0.9609960E-04 ( -17.24%)
   displ. norm   :     0.2048365 α      lambda       -0.7725508E-04
   maximum displ.:     0.1310760 α      in ANC's #5, #3, #4, ...

........................................................................
.............................. CYCLE   16 ..............................
........................................................................
   1    -20.6455705 -0.206456E+02  0.106E-01    5.09       0.0  T
   2    -20.6455721 -0.158238E-05  0.611E-02    5.09       1.0  T
   3    -20.6455732 -0.106716E-05  0.110E-02    5.09       2.5  T
   4    -20.6455733 -0.134138E-06  0.888E-03    5.09       3.1  T
   5    -20.6455737 -0.363256E-06  0.351E-03    5.09       7.9  T
   6    -20.6455737 -0.397395E-07  0.931E-04    5.09      29.8  T
   7    -20.6455737 -0.245061E-08  0.258E-04    5.09     107.5  T
     SCC iter.                  ...        0 min,  0.005 sec
     gradient                   ...        0 min,  0.001 sec
 * total energy  :   -20.3830615 Eh     change       -0.4753185E-04 Eh
   gradient norm :     0.0039418 Eh/α   predicted    -0.4024803E-04 ( -15.32%)
   displ. norm   :     0.1695770 α      lambda       -0.7711161E-04
   maximum displ.:     0.0924153 α      in ANC's #5, #2, #3, ...

........................................................................
.............................. CYCLE   17 ..............................
........................................................................
   1    -20.6465388 -0.206465E+02  0.684E-02    5.09       0.0  T
   2    -20.6465399 -0.112714E-05  0.411E-02    5.09       1.0  T
   3    -20.6465409 -0.955563E-06  0.116E-02    5.09       2.4  T
   4    -20.6465411 -0.240898E-06  0.944E-03    5.09       2.9  T
   5    -20.6465416 -0.410672E-06  0.265E-03    5.09      10.5  T
   6    -20.6465416 -0.173249E-07  0.122E-03    5.09      22.8  T
   7    -20.6465416 -0.272300E-08  0.179E-04    5.09     154.8  T
   8    -20.6465416 -0.289369E-10  0.792E-05    5.09     350.1  T
     SCC iter.                  ...        0 min,  0.005 sec
     gradient                   ...        0 min,  0.001 sec
 * total energy  :   -20.3831134 Eh     change       -0.5198049E-04 Eh
   gradient norm :     0.0038289 Eh/α   predicted    -0.3966453E-04 ( -23.69%)
   displ. norm   :     0.2473478 α      lambda       -0.6001197E-04
   maximum displ.:     0.1500324 α      in ANC's #5, #2, #3, ...

........................................................................
.............................. CYCLE   18 ..............................
........................................................................
   1    -20.6457997 -0.206458E+02  0.888E-02    5.08       0.0  T
   2    -20.6458018 -0.211233E-05  0.539E-02    5.08       1.0  T
   3    -20.6458034 -0.159924E-05  0.163E-02    5.08       1.7  T
   4    -20.6458040 -0.554378E-06  0.131E-02    5.08       2.1  T
   5    -20.6458047 -0.688082E-06  0.586E-03    5.08       4.7  T
   6    -20.6458048 -0.140451E-06  0.161E-03    5.08      17.2  T
   7    -20.6458048 -0.372455E-08  0.277E-04    5.08     100.2  T
   8    -20.6458048 -0.160551E-09  0.113E-04    5.08     244.4  T
     SCC iter.                  ...        0 min,  0.005 sec
     gradient                   ...        0 min,  0.001 sec
 * total energy  :   -20.3831530 Eh     change       -0.3959096E-04 Eh
   gradient norm :     0.0018176 Eh/α   predicted    -0.3184223E-04 ( -19.57%)
   displ. norm   :     0.1395464 α      lambda       -0.3323757E-04
   maximum displ.:     0.1106398 α      in ANC's #2, #5, #3, ...

........................................................................
.............................. CYCLE   19 ..............................
........................................................................
   1    -20.6462721 -0.206463E+02  0.481E-02    5.09       0.0  T
   2    -20.6462730 -0.923565E-06  0.299E-02    5.09       1.0  T
   3    -20.6462737 -0.693293E-06  0.951E-03    5.09       2.9  T
   4    -20.6462738 -0.135958E-06  0.743E-03    5.09       3.7  T
   5    -20.6462740 -0.160034E-06  0.492E-03    5.09       5.6  T
   6    -20.6462741 -0.115721E-06  0.102E-03    5.09      27.1  T
   7    -20.6462741 -0.273953E-08  0.461E-04    5.09      60.1  T
   8    -20.6462741 -0.147399E-09  0.613E-05    5.09     452.3  T
     SCC iter.                  ...        0 min,  0.005 sec
     gradient                   ...        0 min,  0.001 sec
 * total energy  :   -20.3831753 Eh     change       -0.2221292E-04 Eh
   gradient norm :     0.0026265 Eh/α   predicted    -0.1676274E-04 ( -24.54%)
   displ. norm   :     0.1050737 α      lambda       -0.2415413E-04
   maximum displ.:     0.0569384 α      in ANC's #2, #5, #1, ...

........................................................................
.............................. CYCLE   20 ..............................
........................................................................
   1    -20.6461159 -0.206461E+02  0.336E-02    5.09       0.0  T
   2    -20.6461164 -0.566207E-06  0.213E-02    5.09       1.3  T
   3    -20.6461169 -0.522025E-06  0.789E-03    5.09       3.5  T
   4    -20.6461171 -0.149222E-06  0.510E-03    5.09       5.4  T
   5    -20.6461171 -0.543045E-07  0.303E-03    5.09       9.2  T
   6    -20.6461172 -0.611128E-07  0.708E-04    5.09      39.2  T
   7    -20.6461172 -0.139989E-08  0.301E-04    5.09      92.1  T
     SCC iter.                  ...        0 min,  0.005 sec
     gradient                   ...        0 min,  0.001 sec
 * total energy  :   -20.3831936 Eh     change       -0.1839670E-04 Eh
   gradient norm :     0.0019472 Eh/α   predicted    -0.1221131E-04 ( -33.62%)
   displ. norm   :     0.1010430 α      lambda       -0.1767993E-04
   maximum displ.:     0.0631812 α      in ANC's #2, #5, #7, ...
 * RMSD in coord.:     0.9909870 α      energy gain  -0.1017080E-01 Eh

generating ANC from model Hessian ...
Using Lindh-Hessian (1995)
 Shifting diagonal of input Hessian by    9.9021762674122282E-003
 Lowest  eigenvalues of input Hessian
    0.000000    0.000000    0.000000    0.000000    0.000000    0.000000
    0.010000    0.010987    0.012561    0.018866    0.023996    0.024192
    0.035477    0.035984    0.064767    0.068856    0.072120    0.080578
 Highest eigenvalues
    1.150705    1.231148    1.354885    1.435279    1.468148    2.565322


........................................................................
.............................. CYCLE   21 ..............................
........................................................................
   1    -20.6456850 -0.206457E+02  0.469E-02    5.09       0.0  T
   2    -20.6456857 -0.640176E-06  0.281E-02    5.09       1.0  T
   3    -20.6456863 -0.620930E-06  0.834E-03    5.08       3.3  T
   4    -20.6456865 -0.216273E-06  0.425E-03    5.09       6.5  T
   5    -20.6456866 -0.738290E-07  0.120E-03    5.09      23.1  T
   6    -20.6456866 -0.301561E-08  0.519E-04    5.09      53.4  T
   7    -20.6456866 -0.263103E-09  0.277E-04    5.09     100.0  T
     SCC iter.                  ...        0 min,  0.005 sec
     gradient                   ...        0 min,  0.001 sec
 * total energy  :   -20.3832110 Eh     change       -0.1730311E-04 Eh
   gradient norm :     0.0012830 Eh/α   predicted     0.0000000E+00 (-100.00%)
   displ. norm   :     0.0357031 α      lambda       -0.1245379E-04
   maximum displ.:     0.0213574 α      in ANC's #2, #3, #1, ...

........................................................................
.............................. CYCLE   22 ..............................
........................................................................
   1    -20.6461356 -0.206461E+02  0.519E-02    5.09       0.0  T
   2    -20.6461362 -0.569819E-06  0.289E-02    5.09       1.0  T
   3    -20.6461363 -0.126518E-06  0.356E-03    5.09       7.8  T
   4    -20.6461364 -0.508646E-07  0.227E-03    5.09      12.2  T
   5    -20.6461364 -0.222462E-07  0.141E-03    5.09      19.7  T
   6    -20.6461364 -0.542544E-08  0.834E-04    5.09      33.2  T
   7    -20.6461364 -0.272640E-08  0.352E-04    5.09      78.9  T
     SCC iter.                  ...        0 min,  0.005 sec
     gradient                   ...        0 min,  0.001 sec
 * total energy  :   -20.3832154 Eh     change       -0.4421751E-05 Eh
   gradient norm :     0.0013279 Eh/α   predicted    -0.6231477E-05 (  40.93%)
   displ. norm   :     0.0435629 α      lambda       -0.1430901E-04
   maximum displ.:     0.0263622 α      in ANC's #2, #5, #1, ...

........................................................................
.............................. CYCLE   23 ..............................
........................................................................
   1    -20.6465213 -0.206465E+02  0.660E-02    5.09       0.0  T
   2    -20.6465220 -0.645068E-06  0.368E-02    5.09       1.0  T
   3    -20.6465220 -0.322184E-07  0.570E-03    5.09       4.9  T
   4    -20.6465223 -0.253913E-06  0.269E-03    5.09      10.3  T
   5    -20.6465223 -0.193318E-07  0.169E-03    5.09      16.4  T
   6    -20.6465223 -0.107491E-07  0.656E-04    5.09      42.3  T
   7    -20.6465223 -0.133043E-08  0.182E-04    5.09     152.6  T
     SCC iter.                  ...        0 min,  0.005 sec
     gradient                   ...        0 min,  0.001 sec
 * total energy  :   -20.3832168 Eh     change       -0.1450538E-05 Eh
   gradient norm :     0.0018144 Eh/α   predicted    -0.7160287E-05 ( 393.63%)
   displ. norm   :     0.0244709 α      lambda       -0.1326544E-04
   maximum displ.:     0.0139806 α      in ANC's #2, #7, #8, ...

........................................................................
.............................. CYCLE   24 ..............................
........................................................................
   1    -20.6460674 -0.206461E+02  0.333E-02    5.09       0.0  T
   2    -20.6460678 -0.402786E-06  0.185E-02    5.09       1.5  T
   3    -20.6460679 -0.730899E-07  0.222E-03    5.09      12.5  T
   4    -20.6460679 -0.762913E-08  0.106E-03    5.09      26.2  T
   5    -20.6460679 -0.166512E-08  0.732E-04    5.09      37.9  T
   6    -20.6460679 -0.154212E-08  0.439E-04    5.09      63.2  T
     SCC iter.                  ...        0 min,  0.004 sec
     gradient                   ...        0 min,  0.001 sec
 * total energy  :   -20.3832274 Eh     change       -0.1060002E-04 Eh
   gradient norm :     0.0006528 Eh/α   predicted    -0.6635467E-05 ( -37.40%)
   displ. norm   :     0.0202512 α      lambda       -0.2331496E-05
   maximum displ.:     0.0170911 α      in ANC's #2, #1, #4, ...

........................................................................
.............................. CYCLE   25 ..............................
........................................................................
   1    -20.6460112 -0.206460E+02  0.216E-02    5.09       0.0  T
   2    -20.6460112 -0.825247E-07  0.121E-02    5.09       2.3  T
   3    -20.6460113 -0.409396E-07  0.154E-03    5.09      18.0  T
   4    -20.6460113 -0.354840E-08  0.114E-03    5.09      24.3  T
   5    -20.6460113 -0.312600E-08  0.658E-04    5.09      42.2  T
   6    -20.6460113 -0.198987E-08  0.376E-04    5.09      73.8  T
     SCC iter.                  ...        0 min,  0.004 sec
     gradient                   ...        0 min,  0.001 sec
 * total energy  :   -20.3832301 Eh     change       -0.2681260E-05 Eh
   gradient norm :     0.0002543 Eh/α   predicted    -0.1167191E-05 ( -56.47%)
   displ. norm   :     0.0277220 α      lambda       -0.1916533E-05
   maximum displ.:     0.0222879 α      in ANC's #2, #1, #4, ...

   *** GEOMETRY OPTIMIZATION CONVERGED AFTER 25 ITERATIONS ***

------------------------------------------------------------------------
 total energy gain   :        -0.0102073 Eh       -6.4052 kcal/mol
 total RMSD          :         0.9960687 a0        0.5271 Å
 total power (kW/mol):        -1.0719663 (step) -140.6476 (real)
------------------------------------------------------------------------

 ANCopt (total)                0 d,  0 h,  0 min,  0.191 sec
 optimizer setup                ...        0 min,  0.000 sec (  0.043%)
 model hessian                  ...        0 min,  0.004 sec (  2.133%)
 ANC generation                 ...        0 min,  0.001 sec (  0.468%)
 coordinate transformation      ...        0 min,  0.000 sec (  0.262%)
 single point calculation       ...        0 min,  0.179 sec ( 93.677%)
 optimization log               ...        0 min,  0.002 sec (  0.825%)
 hessian update                 ...        0 min,  0.001 sec (  0.290%)
 rational function              ...        0 min,  0.002 sec (  1.088%)

================
 final structure:
================
13
 xtb: 6.5.1 (fef0646)
N            0.91879152132802        0.15146224712484       -0.25005999751670
C            2.35749008978991        0.17687032482532        0.06812208247401
C            2.93413988227060        1.59195937743227       -0.03592771600353
C            2.44018390573009        2.46576313395934        0.99519128145712
N            2.04390430661676        3.16371852649781        1.81182385608129
Cl           0.05144443442509       -2.73650120578324       -0.07993963587553
H            0.56854591136902       -0.84500595557641       -0.19471915772879
H            0.73733991551263        0.48456858113049       -1.20063084419946
H            0.37558949436167        0.70566744201049        0.41653062506640
H            2.87442942791351       -0.47881406606471       -0.63180581886078
H            2.49837749078288       -0.22255628035517        1.07261223600219
H            2.70097220755086        2.03762183985623       -1.00565177445733
H            4.02063141234939        1.54850603494371        0.06375486356039

 Bond Distances (Angstroems)
 ---------------------------
N1-C2=1.4737         N1-H7=1.0577         N1-H8=1.0235         N1-H9=1.0230         C2-N1=1.4737         C2-C3=1.5316         
C2-H10=1.0895        C2-H11=1.0901        C3-C2=1.5316         C3-C4=1.4390         C3-H12=1.0924        C3-H13=1.0919        
C4-C3=1.4390         C4-N5=1.1450         N5-C4=1.1450         H7-N1=1.0577         H8-N1=1.0235         H9-N1=1.0230         
H10-C2=1.0895        H11-C2=1.0901        H12-C3=1.0924        H13-C3=1.0919        
 C  H  Rav=1.0910 sigma=0.0012  Rmin=1.0895  Rmax=1.0924     4
 C  C  Rav=1.4853 sigma=0.0463  Rmin=1.4390  Rmax=1.5316     2
 N  H  Rav=1.0347 sigma=0.0162  Rmin=1.0230  Rmax=1.0577     3
 N  C  Rav=1.3094 sigma=0.1643  Rmin=1.1450  Rmax=1.4737     2

 selected bond angles (degree)
 --------------------
H7-N1-C2=109.16                H8-N1-C2=111.59                H8-N1-H7=107.25                H9-N1-C2=111.61                
H9-N1-H7=107.49                H9-N1-H8=109.56                C3-C2-N1=111.64                H10-C2-N1=108.31               
H10-C2-C3=109.50               H11-C2-N1=108.59               H11-C2-C3=110.64               H11-C2-H10=108.07              
C4-C3-C2=112.53                H12-C3-C2=110.91               H12-C3-C4=108.37               H13-C3-C2=109.37               
H13-C3-C4=107.48               H13-C3-H12=108.04              N5-C4-C3=179.72                

 selected dihedral angles (degree)
 ---------------------------------
C3-C2-N1-H7=178.32            C3-C2-N1-H8= 59.95            C3-C2-N1-H9=296.99            H10-C2-N1-H7= 57.69           
H10-C2-N1-H8=299.32           H10-C2-N1-H9=176.36           H11-C2-N1-H7=300.56           H11-C2-N1-H8=182.20           
H11-C2-N1-H9= 59.24           C4-C3-C2-N1= 68.75            C4-C3-C2-H10=188.68           C4-C3-C2-H11=307.69           
H12-C3-C2-N1=307.17           H12-C3-C2-H10= 67.10          H12-C3-C2-H11=186.11          H13-C3-C2-N1=188.11           
H13-C3-C2-H10=308.05          H13-C3-C2-H11= 67.05          N5-C4-C3-C2=253.26            N5-C4-C3-H12= 16.27           
N5-C4-C3-H13=132.80           

 CMA Distance (Angstroems)
 ---------------------------
R(CMA):  4.6535
           -------------------------------------------------
          |                Final Singlepoint                |
           -------------------------------------------------

          ...................................................
          :                      SETUP                      :
          :.................................................:
          :  # basis functions                  37          :
          :  # atomic orbitals                  36          :
          :  # shells                           20          :
          :  # electrons                        36          :
          :  max. iterations                   250          :
          :  Hamiltonian                  GFN2-xTB          :
          :  restarted?                      false          :
          :  GBSA solvation                   true          :
          :  PC potential                    false          :
          :  electronic temp.          300.0000000     K    :
          :  accuracy                    1.0000000          :
          :  -> integral cutoff          0.2500000E+02      :
          :  -> integral neglect         0.1000000E-07      :
          :  -> SCF convergence          0.1000000E-05 Eh   :
          :  -> wf. convergence          0.1000000E-03 e    :
          :  Broyden damping             0.4000000          :
          ...................................................

 iter      E             dE          RMSdq      gap      omega  full diag
   1    -20.6460113 -0.206460E+02  0.543E-05    5.09       0.0  T
   2    -20.6460113 -0.383338E-11  0.361E-05    5.09     767.6  T
   3    -20.6460113 -0.120792E-12  0.257E-05    5.09    1079.5  T

   *** convergence criteria satisfied after 3 iterations ***

         #    Occupation            Energy/Eh            Energy/eV
      -------------------------------------------------------------
         1        2.0000           -1.0100324             -27.4844
       ...           ...                  ...                  ...
        12        2.0000           -0.4744367             -12.9101
        13        2.0000           -0.4684191             -12.7463
        14        2.0000           -0.4594729             -12.5029
        15        2.0000           -0.4288610             -11.6699
        16        2.0000           -0.4066641             -11.0659
        17        2.0000           -0.4030042             -10.9663
        18        2.0000           -0.4028653             -10.9625 (HOMO)
        19                         -0.2158861              -5.8746 (LUMO)
        20                         -0.2084533              -5.6723
        21                         -0.0306564              -0.8342
        22                          0.0755982               2.0571
        23                          0.0845245               2.3000
       ...                                ...                  ...
        36                          1.1299794              30.7483
      -------------------------------------------------------------
                  HL-Gap            0.1869792 Eh            5.0880 eV
             Fermi-level           -0.3093757 Eh           -8.4185 eV

 SCC (total)                   0 d,  0 h,  0 min,  0.004 sec
 SCC setup                      ...        0 min,  0.000 sec (  2.948%)
 Dispersion                     ...        0 min,  0.000 sec (  2.028%)
 classical contributions        ...        0 min,  0.000 sec (  0.707%)
 integral evaluation            ...        0 min,  0.000 sec ( 11.684%)
 iterations                     ...        0 min,  0.002 sec ( 57.008%)
 molecular gradient             ...        0 min,  0.001 sec ( 20.979%)
 printout                       ...        0 min,  0.000 sec (  2.350%)

         :::::::::::::::::::::::::::::::::::::::::::::::::::::
         ::                     SUMMARY                     ::
         :::::::::::::::::::::::::::::::::::::::::::::::::::::
         :: total energy             -20.383230105344 Eh    ::
         :: total w/o Gsasa/hb       -20.371060112981 Eh    ::
         :: gradient norm              0.000258171136 Eh/a0 ::
         :: HOMO-LUMO gap              5.087962865988 eV    ::
         ::.................................................::
         :: SCC energy               -20.646011286400 Eh    ::
         :: -> isotropic ES            0.133342978590 Eh    ::
         :: -> anisotropic ES         -0.028042888776 Eh    ::
         :: -> anisotropic XC          0.012643896590 Eh    ::
         :: -> dispersion             -0.006454274273 Eh    ::
         :: -> Gsolv                  -0.082188552210 Eh    ::
         ::    -> Gelec               -0.070018559846 Eh    ::
         ::    -> Gsasa               -0.005503856884 Eh    ::
         ::    -> Ghb                 -0.007746895178 Eh    ::
         ::    -> Gshift               0.001080759698 Eh    ::
         :: repulsion energy           0.262781580293 Eh    ::
         :: add. restraining           0.000000000000 Eh    ::
         :: total charge               0.000000000000 e     ::
         :::::::::::::::::::::::::::::::::::::::::::::::::::::

           -------------------------------------------------
          |                Property Printout                |
           -------------------------------------------------

    * Orbital Energies and Occupations

         #    Occupation            Energy/Eh            Energy/eV
      -------------------------------------------------------------
         1        2.0000           -1.0100324             -27.4844
       ...           ...                  ...                  ...
         6        2.0000           -0.5822621             -15.8442
         7        2.0000           -0.5716961             -15.5566
         8        2.0000           -0.5632221             -15.3261
         9        2.0000           -0.5368753             -14.6091
        10        2.0000           -0.5169672             -14.0674
        11        2.0000           -0.5020676             -13.6620
        12        2.0000           -0.4744367             -12.9101
        13        2.0000           -0.4684191             -12.7463
        14        2.0000           -0.4594729             -12.5029
        15        2.0000           -0.4288610             -11.6699
        16        2.0000           -0.4066641             -11.0659
        17        2.0000           -0.4030042             -10.9663
        18        2.0000           -0.4028653             -10.9625 (HOMO)
        19                         -0.2158861              -5.8746 (LUMO)
        20                         -0.2084533              -5.6723
        21                         -0.0306564              -0.8342
        22                          0.0755982               2.0571
        23                          0.0845245               2.3000
        24                          0.1031646               2.8073
        25                          0.1108278               3.0158
        26                          0.1130808               3.0771
        27                          0.1133496               3.0844
        28                          0.1155654               3.1447
        29                          0.1155744               3.1449
       ...                                ...                  ...
        36                          1.1299794              30.7483
      -------------------------------------------------------------
                  HL-Gap            0.1869792 Eh            5.0880 eV
             Fermi-level           -0.3093757 Eh           -8.4185 eV

     #   Z          covCN         q      C6AA      α(0)
     1   7 N        3.482    -0.164    24.530     7.356
     2   6 C        3.736    -0.017    20.971     6.535
     3   6 C        3.804    -0.085    22.117     6.695
     4   6 C        1.896     0.128    27.984     8.544
     5   7 N        0.911    -0.291    27.509     7.586
     6  17 Cl       0.079    -0.940   124.601    16.989
     7   1 H        0.935     0.302     0.702     1.310
     8   1 H        0.859     0.302     0.707     1.317
     9   1 H        0.859     0.289     0.747     1.354
    10   1 H        0.925     0.118     1.629     1.996
    11   1 H        0.925     0.106     1.734     2.059
    12   1 H        0.924     0.126     1.565     1.956
    13   1 H        0.924     0.127     1.561     1.954

 Mol. C6AA /au·bohr⁶  :       1893.469965
 Mol. C8AA /au·bohr⁸  :      50472.058824
 Mol. α(0) /au        :         65.651439


Wiberg/Mayer (AO) data.
largest (>0.10) Wiberg bond orders for each atom

 ---------------------------------------------------------------------------
     #   Z sym  total        # sym  WBO       # sym  WBO       # sym  WBO
 ---------------------------------------------------------------------------
     1   7 N    3.645 --     2 C    0.976     9 H    0.901     8 H    0.893
                             7 H    0.816
     2   6 C    3.932 --     3 C    0.984     1 N    0.976    11 H    0.967
                            10 H    0.962
     3   6 C    3.985 --     4 C    1.064     2 C    0.984    12 H    0.929
                            13 H    0.925
     4   6 C    3.940 --     5 N    2.831     3 C    1.064
     5   7 N    2.997 --     4 C    2.831
     6  17 Cl   0.116
     7   1 H    0.909 --     1 N    0.816
     8   1 H    0.909 --     1 N    0.893
     9   1 H    0.916 --     1 N    0.901
    10   1 H    0.986 --     2 C    0.962
    11   1 H    0.989 --     2 C    0.967
    12   1 H    0.984 --     3 C    0.929
    13   1 H    0.984 --     3 C    0.925
 ---------------------------------------------------------------------------

Topologies differ in total number of bonds
Writing topology from bond orders to xtbtopo.mol

molecular dipole:
                 x           y           z       tot (Debye)
 q only:        2.235       4.288      -1.255
   full:        2.030       3.389      -1.480      10.723
molecular quadrupole (traceless):
                xx          xy          yy          xz          yz          zz
 q only:       26.988      -0.592     -35.066      -6.526      -9.793       8.078
  q+dip:       25.058      -0.286     -30.687      -8.120     -12.714       5.629
   full:       25.952       0.430     -30.691      -7.411     -13.729       4.739

           -------------------------------------------------
          |                Geometry Summary                 |
           -------------------------------------------------

      molecular mass/u    :      106.5541370
   center of mass at/Å    :        1.4084063       0.0331659       0.2805059
  moments of inertia/u·Å² :        0.6620260E+02   0.6627827E+03   0.6970334E+03
rotational constants/cm⁻¹ :        0.2546370E+00   0.2543463E-01   0.2418483E-01

 * 10 selected distances

     #   Z          #   Z                                           value/Å
     1   7 N        2   6 C                                       1.4736823
     2   6 C        3   6 C                                       1.5316099 (max)
     4   6 C        5   7 N                                       1.1450189
     1   7 N        7   1 H                                       1.0576784
     1   7 N        8   1 H                                       1.0234596
     1   7 N        9   1 H                                       1.0230128 (min)
     2   6 C       10   1 H                                       1.0895171
     2   6 C       11   1 H                                       1.0901337
     3   6 C       12   1 H                                       1.0924043
     3   6 C       13   1 H                                       1.0919198

 * 4 distinct bonds (by element types)

   Z      Z             #   av. dist./Å        max./Å        min./Å
   1 H    6 C           4     1.0909937     1.0924043     1.0895171
   6 C    6 C           1     1.5316099     1.5316099     1.5316099
   1 H    7 N           3     1.0347169     1.0576784     1.0230128
   6 C    7 N           2     1.3093506     1.4736823     1.1450189


optimized geometry written to: xtbopt.xyz


           -------------------------------------------------
          | TOTAL ENERGY              -20.383230105344 Eh   |
          | GRADIENT NORM               0.000258171136 Eh/α |
          | HOMO-LUMO GAP               5.087962865988 eV   |
           -------------------------------------------------

------------------------------------------------------------------------
 * finished run on 2023/01/24 at 15:22:40.725     
------------------------------------------------------------------------
 total:
 * wall-time:     0 d,  0 h,  0 min,  0.223 sec
 *  cpu-time:     0 d,  0 h,  0 min, 22.907 sec
 * ratio c/w:   102.829 speedup
 SCF:
 * wall-time:     0 d,  0 h,  0 min,  0.014 sec
 *  cpu-time:     0 d,  0 h,  0 min,  2.017 sec
 * ratio c/w:   141.761 speedup
 ANC optimizer:
 * wall-time:     0 d,  0 h,  0 min,  0.195 sec
 *  cpu-time:     0 d,  0 h,  0 min, 19.165 sec
 * ratio c/w:    98.428 speedup

