      -----------------------------------------------------------      
     |                   =====================                   |     
     |                           x T B                           |     
     |                   =====================                   |     
     |                         S. Grimme                         |     
     |          Mulliken Center for Theoretical Chemistry        |     
     |                    University of Bonn                     |     
      -----------------------------------------------------------      

   * xtb version 6.5.1 (fef0646) compiled by 'conda@b96dff2e9fd6' on 2023-01-04

   xtb is free software: you can redistribute it and/or modify it under
   the terms of the GNU Lesser General Public License as published by
   the Free Software Foundation, either version 3 of the License, or
   (at your option) any later version.
   
   xtb is distributed in the hope that it will be useful,
   but WITHOUT ANY WARRANTY; without even the implied warranty of
   MERCHANTABILITY or FITNESS FOR A PARTICULAR PURPOSE.  See the
   GNU Lesser General Public License for more details.
   
   Cite this work as:
   * C. Bannwarth, E. Caldeweyher, S. Ehlert, A. Hansen, P. Pracht,
     J. Seibert, S. Spicher, S. Grimme, WIREs Comput. Mol. Sci., 2020, 11,
     e01493. DOI: 10.1002/wcms.1493
   
   for GFN2-xTB:
   * C. Bannwarth, S. Ehlert and S. Grimme., J. Chem. Theory Comput., 2019,
     15, 1652-1671. DOI: 10.1021/acs.jctc.8b01176
   for GFN1-xTB:
   * S. Grimme, C. Bannwarth, P. Shushkov, J. Chem. Theory Comput., 2017,
     13, 1989-2009. DOI: 10.1021/acs.jctc.7b00118
   for GFN0-xTB:
   * P. Pracht, E. Caldeweyher, S. Ehlert, S. Grimme, ChemRxiv, 2019, preprint.
     DOI: 10.26434/chemrxiv.8326202.v1
   for GFN-FF:
   * S. Spicher and S. Grimme, Angew. Chem. Int. Ed., 2020, 59, 15665-15673.
     DOI: 10.1002/anie.202004239
   
   for ALPB and GBSA implicit solvation:
   * S. Ehlert, M. Stahn, S. Spicher, S. Grimme, J. Chem. Theory Comput.,
     2021, 17, 4250-4261. DOI: 10.1021/acs.jctc.1c00471
   
   for DFT-D4:
   * E. Caldeweyher, C. Bannwarth and S. Grimme, J. Chem. Phys., 2017,
     147, 034112. DOI: 10.1063/1.4993215
   * E. Caldeweyher, S. Ehlert, A. Hansen, H. Neugebauer, S. Spicher,
     C. Bannwarth and S. Grimme, J. Chem. Phys., 2019, 150, 154122.
     DOI: 10.1063/1.5090222
   * E. Caldeweyher, J.-M. Mewes, S. Ehlert and S. Grimme, Phys. Chem. Chem. Phys.
     2020, 22, 8499-8512. DOI: 10.1039/D0CP00502A
   
   for sTDA-xTB:
   * S. Grimme and C. Bannwarth, J. Chem. Phys., 2016, 145, 054103.
     DOI: 10.1063/1.4959605
   
   in the mass-spec context:
   * V. Asgeirsson, C. Bauer and S. Grimme, Chem. Sci., 2017, 8, 4879.
     DOI: 10.1039/c7sc00601b
   * J. Koopman and S. Grimme, ACS Omega 2019, 4, 12, 15120-15133.
     DOI: 10.1021/acsomega.9b02011
   
   for metadynamics refer to:
   * S. Grimme, J. Chem. Theory Comput., 2019, 155, 2847-2862
     DOI: 10.1021/acs.jctc.9b00143
   
   for SPH calculations refer to:
   * S. Spicher and S. Grimme, J. Chem. Theory Comput., 2021, 17, 1701-1714
     DOI: 10.1021/acs.jctc.0c01306
   
   with help from (in alphabetical order)
   P. Atkinson, C. Bannwarth, F. Bohle, G. Brandenburg, E. Caldeweyher
   M. Checinski, S. Dohm, S. Ehlert, S. Ehrlich, I. Gerasimov, C. Hölzer
   A. Katbashev, J. Koopman, C. Lavigne, S. Lehtola, F. März, M. Müller,
   F. Musil, H. Neugebauer, J. Pisarek, C. Plett, P. Pracht, F. Pultar,
   J. Seibert, P. Shushkov, S. Spicher, M. Stahn, M. Steiner, T. Strunk,
   J. Stückrath, T. Rose, and J. Unsleber
   
 * started run on 2023/01/23 at 19:00:24.729     

           -------------------------------------------------
          |                Calculation Setup                |
           -------------------------------------------------

          program call               : xtb init.xyz --opt -c 0 -u 0 -P 16 --input xtb.inp
          hostname                   : gpg-woodward
          coordinate file            : init.xyz
          omp threads                :                    16

   ID    Z sym.   atoms
    1    7 N      1, 5
    2    6 C      2-4
    3   17 Cl     6
    4    1 H      7-13

molecular fragmentation (1/2 indicates fragments):
1111121111111
# atoms in fragment 1/2:    12     1
 fragment masses (1/2) :       71.10       35.45
CMA distance (Bohr)    :   7.675
constraining FC (au)   :  0.0500

           -------------------------------------------------
          |                 G F N 2 - x T B                 |
           -------------------------------------------------

        Reference                      10.1021/acs.jctc.8b01176
      * Hamiltonian:
        H0-scaling (s, p, d)           1.850000    2.230000    2.230000
        zeta-weighting                 0.500000
      * Dispersion:
        s8                             2.700000
        a1                             0.520000
        a2                             5.000000
        s9                             5.000000
      * Repulsion:
        kExp                           1.500000    1.000000
        rExp                           1.000000
      * Coulomb:
        alpha                          2.000000
        third order                    shell-resolved
        anisotropic                    true
        a3                             3.000000
        a5                             4.000000
        cn-shift                       1.200000
        cn-exp                         4.000000
        max-rad                        5.000000


          ...................................................
          :                      SETUP                      :
          :.................................................:
          :  # basis functions                  37          :
          :  # atomic orbitals                  36          :
          :  # shells                           20          :
          :  # electrons                        36          :
          :  max. iterations                   250          :
          :  Hamiltonian                  GFN2-xTB          :
          :  restarted?                      false          :
          :  GBSA solvation                  false          :
          :  PC potential                    false          :
          :  electronic temp.          300.0000000     K    :
          :  accuracy                    1.0000000          :
          :  -> integral cutoff          0.2500000E+02      :
          :  -> integral neglect         0.1000000E-07      :
          :  -> SCF convergence          0.1000000E-05 Eh   :
          :  -> wf. convergence          0.1000000E-03 e    :
          :  Broyden damping             0.4000000          :
          ...................................................

 iter      E             dE          RMSdq      gap      omega  full diag
   1    -20.3574941 -0.203575E+02  0.616E+00    5.40       0.0  T
   2    -20.4310601 -0.735660E-01  0.398E+00    4.15       1.0  T
   3    -20.3743903  0.566698E-01  0.340E+00    2.84       1.0  T
   4    -20.4639161 -0.895258E-01  0.159E+00    2.30       1.0  T
   5    -20.4786894 -0.147733E-01  0.452E-01    1.85       1.0  T
   6    -20.4794076 -0.718208E-03  0.238E-01    2.00       1.0  T
   7    -20.4795556 -0.148056E-03  0.165E-01    2.01       1.0  T
   8    -20.4797047 -0.149087E-03  0.599E-02    1.98       1.0  T
   9    -20.4797243 -0.195578E-04  0.216E-02    1.98       1.3  T
  10    -20.4797274 -0.309151E-05  0.385E-03    1.98       7.2  T
  11    -20.4797274 -0.178859E-07  0.168E-03    1.98      16.5  T
  12    -20.4797274 -0.139674E-07  0.620E-04    1.98      44.7  T
  13    -20.4797274 -0.136314E-08  0.361E-04    1.98      76.8  T

   *** convergence criteria satisfied after 13 iterations ***

         #    Occupation            Energy/Eh            Energy/eV
      -------------------------------------------------------------
         1        2.0000           -0.9664474             -26.2984
       ...           ...                  ...                  ...
        12        2.0000           -0.5151975             -14.0192
        13        2.0000           -0.4823423             -13.1252
        14        2.0000           -0.4752742             -12.9329
        15        2.0000           -0.4604111             -12.5284
        16        2.0000           -0.3655819              -9.9480
        17        2.0000           -0.3539007              -9.6301
        18        2.0000           -0.3534297              -9.6173 (HOMO)
        19                         -0.2807129              -7.6386 (LUMO)
        20                         -0.2757284              -7.5030
        21                         -0.1141137              -3.1052
        22                         -0.0242058              -0.6587
        23                          0.0363287               0.9886
       ...                                ...                  ...
        36                          0.6109177              16.6239
      -------------------------------------------------------------
                  HL-Gap            0.0727169 Eh            1.9787 eV
             Fermi-level           -0.3170713 Eh           -8.6279 eV

 SCC (total)                   0 d,  0 h,  0 min,  0.049 sec
 SCC setup                      ...        0 min,  0.001 sec (  1.330%)
 Dispersion                     ...        0 min,  0.005 sec (  9.710%)
 classical contributions        ...        0 min,  0.000 sec (  0.577%)
 integral evaluation            ...        0 min,  0.002 sec (  4.351%)
 iterations                     ...        0 min,  0.038 sec ( 76.526%)
 molecular gradient             ...        0 min,  0.003 sec (  6.873%)
 printout                       ...        0 min,  0.000 sec (  0.323%)

         :::::::::::::::::::::::::::::::::::::::::::::::::::::
         ::                     SUMMARY                     ::
         :::::::::::::::::::::::::::::::::::::::::::::::::::::
         :: total energy             -20.285660008856 Eh    ::
         :: gradient norm              0.271778908951 Eh/a0 ::
         :: HOMO-LUMO gap              1.978726937614 eV    ::
         ::.................................................::
         :: SCC energy               -20.479727408403 Eh    ::
         :: -> isotropic ES            0.095838686917 Eh    ::
         :: -> anisotropic ES         -0.023534849793 Eh    ::
         :: -> anisotropic XC          0.012856620554 Eh    ::
         :: -> dispersion             -0.006716974288 Eh    ::
         :: repulsion energy           0.194059536928 Eh    ::
         :: add. restraining           0.000000000000 Eh    ::
         :: total charge               0.000000000000 e     ::
         :::::::::::::::::::::::::::::::::::::::::::::::::::::

      ----------------------------------------------------------- 
     |                   =====================                   |
     |                        A N C O P T                        |
     |                   =====================                   |
     |               Approximate Normal Coordinate               |
     |                Rational Function Optimizer                |
      ----------------------------------------------------------- 

          ...................................................
          :                      SETUP                      :
          :.................................................:
          :   optimization level            normal          :
          :   max. optcycles                   200          :
          :   ANC micro-cycles                  20          :
          :   degrees of freedom                33          :
          :.................................................:
          :   RF solver                   davidson          :
          :   write xtbopt.log                true          :
          :   linear?                        false          :
          :   energy convergence         0.5000000E-05 Eh   :
          :   grad. convergence          0.1000000E-02 Eh/α :
          :   maximium RF displ.         1.0000000          :
          :   Hlow (freq-cutoff)         0.1000000E-01      :
          :   Hmax (freq-cutoff)         5.0000000          :
          :   S6 in model hess.         20.0000000          :
          ...................................................

generating ANC from model Hessian ...
Using Lindh-Hessian (1995)
 Shifting diagonal of input Hessian by    9.4174940691584118E-003
 Lowest  eigenvalues of input Hessian
    0.000000    0.000000    0.000000    0.000000    0.000000    0.000000
    0.010000    0.010830    0.012281    0.016659    0.021720    0.024200
    0.034748    0.051517    0.055728    0.070316    0.072703    0.082103
 Highest eigenvalues
    1.141322    1.208520    1.270402    1.430300    1.531738    1.962918


........................................................................
.............................. CYCLE    1 ..............................
........................................................................
   1    -20.4797274 -0.204797E+02  0.169E-04    1.98       0.0  T
   2    -20.4797274 -0.322977E-10  0.128E-04    1.98     216.1  T
   3    -20.4797274  0.244924E-10  0.987E-05    1.98     281.0  T
     SCC iter.                  ...        0 min,  0.005 sec
     gradient                   ...        0 min,  0.003 sec
 * total energy  :   -20.2856600 Eh     change       -0.8456169E-09 Eh
   gradient norm :     0.2717773 Eh/α   predicted     0.0000000E+00 (-100.00%)
   displ. norm   :     0.3133870 α      lambda       -0.5927841E-01
   maximum displ.:     0.1221674 α      in ANC's #16, #33, #26, ...

........................................................................
.............................. CYCLE    2 ..............................
........................................................................
   1    -20.5776703 -0.205777E+02  0.612E-01    3.37       0.0  T
   2    -20.5779811 -0.310835E-03  0.393E-01    3.33       1.0  T
   3    -20.5778346  0.146495E-03  0.278E-01    3.39       1.0  T
   4    -20.5783135 -0.478869E-03  0.541E-02    3.40       1.0  T
   5    -20.5783267 -0.132176E-04  0.257E-02    3.41       1.1  T
   6    -20.5783280 -0.130360E-05  0.179E-02    3.41       1.6  T
   7    -20.5783294 -0.137134E-05  0.874E-03    3.41       3.2  T
   8    -20.5783297 -0.360329E-06  0.405E-03    3.41       6.8  T
   9    -20.5783298 -0.748505E-07  0.137E-03    3.41      20.3  T
  10    -20.5783298 -0.650673E-08  0.165E-04    3.41     168.6  T
  11    -20.5783298 -0.496385E-10  0.628E-05    3.41     441.7  T
     SCC iter.                  ...        0 min,  0.030 sec
     gradient                   ...        0 min,  0.004 sec
 * total energy  :   -20.3210884 Eh     change       -0.3542839E-01 Eh
   gradient norm :     0.0575490 Eh/α   predicted    -0.3255011E-01 (  -8.12%)
   displ. norm   :     0.2219176 α      lambda       -0.5776581E-02
   maximum displ.:     0.1060773 α      in ANC's #3, #7, #20, ...

........................................................................
.............................. CYCLE    3 ..............................
........................................................................
   1    -20.5854103 -0.205854E+02  0.293E-01    3.52       0.0  T
   2    -20.5855118 -0.101479E-03  0.188E-01    3.60       1.0  T
   3    -20.5854717  0.400715E-04  0.121E-01    3.68       1.0  T
   4    -20.5855769 -0.105202E-03  0.387E-02    3.71       1.0  T
   5    -20.5855826 -0.568151E-05  0.202E-02    3.72       1.4  T
   6    -20.5855838 -0.123955E-05  0.131E-02    3.71       2.1  T
   7    -20.5855846 -0.759846E-06  0.741E-03    3.71       3.7  T
   8    -20.5855849 -0.318200E-06  0.127E-03    3.71      21.9  T
   9    -20.5855849 -0.473959E-08  0.247E-04    3.71     112.4  T
  10    -20.5855849 -0.752998E-10  0.143E-04    3.71     193.4  T
     SCC iter.                  ...        0 min,  0.009 sec
     gradient                   ...        0 min,  0.002 sec
 * total energy  :   -20.3253952 Eh     change       -0.4306770E-02 Eh
   gradient norm :     0.0431808 Eh/α   predicted    -0.3030530E-02 ( -29.63%)
   displ. norm   :     0.3473344 α      lambda       -0.6133030E-02
   maximum displ.:     0.1675721 α      in ANC's #2, #5, #20, ...

........................................................................
.............................. CYCLE    4 ..............................
........................................................................
   1    -20.5874606 -0.205875E+02  0.476E-01    3.71       0.0  T
   2    -20.5877122 -0.251585E-03  0.278E-01    3.85       1.0  T
   3    -20.5875760  0.136178E-03  0.153E-01    4.01       1.0  T
   4    -20.5877719 -0.195868E-03  0.550E-02    4.03       1.0  T
   5    -20.5877892 -0.172971E-04  0.239E-02    4.04       1.2  T
   6    -20.5877907 -0.151286E-05  0.161E-02    4.03       1.7  T
   7    -20.5877918 -0.108345E-05  0.983E-03    4.03       2.8  T
   8    -20.5877924 -0.592977E-06  0.214E-03    4.03      12.9  T
   9    -20.5877924 -0.163103E-07  0.741E-04    4.03      37.4  T
  10    -20.5877924 -0.131923E-08  0.512E-04    4.03      54.2  T
     SCC iter.                  ...        0 min,  0.008 sec
     gradient                   ...        0 min,  0.002 sec
 * total energy  :   -20.3289077 Eh     change       -0.3512496E-02 Eh
   gradient norm :     0.0375340 Eh/α   predicted    -0.3436469E-02 (  -2.16%)
   displ. norm   :     0.4148128 α      lambda       -0.6079708E-02
   maximum displ.:     0.2810875 α      in ANC's #3, #1, #20, ...

........................................................................
.............................. CYCLE    5 ..............................
........................................................................
   1    -20.5855004 -0.205855E+02  0.782E-01    4.08       0.0  T
   2    -20.5860601 -0.559701E-03  0.435E-01    4.26       1.0  T
   3    -20.5861281 -0.679945E-04  0.919E-02    4.47       1.0  T
   4    -20.5861332 -0.509030E-05  0.590E-02    4.49       1.0  T
   5    -20.5861530 -0.198144E-04  0.377E-02    4.49       1.0  T
   6    -20.5861579 -0.494104E-05  0.266E-02    4.49       1.0  T
   7    -20.5861617 -0.377243E-05  0.144E-02    4.48       1.9  T
   8    -20.5861631 -0.138944E-05  0.367E-03    4.48       7.6  T
   9    -20.5861632 -0.452258E-07  0.182E-03    4.48      15.2  T
  10    -20.5861632 -0.109233E-07  0.800E-04    4.48      34.7  T
  11    -20.5861632 -0.225197E-08  0.382E-04    4.48      72.6  T
     SCC iter.                  ...        0 min,  0.009 sec
     gradient                   ...        0 min,  0.003 sec
 * total energy  :   -20.3317614 Eh     change       -0.2853772E-02 Eh
   gradient norm :     0.0546007 Eh/α   predicted    -0.3562925E-02 (  24.85%)
   displ. norm   :     0.2486242 α      lambda       -0.4522329E-02
   maximum displ.:     0.1518659 α      in ANC's #2, #20, #5, ...

........................................................................
.............................. CYCLE    6 ..............................
........................................................................
   1    -20.5970805 -0.205971E+02  0.442E-01    4.74       0.0  T
   2    -20.5974521 -0.371524E-03  0.253E-01    4.86       1.0  T
   3    -20.5974623 -0.102517E-04  0.106E-01    4.98       1.0  T
   4    -20.5974779 -0.155659E-04  0.806E-02    5.03       1.0  T
   5    -20.5975212 -0.433382E-04  0.417E-02    5.04       1.0  T
   6    -20.5975287 -0.743078E-05  0.266E-02    5.04       1.0  T
   7    -20.5975336 -0.496807E-05  0.121E-02    5.03       2.3  T
   8    -20.5975346 -0.952089E-06  0.249E-03    5.03      11.1  T
   9    -20.5975346 -0.214001E-07  0.153E-03    5.03      18.1  T
  10    -20.5975346 -0.633058E-08  0.793E-04    5.03      35.0  T
  11    -20.5975346 -0.258942E-08  0.323E-04    5.03      85.8  T
     SCC iter.                  ...        0 min,  0.007 sec
     gradient                   ...        0 min,  0.001 sec
 * total energy  :   -20.3343986 Eh     change       -0.2637123E-02 Eh
   gradient norm :     0.0307094 Eh/α   predicted    -0.2400939E-02 (  -8.96%)
   displ. norm   :     0.2426920 α      lambda       -0.3090725E-02
   maximum displ.:     0.1138800 α      in ANC's #2, #8, #1, ...

........................................................................
.............................. CYCLE    7 ..............................
........................................................................
   1    -20.5929287 -0.205929E+02  0.273E-01    4.97       0.0  T
   2    -20.5930244 -0.956904E-04  0.166E-01    5.01       1.0  T
   3    -20.5929770  0.473969E-04  0.102E-01    5.04       1.0  T
   4    -20.5930548 -0.777764E-04  0.376E-02    5.06       1.0  T
   5    -20.5930615 -0.667277E-05  0.165E-02    5.07       1.7  T
   6    -20.5930624 -0.951185E-06  0.107E-02    5.07       2.6  T
   7    -20.5930630 -0.536837E-06  0.610E-03    5.06       4.5  T
   8    -20.5930632 -0.252359E-06  0.160E-03    5.06      17.4  T
   9    -20.5930632 -0.910391E-08  0.109E-03    5.06      25.5  T
  10    -20.5930632 -0.572809E-08  0.691E-04    5.06      40.1  T
  11    -20.5930632 -0.276212E-08  0.208E-04    5.06     133.1  T
     SCC iter.                  ...        0 min,  0.006 sec
     gradient                   ...        0 min,  0.001 sec
 * total energy  :   -20.3359004 Eh     change       -0.1501829E-02 Eh
   gradient norm :     0.0190871 Eh/α   predicted    -0.1636385E-02 (   8.96%)
   displ. norm   :     0.1410621 α      lambda       -0.1233427E-02
   maximum displ.:     0.0693394 α      in ANC's #20, #23, #30, ...

........................................................................
.............................. CYCLE    8 ..............................
........................................................................
   1    -20.5901999 -0.205902E+02  0.225E-01    5.04       0.0  T
   2    -20.5903281 -0.128181E-03  0.128E-01    5.14       1.0  T
   3    -20.5903400 -0.119009E-04  0.673E-02    5.22       1.0  T
   4    -20.5903399  0.849815E-07  0.524E-02    5.25       1.0  T
   5    -20.5903572 -0.173105E-04  0.316E-02    5.26       1.0  T
   6    -20.5903628 -0.554618E-05  0.177E-02    5.26       1.6  T
   7    -20.5903652 -0.244099E-05  0.791E-03    5.26       3.5  T
   8    -20.5903656 -0.415679E-06  0.174E-03    5.26      16.0  T
   9    -20.5903656 -0.902610E-08  0.883E-04    5.26      31.4  T
  10    -20.5903656 -0.222501E-08  0.535E-04    5.26      51.8  T
     SCC iter.                  ...        0 min,  0.006 sec
     gradient                   ...        0 min,  0.001 sec
 * total energy  :   -20.3362893 Eh     change       -0.3889395E-03 Eh
   gradient norm :     0.0152488 Eh/α   predicted    -0.6289862E-03 (  61.72%)
   displ. norm   :     0.0717178 α      lambda       -0.5328025E-03
   maximum displ.:     0.0346814 α      in ANC's #5, #1, #9, ...

........................................................................
.............................. CYCLE    9 ..............................
........................................................................
   1    -20.5935161 -0.205935E+02  0.821E-02    5.29       0.0  T
   2    -20.5935206 -0.444216E-05  0.537E-02    5.27       1.0  T
   3    -20.5935149  0.563780E-05  0.372E-02    5.26       1.0  T
   4    -20.5935260 -0.110974E-04  0.127E-02    5.25       2.2  T
   5    -20.5935266 -0.529794E-06  0.915E-03    5.25       3.0  T
   6    -20.5935271 -0.535403E-06  0.491E-03    5.25       5.7  T
   7    -20.5935273 -0.159422E-06  0.194E-03    5.25      14.3  T
   8    -20.5935273 -0.229171E-07  0.616E-04    5.25      45.0  T
   9    -20.5935273 -0.128365E-08  0.322E-04    5.25      86.2  T
     SCC iter.                  ...        0 min,  0.005 sec
     gradient                   ...        0 min,  0.001 sec
 * total energy  :   -20.3365872 Eh     change       -0.2978810E-03 Eh
   gradient norm :     0.0034360 Eh/α   predicted    -0.2677718E-03 ( -10.11%)
   displ. norm   :     0.0442833 α      lambda       -0.5839524E-04
   maximum displ.:     0.0197340 α      in ANC's #3, #5, #9, ...

........................................................................
.............................. CYCLE   10 ..............................
........................................................................
   1    -20.5933503 -0.205934E+02  0.325E-02    5.25       0.0  T
   2    -20.5933512 -0.886767E-06  0.191E-02    5.25       1.5  T
   3    -20.5933512 -0.688749E-08  0.555E-03    5.26       5.0  T
   4    -20.5933512 -0.440824E-07  0.420E-03    5.26       6.6  T
   5    -20.5933514 -0.129550E-06  0.190E-03    5.26      14.6  T
   6    -20.5933514 -0.873822E-08  0.123E-03    5.26      22.5  T
   7    -20.5933514 -0.574794E-08  0.715E-04    5.26      38.8  T
   8    -20.5933514 -0.237568E-08  0.162E-04    5.26     171.6  T
     SCC iter.                  ...        0 min,  0.005 sec
     gradient                   ...        0 min,  0.001 sec
 * total energy  :   -20.3366258 Eh     change       -0.3856947E-04 Eh
   gradient norm :     0.0015958 Eh/α   predicted    -0.2925542E-04 ( -24.15%)
   displ. norm   :     0.0489673 α      lambda       -0.1860868E-04
   maximum displ.:     0.0231536 α      in ANC's #3, #4, #1, ...

........................................................................
.............................. CYCLE   11 ..............................
........................................................................
   1    -20.5929891 -0.205930E+02  0.346E-02    5.26       0.0  T
   2    -20.5929898 -0.749790E-06  0.199E-02    5.26       1.4  T
   3    -20.5929894  0.393887E-06  0.877E-03    5.27       3.2  T
   4    -20.5929900 -0.591789E-06  0.384E-03    5.27       7.2  T
   5    -20.5929901 -0.754287E-07  0.221E-03    5.27      12.5  T
   6    -20.5929901 -0.168908E-07  0.147E-03    5.27      18.8  T
   7    -20.5929901 -0.124808E-07  0.842E-04    5.27      32.9  T
   8    -20.5929901 -0.494868E-08  0.233E-04    5.27     118.8  T
     SCC iter.                  ...        0 min,  0.005 sec
     gradient                   ...        0 min,  0.001 sec
 * total energy  :   -20.3366395 Eh     change       -0.1374101E-04 Eh
   gradient norm :     0.0012469 Eh/α   predicted    -0.9313843E-05 ( -32.22%)
   displ. norm   :     0.0196354 α      lambda       -0.5548334E-05
   maximum displ.:     0.0124589 α      in ANC's #1, #3, #4, ...

........................................................................
.............................. CYCLE   12 ..............................
........................................................................
   1    -20.5930650 -0.205931E+02  0.112E-02    5.27       0.0  T
   2    -20.5930650 -0.342103E-07  0.656E-03    5.27       4.2  T
   3    -20.5930649  0.108370E-06  0.359E-03    5.27       7.7  T
   4    -20.5930651 -0.137258E-06  0.840E-04    5.27      33.0  T
   5    -20.5930651 -0.215176E-08  0.564E-04    5.27      49.2  T
     SCC iter.                  ...        0 min,  0.003 sec
     gradient                   ...        0 min,  0.001 sec
 * total energy  :   -20.3366464 Eh     change       -0.6866928E-05 Eh
   gradient norm :     0.0007459 Eh/α   predicted    -0.2775858E-05 ( -59.58%)
   displ. norm   :     0.0609252 α      lambda       -0.1106231E-04
   maximum displ.:     0.0396677 α      in ANC's #1, #3, #4, ...

........................................................................
.............................. CYCLE   13 ..............................
........................................................................
   1    -20.5930893 -0.205931E+02  0.284E-02    5.26       0.0  T
   2    -20.5930895 -0.242324E-06  0.161E-02    5.26       1.7  T
   3    -20.5930893  0.224311E-06  0.563E-03    5.26       4.9  T
   4    -20.5930896 -0.311371E-06  0.190E-03    5.26      14.6  T
   5    -20.5930896 -0.162294E-07  0.113E-03    5.26      24.5  T
   6    -20.5930896 -0.362045E-08  0.747E-04    5.26      37.1  T
   7    -20.5930896 -0.255419E-08  0.356E-04    5.26      77.8  T
     SCC iter.                  ...        0 min,  0.004 sec
     gradient                   ...        0 min,  0.001 sec
 * total energy  :   -20.3366561 Eh     change       -0.9758971E-05 Eh
   gradient norm :     0.0006222 Eh/α   predicted    -0.5540786E-05 ( -43.22%)
   displ. norm   :     0.0195765 α      lambda       -0.1778538E-05
   maximum displ.:     0.0119406 α      in ANC's #1, #4, #3, ...

........................................................................
.............................. CYCLE   14 ..............................
........................................................................
   1    -20.5932738 -0.205933E+02  0.736E-03    5.26       0.0  T
   2    -20.5932738 -0.745584E-07  0.410E-03    5.26       6.8  T
   3    -20.5932738 -0.433849E-08  0.163E-03    5.26      17.0  T
   4    -20.5932738 -0.400785E-09  0.116E-03    5.26      24.0  T
   5    -20.5932738 -0.881716E-08  0.680E-04    5.26      40.8  T
   6    -20.5932738 -0.177766E-08  0.466E-04    5.26      59.5  T
     SCC iter.                  ...        0 min,  0.003 sec
     gradient                   ...        0 min,  0.001 sec
 * total energy  :   -20.3366577 Eh     change       -0.1594423E-05 Eh
   gradient norm :     0.0006511 Eh/α   predicted    -0.8906130E-06 ( -44.14%)
   displ. norm   :     0.0103801 α      lambda       -0.6984728E-06
   maximum displ.:     0.0064603 α      in ANC's #1, #4, #3, ...

   *** GEOMETRY OPTIMIZATION CONVERGED AFTER 14 ITERATIONS ***

------------------------------------------------------------------------
 total energy gain   :        -0.0509977 Eh      -32.0016 kcal/mol
 total RMSD          :         0.3632239 a0        0.1922 Å
 total power (kW/mol):        -9.5638949 (step) -821.5044 (real)
------------------------------------------------------------------------

 ANCopt (total)                0 d,  0 h,  0 min,  0.163 sec
 optimizer setup                ...        0 min,  0.000 sec (  0.070%)
 model hessian                  ...        0 min,  0.006 sec (  3.871%)
 ANC generation                 ...        0 min,  0.001 sec (  0.462%)
 coordinate transformation      ...        0 min,  0.000 sec (  0.100%)
 single point calculation       ...        0 min,  0.151 sec ( 92.817%)
 optimization log               ...        0 min,  0.001 sec (  0.661%)
 hessian update                 ...        0 min,  0.001 sec (  0.551%)
 rational function              ...        0 min,  0.001 sec (  0.839%)

================
 final structure:
================
13
 xtb: 6.5.1 (fef0646)
N            0.96286511437874       -0.31306052862868       -0.07928653761160
C            2.41949903238524       -0.21014512885348       -0.07370899340064
C            2.88248134230182        0.35952663063582        1.27306753886622
C            4.31538746412535        0.49722053151392        1.30643047567327
N            5.45379001325278        0.59151393785865        1.32234753814844
Cl          -0.15037323799543        2.31239218412177        0.69557333660783
H            0.61851979356872       -0.57985674783763       -0.99432291370014
H            0.34081590049501        1.10010393283960        0.31907114273305
H            0.64339132352748       -0.99613810550831        0.60001127752842
H            2.71025766265981        0.47373306433840       -0.87455111845329
H            2.91153473279224       -1.17701799933852       -0.25317437914510
H            2.57782734391283       -0.30093026594096        2.08996971309874
H            2.42521351459539        1.33916849479957        1.43098291965457

 Bond Distances (Angstroems)
 ---------------------------
N1-C2=1.4603         N1-H7=1.0134         N1-H9=1.0149         C2-N1=1.4603         C2-C3=1.5338         C2-H10=1.0925        
C2-H11=1.0996        C3-C2=1.5338         C3-C4=1.4399         C3-H12=1.0938        C3-H13=1.0926        C4-C3=1.4399         
C4-N5=1.1424         N5-C4=1.1424         Cl6-H8=1.3611        H7-N1=1.0134         H8-Cl6=1.3611        H9-N1=1.0149         
H10-C2=1.0925        H11-C2=1.0996        H12-C3=1.0938        H13-C3=1.0926        
 C  H  Rav=1.0946 sigma=0.0029  Rmin=1.0925  Rmax=1.0996     4
 C  C  Rav=1.4869 sigma=0.0470  Rmin=1.4399  Rmax=1.5338     2
 N  H  Rav=1.0142 sigma=0.0008  Rmin=1.0134  Rmax=1.0149     2
 N  C  Rav=1.3013 sigma=0.1589  Rmin=1.1424  Rmax=1.4603     2
 Cl H  Rav=1.3611 sigma=0.0000  Rmin=1.3611  Rmax=1.3611     1

 selected bond angles (degree)
 --------------------
H7-N1-C2=111.16                H9-N1-C2=111.03                H9-N1-H7=108.67                C3-C2-N1=109.31                
H10-C2-N1=107.87               H10-C2-C3=109.32               H11-C2-N1=112.57               H11-C2-C3=109.56               
H11-C2-H10=108.16              C4-C3-C2=110.87                H12-C3-C2=110.33               H12-C3-C4=108.52               
H13-C3-C2=109.49               H13-C3-C4=109.11               H13-C3-H12=108.48              N5-C4-C3=179.08                

 selected dihedral angles (degree)
 ---------------------------------
C3-C2-N1-H7=173.11            C3-C2-N1-H9=294.22            H10-C2-N1-H7= 54.35           H10-C2-N1-H9=175.45           
H11-C2-N1-H7=295.10           H11-C2-N1-H9= 56.21           C4-C3-C2-N1=181.00            C4-C3-C2-H10=298.86           
C4-C3-C2-H11= 57.22           H12-C3-C2-N1= 60.75           H12-C3-C2-H10=178.61          H12-C3-C2-H11=296.97          
H13-C3-C2-N1=301.44           H13-C3-C2-H10= 59.29          H13-C3-C2-H11=177.66          N5-C4-C3-C2=326.46            
N5-C4-C3-H12= 87.78           N5-C4-C3-H13=205.80           

 CMA Distance (Angstroems)
 ---------------------------
R(CMA):  3.8657
           -------------------------------------------------
          |                Final Singlepoint                |
           -------------------------------------------------

          ...................................................
          :                      SETUP                      :
          :.................................................:
          :  # basis functions                  37          :
          :  # atomic orbitals                  36          :
          :  # shells                           20          :
          :  # electrons                        36          :
          :  max. iterations                   250          :
          :  Hamiltonian                  GFN2-xTB          :
          :  restarted?                      false          :
          :  GBSA solvation                  false          :
          :  PC potential                    false          :
          :  electronic temp.          300.0000000     K    :
          :  accuracy                    1.0000000          :
          :  -> integral cutoff          0.2500000E+02      :
          :  -> integral neglect         0.1000000E-07      :
          :  -> SCF convergence          0.1000000E-05 Eh   :
          :  -> wf. convergence          0.1000000E-03 e    :
          :  Broyden damping             0.4000000          :
          ...................................................

 iter      E             dE          RMSdq      gap      omega  full diag
   1    -20.5932739 -0.205933E+02  0.197E-04    5.26       0.0  T
   2    -20.5932739 -0.728733E-10  0.160E-04    5.26     173.8  T
   3    -20.5932739 -0.110699E-09  0.114E-04    5.26     242.5  T

   *** convergence criteria satisfied after 3 iterations ***

         #    Occupation            Energy/Eh            Energy/eV
      -------------------------------------------------------------
         1        2.0000           -1.0331433             -28.1133
       ...           ...                  ...                  ...
        12        2.0000           -0.4942933             -13.4504
        13        2.0000           -0.4749427             -12.9238
        14        2.0000           -0.4666335             -12.6977
        15        2.0000           -0.4344411             -11.8217
        16        2.0000           -0.4172016             -11.3526
        17        2.0000           -0.4097689             -11.1504
        18        2.0000           -0.4096208             -11.1464 (HOMO)
        19                         -0.2161737              -5.8824 (LUMO)
        20                         -0.2100001              -5.7144
        21                         -0.0707795              -1.9260
        22                          0.0024699               0.0672
        23                          0.0498994               1.3578
       ...                                ...                  ...
        36                          1.1404523              31.0333
      -------------------------------------------------------------
                  HL-Gap            0.1934471 Eh            5.2640 eV
             Fermi-level           -0.3128973 Eh           -8.5144 eV

 SCC (total)                   0 d,  0 h,  0 min,  0.004 sec
 SCC setup                      ...        0 min,  0.000 sec (  2.519%)
 Dispersion                     ...        0 min,  0.000 sec (  2.035%)
 classical contributions        ...        0 min,  0.000 sec (  0.861%)
 integral evaluation            ...        0 min,  0.001 sec ( 14.446%)
 iterations                     ...        0 min,  0.002 sec ( 44.478%)
 molecular gradient             ...        0 min,  0.001 sec ( 31.532%)
 printout                       ...        0 min,  0.000 sec (  2.739%)

         :::::::::::::::::::::::::::::::::::::::::::::::::::::
         ::                     SUMMARY                     ::
         :::::::::::::::::::::::::::::::::::::::::::::::::::::
         :: total energy             -20.336657743147 Eh    ::
         :: gradient norm              0.000650749748 Eh/a0 ::
         :: HOMO-LUMO gap              5.263964802421 eV    ::
         ::.................................................::
         :: SCC energy               -20.593273851445 Eh    ::
         :: -> isotropic ES            0.035496247697 Eh    ::
         :: -> anisotropic ES         -0.007127574681 Eh    ::
         :: -> anisotropic XC          0.018768378425 Eh    ::
         :: -> dispersion             -0.007277678554 Eh    ::
         :: repulsion energy           0.256602228392 Eh    ::
         :: add. restraining           0.000000000000 Eh    ::
         :: total charge              -0.000000000000 e     ::
         :::::::::::::::::::::::::::::::::::::::::::::::::::::

           -------------------------------------------------
          |                Property Printout                |
           -------------------------------------------------

    * Orbital Energies and Occupations

         #    Occupation            Energy/Eh            Energy/eV
      -------------------------------------------------------------
         1        2.0000           -1.0331433             -28.1133
       ...           ...                  ...                  ...
         6        2.0000           -0.5825033             -15.8507
         7        2.0000           -0.5735991             -15.6084
         8        2.0000           -0.5501016             -14.9690
         9        2.0000           -0.5330463             -14.5049
        10        2.0000           -0.5236673             -14.2497
        11        2.0000           -0.5088838             -13.8474
        12        2.0000           -0.4942933             -13.4504
        13        2.0000           -0.4749427             -12.9238
        14        2.0000           -0.4666335             -12.6977
        15        2.0000           -0.4344411             -11.8217
        16        2.0000           -0.4172016             -11.3526
        17        2.0000           -0.4097689             -11.1504
        18        2.0000           -0.4096208             -11.1464 (HOMO)
        19                         -0.2161737              -5.8824 (LUMO)
        20                         -0.2100001              -5.7144
        21                         -0.0707795              -1.9260
        22                          0.0024699               0.0672
        23                          0.0498994               1.3578
        24                          0.0507541               1.3811
        25                          0.0558211               1.5190
        26                          0.0562539               1.5307
        27                          0.0762529               2.0749
        28                          0.0841143               2.2889
        29                          0.1078642               2.9351
       ...                                ...                  ...
        36                          1.1404523              31.0333
      -------------------------------------------------------------
                  HL-Gap            0.1934471 Eh            5.2640 eV
             Fermi-level           -0.3128973 Eh           -8.5144 eV

     #   Z          covCN         q      C6AA      α(0)
     1   7 N        2.668    -0.310    27.982     7.856
     2   6 C        3.737     0.017    20.362     6.439
     3   6 C        3.805    -0.071    21.853     6.655
     4   6 C        1.898     0.115    28.268     8.587
     5   7 N        0.911    -0.228    25.992     7.374
     6  17 Cl       0.839    -0.470   114.598    16.377
     7   1 H        0.860     0.169     1.277     1.771
     8   1 H        0.876     0.335     0.616     1.229
     9   1 H        0.860     0.169     1.280     1.772
    10   1 H        0.924     0.061     2.193     2.316
    11   1 H        0.923     0.034     2.529     2.487
    12   1 H        0.924     0.076     2.020     2.223
    13   1 H        0.924     0.103     1.761     2.076

 Mol. C6AA /au·bohr⁶  :       1971.791802
 Mol. C8AA /au·bohr⁸  :      51299.225753
 Mol. α(0) /au        :         67.160075


Wiberg/Mayer (AO) data.
largest (>0.10) Wiberg bond orders for each atom

 ---------------------------------------------------------------------------
     #   Z sym  total        # sym  WBO       # sym  WBO       # sym  WBO
 ---------------------------------------------------------------------------
     1   7 N    3.216 --     2 C    1.011     9 H    0.958     7 H    0.957
                             8 H    0.184
     2   6 C    3.976 --     1 N    1.011     3 C    0.979    10 H    0.975
                            11 H    0.973
     3   6 C    3.993 --     4 C    1.055     2 C    0.979    12 H    0.944
                            13 H    0.936
     4   6 C    3.948 --     5 N    2.854     3 C    1.055
     5   7 N    3.009 --     4 C    2.854
     6  17 Cl   0.783 --     8 H    0.700
     7   1 H    0.970 --     1 N    0.957
     8   1 H    0.888 --     6 Cl   0.700     1 N    0.184
     9   1 H    0.972 --     1 N    0.958
    10   1 H    0.996 --     2 C    0.975
    11   1 H    0.999 --     2 C    0.973
    12   1 H    0.994 --     3 C    0.944
    13   1 H    0.989 --     3 C    0.936
 ---------------------------------------------------------------------------

Topologies differ in total number of bonds
Writing topology from bond orders to xtbtopo.mol

molecular dipole:
                 x           y           z       tot (Debye)
 q only:       -0.191      -1.684      -0.493
   full:       -0.882      -1.644      -0.507       4.914
molecular quadrupole (traceless):
                xx          xy          yy          xz          yz          zz
 q only:       -9.644      -0.655      -0.611      -3.166      -3.489      10.255
  q+dip:      -20.420      -4.581       7.654      -6.163      -2.775      12.766
   full:      -21.697      -4.707       8.175      -6.072      -2.481      13.522

           -------------------------------------------------
          |                Geometry Summary                 |
           -------------------------------------------------

      molecular mass/u    :      106.5541370
   center of mass at/Å    :        1.9931779       0.8775392       0.6992133
  moments of inertia/u·Å² :        0.1116844E+03   0.4930908E+03   0.5826521E+03
rotational constants/cm⁻¹ :        0.1509399E+00   0.3418768E-01   0.2893259E-01

 * 9 selected distances

     #   Z          #   Z                                           value/Å
     1   7 N        2   6 C                                       1.4602758
     2   6 C        3   6 C                                       1.5338468 (max)
     4   6 C        5   7 N                                       1.1424120
     1   7 N        7   1 H                                       1.0134326 (min)
     1   7 N        9   1 H                                       1.0149405
     2   6 C       10   1 H                                       1.0925101
     2   6 C       11   1 H                                       1.0996137
     3   6 C       12   1 H                                       1.0937764
     3   6 C       13   1 H                                       1.0925793

 * 4 distinct bonds (by element types)

   Z      Z             #   av. dist./Å        max./Å        min./Å
   1 H    6 C           4     1.0946199     1.0996137     1.0925101
   6 C    6 C           1     1.5338468     1.5338468     1.5338468
   1 H    7 N           2     1.0141866     1.0149405     1.0134326
   6 C    7 N           2     1.3013439     1.4602758     1.1424120


optimized geometry written to: xtbopt.xyz


           -------------------------------------------------
          | TOTAL ENERGY              -20.336657743147 Eh   |
          | GRADIENT NORM               0.000650749748 Eh/α |
          | HOMO-LUMO GAP               5.263964802421 eV   |
           -------------------------------------------------

------------------------------------------------------------------------
 * finished run on 2023/01/23 at 19:00:24.969     
------------------------------------------------------------------------
 total:
 * wall-time:     0 d,  0 h,  0 min,  0.240 sec
 *  cpu-time:     0 d,  0 h,  0 min, 21.690 sec
 * ratio c/w:    90.337 speedup
 SCF:
 * wall-time:     0 d,  0 h,  0 min,  0.050 sec
 *  cpu-time:     0 d,  0 h,  0 min,  6.296 sec
 * ratio c/w:   127.087 speedup
 ANC optimizer:
 * wall-time:     0 d,  0 h,  0 min,  0.168 sec
 *  cpu-time:     0 d,  0 h,  0 min, 12.623 sec
 * ratio c/w:    75.314 speedup

