 Entering Gaussian System
 *********************************************
 Gaussian 98:
 frequency output generated by the xtb code
 *********************************************
                         Standard orientation:
 --------------------------------------------------------------------
  Center     Atomic     Atomic              Coordinates (Angstroms)
  Number     Number      Type              X           Y           Z
 --------------------------------------------------------------------
    1          7             0        0.186776   -0.619961   -0.178060
    2          6             0        1.149701    0.472983   -0.441615
    3          6             0        2.560498   -0.085144   -0.479709
    4          9             0        2.816668   -0.816264    0.606782
    5         17             0       -3.063257    0.565496    0.149780
    6          1             0       -0.787082   -0.276766   -0.078257
    7          1             0        0.448857   -1.109971    0.691630
    8          1             0        0.206450   -1.318873   -0.935709
    9          1             0        1.074578    1.221165    0.355924
   10          1             0        0.900680    0.990283   -1.376265
   11          1             0        3.310432    0.711982   -0.553033
   12          1             0        2.694342   -0.729257   -1.356698
 --------------------------------------------------------------------
     1 basis functions        1 primitive gaussians
     1 alpha electrons        1 beta electrons

 Harmonic frequencies (cm**-1), IR intensities (km*mol⁻¹),
 Raman scattering activities (A**4/amu), Raman depolarization ratios,
 reduced masses (AMU), force constants (mDyne/A) and normal coordinates:
                      1                      2                      3
                        a                      a                      a 
 Frequencies --  -133.9562               -81.4084                66.0336
 Red. masses --    23.8477                12.2041                15.7341
 Frc consts  --     0.0000                 0.0000                 0.0000
 IR Inten    --   149.6954                26.1316                21.4737
 Raman Activ --     0.0000                 0.0000                 0.0000
 Depolar     --     0.0000                 0.0000                 0.0000
 Atom AN      X      Y      Z        X      Y      Z        X      Y      Z
   1   7    -0.42   0.19  -0.01    -0.11  -0.14  -0.44     0.09   0.01  -0.41
   2   6    -0.20   0.04   0.11     0.04  -0.11   0.16     0.08   0.01  -0.40
   3   6    -0.26  -0.08  -0.03    -0.03  -0.23  -0.05     0.10   0.02   0.11
   4   9    -0.09   0.09   0.03     0.36   0.33   0.25    -0.52   0.07   0.32
   5  17     0.70  -0.18  -0.07    -0.18   0.11   0.09     0.17  -0.07   0.27
   6   1    -0.12   0.09  -0.00    -0.01  -0.01  -0.03     0.04   0.00   0.01
   7   1    -0.15   0.02  -0.01    -0.03  -0.20  -0.21     0.10  -0.04  -0.16
   8   1    -0.14   0.07  -0.02    -0.09   0.10  -0.25    -0.05   0.04  -0.15
   9   1    -0.02  -0.01   0.06     0.04  -0.15   0.16    -0.04   0.04  -0.16
  10   1    -0.05   0.06   0.05     0.03   0.12   0.12     0.08  -0.05  -0.16
  11   1    -0.07  -0.03  -0.07    -0.01  -0.08  -0.17     0.04  -0.00   0.11
  12   1    -0.12  -0.06   0.01    -0.09  -0.17   0.05     0.12  -0.01   0.05
                      4                      5                      6
                        a                      a                      a 
 Frequencies --   136.8273               263.3944               319.3898
 Red. masses --    13.1522                10.8005                 2.6551
 Frc consts  --     0.0000                 0.0000                 0.0000
 IR Inten    --    17.2395                38.5979                 2.9949
 Raman Activ --     0.0000                 0.0000                 0.0000
 Depolar     --     0.0000                 0.0000                 0.0000
 Atom AN      X      Y      Z        X      Y      Z        X      Y      Z
   1   7    -0.04   0.58   0.05    -0.41   0.14  -0.15     0.08  -0.05  -0.24
   2   6     0.31   0.21  -0.05    -0.05  -0.18  -0.24     0.01   0.07   0.06
   3   6     0.10  -0.32  -0.11     0.13   0.12   0.26    -0.06  -0.05  -0.01
   4   9    -0.01  -0.14   0.07     0.47  -0.16   0.05    -0.08   0.05   0.06
   5  17    -0.24  -0.25   0.02    -0.09   0.00   0.08     0.03   0.01   0.10
   6   1    -0.01   0.19  -0.00    -0.10   0.13  -0.14    -0.06  -0.11  -0.56
   7   1    -0.05   0.15   0.02    -0.23   0.11   0.04    -0.32   0.28   0.20
   8   1    -0.05   0.13   0.03    -0.10  -0.05   0.04     0.48  -0.25   0.16
   9   1     0.18   0.08  -0.02    -0.10   0.05  -0.17    -0.01  -0.03   0.06
  10   1     0.13   0.08  -0.02     0.10  -0.16  -0.16     0.02   0.06   0.04
  11   1     0.11  -0.17  -0.12    -0.06   0.14   0.18     0.02  -0.05  -0.06
  12   1    -0.08  -0.17   0.01     0.19   0.13   0.03    -0.08  -0.05   0.01
                      7                      8                      9
                        a                      a                      a 
 Frequencies --   494.2171               831.6789               907.4902
 Red. masses --     9.2424                 3.8237                 6.1361
 Frc consts  --     0.0000                 0.0000                 0.0000
 IR Inten    --     1.7245                12.9323                 8.7972
 Raman Activ --     0.0000                 0.0000                 0.0000
 Depolar     --     0.0000                 0.0000                 0.0000
 Atom AN      X      Y      Z        X      Y      Z        X      Y      Z
   1   7    -0.23  -0.04   0.09     0.04   0.12  -0.05     0.28   0.24   0.05
   2   6     0.25  -0.35   0.13    -0.17   0.02  -0.28     0.03  -0.27   0.11
   3   6     0.39   0.07  -0.23    -0.15  -0.16  -0.09    -0.39  -0.21  -0.02
   4   9    -0.32   0.23  -0.09     0.13  -0.07   0.15    -0.01   0.09  -0.04
   5  17    -0.02  -0.00   0.00     0.00   0.00  -0.01     0.00  -0.00   0.00
   6   1    -0.02   0.17  -0.07    -0.03  -0.12   0.11     0.08   0.10  -0.13
   7   1    -0.22  -0.02   0.07     0.29   0.27   0.04    -0.13  -0.16  -0.05
   8   1    -0.13  -0.04   0.05    -0.01  -0.14   0.14     0.20   0.25  -0.16
   9   1     0.20  -0.22   0.17     0.16  -0.29   0.23     0.17   0.08  -0.10
  10   1    -0.03   0.06   0.15    -0.11   0.40   0.17     0.01  -0.21  -0.05
  11   1     0.03   0.11   0.08    -0.20   0.13   0.20    -0.36   0.20   0.19
  12   1     0.28   0.08  -0.08     0.29   0.06  -0.04     0.22   0.10  -0.06
                     10                     11                     12
                        a                      a                      a 
 Frequencies --   921.2493              1002.7373              1070.1631
 Red. masses --     4.6844                 5.0987                 9.7172
 Frc consts  --     0.0000                 0.0000                 0.0000
 IR Inten    --    22.5718                43.8170                 7.1227
 Raman Activ --     0.0000                 0.0000                 0.0000
 Depolar     --     0.0000                 0.0000                 0.0000
 Atom AN      X      Y      Z        X      Y      Z        X      Y      Z
   1   7     0.28   0.01  -0.15    -0.23   0.06  -0.09     0.16   0.43  -0.13
   2   6     0.14  -0.22   0.01     0.27  -0.15   0.21    -0.42  -0.46   0.17
   3   6    -0.29   0.12   0.17    -0.09  -0.07   0.12     0.29   0.11  -0.04
   4   9    -0.03   0.03  -0.09    -0.09   0.17  -0.21    -0.03  -0.05   0.03
   5  17    -0.00  -0.01  -0.00     0.00   0.01  -0.00    -0.00   0.00  -0.00
   6   1     0.25   0.45   0.03    -0.19  -0.38   0.17    -0.02  -0.06   0.04
   7   1    -0.02   0.19   0.09     0.33   0.19  -0.03     0.20   0.17  -0.05
   8   1    -0.37  -0.23   0.17     0.12  -0.09   0.08     0.14   0.07  -0.00
   9   1    -0.16  -0.17   0.09    -0.04   0.03  -0.03    -0.20  -0.10   0.02
  10   1     0.20   0.05   0.02     0.53  -0.07  -0.08    -0.15  -0.15   0.04
  11   1    -0.07   0.00  -0.08    -0.10   0.06   0.02     0.10  -0.02  -0.18
  12   1    -0.23   0.00   0.04    -0.02   0.03  -0.01    -0.07  -0.09   0.05
                     13                     14                     15
                        a                      a                      a 
 Frequencies --  1126.7578              1179.3148              1227.0723
 Red. masses --     6.6933                10.8160                 4.0596
 Frc consts  --     0.0000                 0.0000                 0.0000
 IR Inten    --     1.1459                63.8105                47.3847
 Raman Activ --     0.0000                 0.0000                 0.0000
 Depolar     --     0.0000                 0.0000                 0.0000
 Atom AN      X      Y      Z        X      Y      Z        X      Y      Z
   1   7     0.07  -0.06  -0.15    -0.07  -0.05  -0.11     0.01   0.08   0.26
   2   6    -0.21   0.24   0.33     0.17   0.01   0.16     0.00  -0.14  -0.21
   3   6     0.16  -0.39  -0.26    -0.10   0.32  -0.48    -0.05   0.06  -0.22
   4   9     0.01   0.11   0.05     0.03  -0.30   0.44     0.04  -0.03   0.20
   5  17     0.00  -0.00  -0.00     0.00   0.00  -0.00    -0.00   0.00   0.00
   6   1     0.09   0.15   0.06    -0.01  -0.01   0.06    -0.05  -0.04  -0.15
   7   1     0.02   0.13   0.04     0.07   0.07  -0.00    -0.04  -0.18  -0.03
   8   1    -0.16  -0.14   0.08    -0.03  -0.09   0.05     0.11   0.18  -0.09
   9   1    -0.35   0.19  -0.06     0.09   0.13  -0.07    -0.36  -0.24   0.10
  10   1     0.06  -0.13  -0.06     0.02  -0.13  -0.03     0.36   0.19  -0.03
  11   1     0.03  -0.05   0.29    -0.22   0.25  -0.29     0.16  -0.13   0.15
  12   1     0.17   0.17  -0.24    -0.05   0.10  -0.12    -0.24   0.30  -0.30
                     16                     17                     18
                        a                      a                      a 
 Frequencies --  1235.2526              1312.2470              1345.6078
 Red. masses --     2.6638                 4.0743                 4.3145
 Frc consts  --     0.0000                 0.0000                 0.0000
 IR Inten    --     6.3480                14.2844                12.9090
 Raman Activ --     0.0000                 0.0000                 0.0000
 Depolar     --     0.0000                 0.0000                 0.0000
 Atom AN      X      Y      Z        X      Y      Z        X      Y      Z
   1   7    -0.05   0.05  -0.16    -0.02   0.13  -0.01     0.01   0.08  -0.03
   2   6     0.16  -0.16   0.03     0.45   0.06  -0.08     0.19  -0.02   0.06
   3   6    -0.19   0.07   0.01     0.05  -0.17   0.12    -0.35   0.24  -0.25
   4   9     0.06   0.08   0.05    -0.03   0.02  -0.03     0.06  -0.05   0.01
   5  17    -0.00   0.00  -0.00    -0.00   0.00  -0.00    -0.00   0.00   0.00
   6   1    -0.03  -0.07   0.09    -0.08  -0.18   0.04    -0.03  -0.09   0.13
   7   1     0.09   0.10  -0.02    -0.05  -0.06  -0.04    -0.12  -0.04   0.00
   8   1    -0.01  -0.09   0.06    -0.03  -0.03   0.05     0.04  -0.02   0.04
   9   1     0.34   0.05  -0.05    -0.51  -0.13   0.06    -0.30  -0.07   0.05
  10   1    -0.37  -0.19   0.04    -0.50  -0.10   0.08    -0.04  -0.07   0.00
  11   1     0.32  -0.30   0.35    -0.24   0.18  -0.08     0.28  -0.25   0.18
  12   1    -0.29   0.28  -0.23    -0.13   0.08  -0.08     0.44  -0.31   0.29
                     19                     20                     21
                        a                      a                      a 
 Frequencies --  1370.6763              1383.7203              1453.5178
 Red. masses --     2.6306                 1.4842                 2.1361
 Frc consts  --     0.0000                 0.0000                 0.0000
 IR Inten    --   143.3459                75.7159               107.9022
 Raman Activ --     0.0000                 0.0000                 0.0000
 Depolar     --     0.0000                 0.0000                 0.0000
 Atom AN      X      Y      Z        X      Y      Z        X      Y      Z
   1   7    -0.30  -0.11   0.08     0.09   0.05   0.14     0.02   0.23  -0.02
   2   6     0.12   0.00   0.01     0.02   0.01   0.07    -0.12   0.15  -0.01
   3   6    -0.05  -0.01   0.01    -0.05   0.03  -0.02     0.03  -0.02   0.02
   4   9     0.00   0.01  -0.02     0.00  -0.00  -0.00    -0.00   0.00  -0.00
   5  17    -0.00  -0.01   0.00     0.00   0.00   0.01     0.00   0.00   0.00
   6   1     0.12   0.53  -0.23    -0.14  -0.22  -0.68    -0.02  -0.00  -0.02
   7   1     0.55  -0.03  -0.17     0.32   0.00  -0.08    -0.02  -0.53  -0.30
   8   1     0.39  -0.01   0.02    -0.54   0.02  -0.01     0.06  -0.42   0.40
   9   1    -0.13   0.02  -0.02     0.03   0.03  -0.01     0.14  -0.19   0.21
  10   1    -0.12  -0.00   0.04    -0.04  -0.08  -0.01     0.10  -0.24  -0.18
  11   1     0.03  -0.04  -0.00     0.03  -0.03   0.03    -0.00   0.00  -0.04
  12   1     0.07  -0.03   0.03     0.08  -0.06   0.06     0.02   0.03  -0.02
                     22                     23                     24
                        a                      a                      a 
 Frequencies --  1466.8560              1474.7069              2800.2391
 Red. masses --     1.8131                 1.9441                 2.0449
 Frc consts  --     0.0000                 0.0000                 0.0000
 IR Inten    --     8.8950                 2.3754              2308.9069
 Raman Activ --     0.0000                 0.0000                 0.0000
 Depolar     --     0.0000                 0.0000                 0.0000
 Atom AN      X      Y      Z        X      Y      Z        X      Y      Z
   1   7    -0.03  -0.11   0.01     0.02   0.02  -0.01    -0.26   0.11   0.02
   2   6    -0.02   0.23  -0.03     0.01  -0.06   0.01    -0.00  -0.01  -0.00
   3   6    -0.03  -0.01   0.05    -0.16  -0.07   0.22     0.00   0.00  -0.00
   4   9    -0.00  -0.00   0.00    -0.02   0.01   0.00     0.00  -0.00   0.00
   5  17    -0.00  -0.00  -0.00     0.00   0.00  -0.00     0.01  -0.01  -0.00
   6   1     0.02   0.04   0.02    -0.01  -0.03   0.01     0.89  -0.34  -0.09
   7   1     0.04   0.28   0.14    -0.03  -0.03  -0.01    -0.01  -0.01   0.03
   8   1     0.01   0.23  -0.21    -0.03  -0.04   0.03    -0.01  -0.01  -0.02
   9   1     0.08  -0.41   0.41    -0.03   0.10  -0.10     0.00   0.00   0.01
  10   1     0.02  -0.50  -0.30    -0.03   0.12   0.08    -0.00  -0.00  -0.01
  11   1     0.03  -0.04  -0.14     0.18  -0.24  -0.58    -0.00  -0.01   0.00
  12   1     0.10   0.10  -0.05     0.46   0.42  -0.23    -0.00   0.00   0.00
                     25                     26                     27
                        a                      a                      a 
 Frequencies --  2937.0216              2961.5004              2969.6788
 Red. masses --     1.9390                 1.6123                 1.8370
 Frc consts  --     0.0000                 0.0000                 0.0000
 IR Inten    --    13.0572                12.6658                 4.7055
 Raman Activ --     0.0000                 0.0000                 0.0000
 Depolar     --     0.0000                 0.0000                 0.0000
 Atom AN      X      Y      Z        X      Y      Z        X      Y      Z
   1   7     0.00  -0.00  -0.00    -0.00   0.00   0.00    -0.00   0.00  -0.00
   2   6     0.00  -0.01  -0.03    -0.02  -0.00  -0.15     0.04  -0.03   0.25
   3   6     0.09   0.24   0.14    -0.13  -0.05   0.11    -0.07  -0.00   0.09
   4   9     0.00   0.00   0.01    -0.00  -0.01   0.01    -0.00  -0.00   0.00
   5  17    -0.00  -0.00  -0.00     0.00   0.00  -0.00     0.00   0.00   0.00
   6   1    -0.00   0.00   0.00     0.01  -0.00   0.00     0.00  -0.00  -0.00
   7   1    -0.00   0.00  -0.00    -0.00   0.01  -0.01     0.01  -0.01   0.02
   8   1    -0.00  -0.00  -0.00    -0.00  -0.01  -0.01    -0.00   0.01   0.01
   9   1    -0.01   0.09   0.10    -0.02   0.20   0.20     0.03  -0.26  -0.25
  10   1     0.01  -0.01   0.01     0.09  -0.19   0.34    -0.17   0.35  -0.62
  11   1    -0.43  -0.44   0.06     0.44   0.50  -0.02     0.22   0.25  -0.01
  12   1     0.10  -0.41  -0.58     0.04  -0.31  -0.40     0.03  -0.23  -0.30
                     28                     29                     30
                        a                      a                      a 
 Frequencies --  2990.5728              3204.9983              3222.3549
 Red. masses --     1.5721                 1.9841                 1.5600
 Frc consts  --     0.0000                 0.0000                 0.0000
 IR Inten    --     1.0788                72.8166                27.0048
 Raman Activ --     0.0000                 0.0000                 0.0000
 Depolar     --     0.0000                 0.0000                 0.0000
 Atom AN      X      Y      Z        X      Y      Z        X      Y      Z
   1   7     0.00  -0.00   0.00    -0.05   0.03  -0.27    -0.02   0.19   0.08
   2   6     0.05  -0.21  -0.06    -0.00   0.00  -0.01     0.00   0.01   0.00
   3   6     0.00  -0.03  -0.03    -0.00  -0.00   0.00     0.00  -0.00  -0.00
   4   9    -0.00   0.00  -0.00     0.00   0.00  -0.00    -0.00   0.00  -0.00
   5  17     0.00   0.00  -0.00     0.00  -0.00   0.00     0.00  -0.00  -0.00
   6   1    -0.01   0.00   0.00    -0.02   0.01  -0.02    -0.04   0.03   0.01
   7   1     0.00  -0.01   0.01     0.22  -0.41   0.74     0.10  -0.18   0.37
   8   1    -0.00  -0.02  -0.02    -0.02   0.28   0.29     0.01  -0.58  -0.66
   9   1    -0.05   0.56   0.62    -0.00   0.01   0.01     0.00  -0.02  -0.02
  10   1    -0.10   0.20  -0.42     0.00  -0.01   0.02     0.00  -0.01   0.01
  11   1     0.01   0.01  -0.00     0.00   0.00  -0.00    -0.00  -0.00  -0.00
  12   1    -0.02   0.08   0.10    -0.00  -0.00  -0.00     0.00   0.00   0.00
