16
 energy: -22.263020329221 gnorm: 0.000509666565 xtb: 6.5.1 (fef0646)
N            1.16261179668629       -0.28089051382135        0.09504665804450
C            2.62093155347306       -0.08725324123915        0.21425333446900
C            3.17505471218605        0.44181809173852       -1.09793143669774
S            4.95826020946304        0.81249602845306       -0.89543296810221
C            5.22403518887177        1.74086661925556       -2.42657463504322
Cl           0.03839232796601        2.34041631631350       -1.02536979824035
H            0.74601858617480       -0.53424575181266        0.99410948905362
H            0.94372418067616       -0.99762711556959       -0.60148851174722
H            0.72101089159101        0.61546082341093       -0.23526383818814
H            3.10886234135510       -1.02726304242231        0.47445109264612
H            2.82097732486671        0.64512097804971        0.99632287653230
H            2.66463438346601        1.36604252511099       -1.37150378955872
H            3.07940498641120       -0.28621855620735       -1.90326885759106
H            6.26983737766025        2.02922979701607       -2.44305845387175
H            4.59002966008836        2.62362928930349       -2.42250273779481
H            4.99544447906412        1.10606775242100       -3.27765842391007
