18
 energy: -22.194169865070 gnorm: 0.000698389004 xtb: 6.5.1 (fef0646)
N            1.36238229366679       -0.45633568525366       -0.13035171715309
C            2.81955921760324       -0.21223144416636       -0.09968548216956
C            3.19290173875377        0.57586480661285        1.14836616810521
C            4.67804626390676        0.93236194089961        1.16561697845867
C            5.04529982144097        1.73450551856650        2.40822212574978
Cl          -0.16156145379735        2.19804223484780       -0.05091578680413
H            1.08289429770740       -0.95283096017474       -0.97863204646117
H            0.84642214060206        0.46023475721620       -0.11145055495868
H            1.06371441599904       -0.98235391448649        0.69449917080446
H            3.09104898920690        0.36485349618326       -0.98313168390267
H            3.34872994630081       -1.16587243021000       -0.11835153162045
H            2.95714413872186       -0.00322353488282        2.04255344872860
H            2.59683797778136        1.49043322036068        1.17453528471669
H            4.92070133629806        1.51776358076433        0.27700711385389
H            5.27389419440818        0.01811535135117        1.13809258327261
H            4.47195133243511        2.65851096662245        2.44640569346816
H            6.10246877527401        1.98803144918073        2.40366428421074
H            4.83257457368661        1.16543064657413        3.31021595170150
