11
 energy: -10.838483949271 gnorm: 0.000278740321 xtb: 6.5.1 (fef0646)
N            0.95655131433018        0.01271100755290       -0.08470007659305
C            2.45615630614317        0.03301363999889       -0.09254135232271
C            2.94710445592604        1.36958537078544       -0.60876359395095
H            0.59107117898285       -0.88326135258912        0.26134797040451
H            0.60292499458747        0.17086113452098       -1.03819335253604
H            0.60292483428284        0.77072474768334        0.51494638824271
H            2.80602511652577       -0.78044039206638       -0.72919499418940
H            2.80602492753539       -0.14130427073827        0.92561813595061
H            2.61318700941587        1.54855352372703       -1.62773275096200
H            4.03307294390538        1.37824987136435       -0.61211000699990
H            2.61318691836505        2.18702671976084        0.02536363295623
