 Entering Gaussian System
 *********************************************
 Gaussian 98:
 frequency output generated by the xtb code
 *********************************************
                         Standard orientation:
 --------------------------------------------------------------------
  Center     Atomic     Atomic              Coordinates (Angstroms)
  Number     Number      Type              X           Y           Z
 --------------------------------------------------------------------
    1          7             0       -2.309015   -0.208060   -1.185762
    2          6             0       -1.662188    0.419399    0.015005
    3          6             0       -2.305346   -0.058846    1.311938
    4          6             0       -0.169419    0.193761    0.009880
    5          6             0        0.361834   -1.097572    0.051891
    6          6             0        1.737553   -1.302179    0.043786
    7          6             0        2.602659   -0.216204   -0.004909
    8          6             0        2.089286    1.074239   -0.044919
    9          6             0        0.713707    1.277666   -0.037475
   10          1             0       -3.309195    0.015935   -1.227639
   11          1             0       -2.216321   -1.228651   -1.152710
   12          1             0       -1.866337    0.121116   -2.050344
   13          1             0       -1.827703    1.506570   -0.066276
   14          1             0       -2.191971   -1.135786    1.425400
   15          1             0       -3.372175    0.162630    1.332852
   16          1             0       -1.844830    0.413914    2.179726
   17          1             0       -0.302050   -1.942878    0.093354
   18          1             0        2.132808   -2.304251    0.075227
   19          1             0        3.668918   -0.374239   -0.011292
   20          1             0        2.758050    1.918466   -0.081763
   21          1             0        0.321992    2.279658   -0.068615
 --------------------------------------------------------------------
     1 basis functions        1 primitive gaussians
     1 alpha electrons        1 beta electrons

 Harmonic frequencies (cm**-1), IR intensities (km*mol⁻¹),
 Raman scattering activities (A**4/amu), Raman depolarization ratios,
 reduced masses (AMU), force constants (mDyne/A) and normal coordinates:
                      1                      2                      3
                        a                      a                      a 
 Frequencies --  -119.0705                63.5563               131.2736
 Red. masses --     1.1800                 9.3899                 9.7570
 Frc consts  --     0.0000                 0.0000                 0.0000
 IR Inten    --     0.7223                 7.5961                11.7536
 Raman Activ --     0.0000                 0.0000                 0.0000
 Depolar     --     0.0000                 0.0000                 0.0000
 Atom AN      X      Y      Z        X      Y      Z        X      Y      Z
   1   7     0.03  -0.01  -0.00     0.06   0.41  -0.12    -0.44   0.16   0.05
   2   6    -0.01   0.02  -0.01     0.00  -0.03   0.15     0.02  -0.02  -0.09
   3   6     0.02  -0.00  -0.01    -0.09  -0.39  -0.05     0.34  -0.11   0.05
   4   6    -0.00   0.04  -0.02     0.00  -0.02   0.10     0.01  -0.06  -0.31
   5   6    -0.04   0.02   0.02     0.02  -0.01   0.33     0.04  -0.04  -0.18
   6   6    -0.04  -0.02   0.04     0.03   0.01   0.26     0.05   0.01   0.17
   7   6    -0.01  -0.04   0.03     0.01   0.01  -0.07     0.03   0.04   0.39
   8   6     0.02  -0.03  -0.01    -0.01  -0.00  -0.32    -0.00   0.01   0.10
   9   6     0.02   0.01  -0.03    -0.01  -0.02  -0.23    -0.01  -0.04  -0.25
  10   1    -0.11  -0.47   0.30     0.03   0.16  -0.05    -0.11   0.11   0.10
  11   1     0.52   0.04  -0.27    -0.03   0.10  -0.12    -0.18   0.04  -0.02
  12   1    -0.37   0.42  -0.03     0.06   0.16   0.01    -0.17   0.03  -0.02
  13   1    -0.02   0.01   0.00     0.01   0.00   0.13     0.01  -0.00   0.01
  14   1    -0.01  -0.00  -0.01    -0.05  -0.12  -0.10     0.11  -0.03  -0.02
  15   1     0.01   0.02   0.01    -0.02  -0.10  -0.01     0.10  -0.03   0.10
  16   1     0.02  -0.02  -0.00    -0.04  -0.19   0.03     0.16  -0.05  -0.01
  17   1    -0.02   0.01   0.02     0.01   0.00   0.17     0.02  -0.02  -0.09
  18   1    -0.02  -0.01   0.02     0.01   0.01   0.13     0.02   0.01   0.09
  19   1    -0.01  -0.02   0.02     0.00   0.01  -0.04     0.01   0.02   0.22
  20   1     0.01  -0.01  -0.01    -0.01  -0.00  -0.17    -0.01   0.01   0.06
  21   1     0.01   0.01  -0.02    -0.01  -0.01  -0.12    -0.01  -0.01  -0.12
                      4                      5                      6
                        a                      a                      a 
 Frequencies --   199.2485               240.5013               293.2507
 Red. masses --     7.7446                 2.8020                 9.3482
 Frc consts  --     0.0000                 0.0000                 0.0000
 IR Inten    --     5.0399                 3.0816                13.7727
 Raman Activ --     0.0000                 0.0000                 0.0000
 Depolar     --     0.0000                 0.0000                 0.0000
 Atom AN      X      Y      Z        X      Y      Z        X      Y      Z
   1   7    -0.22   0.13   0.01    -0.13   0.17  -0.03    -0.42  -0.14   0.13
   2   6     0.05  -0.09  -0.02     0.01  -0.03   0.01    -0.01   0.05  -0.16
   3   6    -0.29   0.27  -0.05    -0.10   0.10  -0.00    -0.10  -0.18  -0.30
   4   6     0.04  -0.29   0.05     0.01  -0.15   0.03     0.07   0.19   0.00
   5   6     0.23  -0.21   0.05     0.11  -0.11   0.02     0.04   0.18   0.21
   6   6     0.29   0.02  -0.03     0.13  -0.01  -0.01     0.02   0.03   0.08
   7   6     0.14   0.13  -0.08     0.07   0.04  -0.04     0.14  -0.09  -0.21
   8   6    -0.05   0.06   0.02    -0.02   0.00  -0.01     0.22  -0.04   0.05
   9   6    -0.08  -0.18   0.08    -0.03  -0.11   0.04     0.22   0.11   0.19
  10   1    -0.06   0.05   0.09    -0.04   0.04   0.05    -0.11  -0.00   0.16
  11   1    -0.07   0.03  -0.07    -0.03   0.04  -0.08    -0.15  -0.04   0.10
  12   1    -0.12   0.08  -0.01    -0.07   0.10  -0.01    -0.23  -0.12  -0.05
  13   1     0.10  -0.01  -0.02     0.04  -0.00   0.00    -0.03   0.01  -0.05
  14   1    -0.36   0.04  -0.07     0.39   0.11   0.28    -0.00  -0.05  -0.14
  15   1    -0.02   0.36   0.01    -0.12  -0.40  -0.25    -0.04  -0.09  -0.12
  16   1     0.05  -0.08   0.00    -0.37   0.43  -0.03    -0.09  -0.09  -0.03
  17   1     0.11  -0.09   0.02     0.05  -0.05  -0.00    -0.00   0.07   0.09
  18   1     0.13   0.02  -0.02     0.06   0.00  -0.01    -0.03  -0.01   0.04
  19   1     0.05   0.08  -0.05     0.02   0.03  -0.02     0.04  -0.06  -0.14
  20   1    -0.06   0.05   0.01    -0.03   0.02  -0.01     0.08  -0.03   0.03
  21   1    -0.06  -0.07   0.04    -0.03  -0.04   0.02     0.10   0.05   0.10
                      7                      8                      9
                        a                      a                      a 
 Frequencies --   296.0819               379.6723               448.4129
 Red. masses --     9.2192                 8.6677                 9.4716
 Frc consts  --     0.0000                 0.0000                 0.0000
 IR Inten    --     4.7809                 0.0204                 5.4495
 Raman Activ --     0.0000                 0.0000                 0.0000
 Depolar     --     0.0000                 0.0000                 0.0000
 Atom AN      X      Y      Z        X      Y      Z        X      Y      Z
   1   7     0.05  -0.05   0.29    -0.01  -0.00  -0.01     0.16   0.07   0.36
   2   6    -0.00   0.04   0.23     0.00  -0.01   0.00     0.31   0.29  -0.05
   3   6    -0.46  -0.08  -0.02     0.01  -0.01   0.00     0.13  -0.02  -0.36
   4   6     0.04   0.09  -0.01     0.00   0.01   0.00     0.10  -0.16  -0.01
   5   6     0.05   0.08  -0.31     0.00   0.02   0.42    -0.08  -0.24   0.02
   6   6     0.04   0.01  -0.12    -0.01  -0.02  -0.41    -0.08  -0.07   0.01
   7   6     0.11  -0.03   0.30    -0.00  -0.00  -0.00    -0.26   0.09  -0.02
   8   6     0.14  -0.03  -0.10     0.01   0.02   0.42    -0.17   0.12   0.00
   9   6     0.13   0.03  -0.30     0.00  -0.01  -0.41    -0.14  -0.03  -0.01
  10   1     0.01  -0.03   0.07    -0.00   0.00  -0.00     0.03  -0.02   0.17
  11   1     0.03  -0.01   0.12    -0.01  -0.00  -0.01     0.07   0.02   0.24
  12   1     0.01  -0.05   0.06    -0.00   0.00  -0.00    -0.05  -0.10   0.00
  13   1    -0.01   0.01   0.08    -0.00  -0.00  -0.00     0.14   0.09  -0.01
  14   1    -0.16  -0.03  -0.03     0.01  -0.00   0.01     0.07  -0.02  -0.21
  15   1    -0.13  -0.02  -0.15     0.00  -0.01  -0.00     0.02  -0.06  -0.17
  16   1    -0.25  -0.05   0.07    -0.00   0.01  -0.00    -0.06  -0.09  -0.01
  17   1     0.01   0.02  -0.14    -0.00   0.02   0.29    -0.03  -0.06   0.01
  18   1    -0.01  -0.00  -0.06    -0.00  -0.01  -0.26     0.04   0.01   0.00
  19   1     0.03  -0.02   0.21    -0.00  -0.00  -0.00    -0.07   0.04  -0.01
  20   1     0.05  -0.01  -0.04     0.01   0.01   0.27    -0.04   0.03   0.01
  21   1     0.06   0.02  -0.15     0.00  -0.01  -0.28    -0.10  -0.04  -0.00
                     10                     11                     12
                        a                      a                      a 
 Frequencies --   509.2808               539.1729               589.6021
 Red. masses --     9.2214                 9.2130                11.1506
 Frc consts  --     0.0000                 0.0000                 0.0000
 IR Inten    --     8.1776                 4.6411                 0.2883
 Raman Activ --     0.0000                 0.0000                 0.0000
 Depolar     --     0.0000                 0.0000                 0.0000
 Atom AN      X      Y      Z        X      Y      Z        X      Y      Z
   1   7     0.12   0.05   0.12     0.03   0.04   0.05     0.02   0.03   0.04
   2   6    -0.02  -0.00   0.12    -0.34   0.43  -0.05    -0.03   0.08  -0.01
   3   6    -0.13  -0.02   0.12     0.04  -0.00  -0.05     0.02   0.02  -0.04
   4   6    -0.01  -0.02  -0.60    -0.32  -0.08   0.02    -0.01   0.16  -0.00
   5   6     0.01   0.00  -0.11     0.02   0.02   0.02     0.37   0.24  -0.00
   6   6     0.01   0.01   0.27     0.12   0.19  -0.01     0.31  -0.36   0.00
   7   6     0.01  -0.02  -0.36     0.35   0.01   0.00     0.01  -0.19   0.01
   8   6     0.00  -0.00   0.27     0.01  -0.16   0.00    -0.41  -0.30   0.01
   9   6    -0.00  -0.01  -0.10    -0.04  -0.35   0.01    -0.30   0.29  -0.01
  10   1     0.03  -0.03  -0.06    -0.02  -0.14  -0.13     0.00  -0.01  -0.00
  11   1     0.07   0.02   0.04     0.16   0.03   0.19     0.03   0.01   0.04
  12   1     0.10   0.02   0.07     0.06  -0.07   0.01     0.01  -0.01   0.00
  13   1    -0.01   0.00   0.08    -0.08   0.12  -0.02    -0.01   0.02  -0.00
  14   1    -0.07  -0.01   0.05     0.13  -0.01  -0.17     0.02   0.00  -0.04
  15   1    -0.04   0.01  -0.03    -0.01  -0.11   0.13     0.00  -0.01   0.00
  16   1    -0.09   0.00   0.06     0.06  -0.08  -0.00     0.01  -0.01  -0.00
  17   1     0.00   0.01   0.13     0.10  -0.07  -0.00     0.06   0.10  -0.01
  18   1     0.00   0.01   0.28    -0.00   0.04  -0.02     0.03  -0.13  -0.00
  19   1     0.00  -0.00  -0.13     0.10   0.00  -0.01     0.03   0.11  -0.00
  20   1     0.00   0.01   0.28    -0.08   0.02  -0.01    -0.08  -0.11  -0.00
  21   1     0.00   0.00   0.11     0.03  -0.09  -0.01    -0.02   0.11  -0.01
                     13                     14                     15
                        a                      a                      a 
 Frequencies --   668.2994               749.3528               752.6730
 Red. masses --     8.8565                 6.0847                 8.2763
 Frc consts  --     0.0000                 0.0000                 0.0000
 IR Inten    --     6.7818                22.9611                18.0269
 Raman Activ --     0.0000                 0.0000                 0.0000
 Depolar     --     0.0000                 0.0000                 0.0000
 Atom AN      X      Y      Z        X      Y      Z        X      Y      Z
   1   7    -0.01  -0.02  -0.03     0.08  -0.02   0.04     0.17   0.03   0.18
   2   6     0.01   0.00  -0.01     0.13  -0.12  -0.01     0.20  -0.25  -0.02
   3   6     0.02   0.01  -0.02     0.09   0.02  -0.12     0.08  -0.01  -0.10
   4   6     0.00   0.02   0.46    -0.09   0.03   0.34    -0.13   0.02  -0.24
   5   6    -0.00  -0.00  -0.28    -0.07   0.14  -0.21    -0.10   0.23   0.13
   6   6     0.00   0.01   0.36    -0.08   0.20  -0.08    -0.13   0.31   0.03
   7   6    -0.00  -0.01  -0.27     0.17  -0.03  -0.15     0.25  -0.04   0.10
   8   6    -0.00   0.01   0.36    -0.11  -0.17  -0.06    -0.16  -0.24   0.05
   9   6    -0.01  -0.01  -0.28    -0.09  -0.10  -0.18    -0.13  -0.14   0.13
  10   1    -0.00   0.02   0.03     0.04   0.11   0.16     0.06   0.12   0.16
  11   1    -0.03  -0.01  -0.02    -0.10  -0.02  -0.09    -0.07  -0.01  -0.08
  12   1    -0.03  -0.00  -0.02    -0.06   0.03  -0.02     0.00   0.06   0.05
  13   1     0.01  -0.00  -0.02     0.04  -0.04  -0.03     0.05  -0.06   0.02
  14   1     0.02   0.00  -0.02    -0.00   0.01   0.00    -0.07   0.00   0.08
  15   1     0.00  -0.01   0.02     0.03   0.03  -0.05     0.04   0.09  -0.15
  16   1     0.02  -0.00  -0.01     0.02   0.03  -0.04    -0.02   0.05  -0.03
  17   1    -0.00  -0.01  -0.31     0.01   0.04   0.28     0.00   0.03  -0.18
  18   1    -0.00  -0.00  -0.02    -0.08   0.04   0.31    -0.14   0.04  -0.20
  19   1    -0.00  -0.01  -0.29     0.05   0.00   0.34     0.06  -0.03  -0.22
  20   1    -0.00  -0.00  -0.02    -0.08   0.00   0.30    -0.12  -0.02  -0.20
  21   1    -0.00  -0.01  -0.31     0.01  -0.01   0.26     0.01  -0.03  -0.17
                     16                     17                     18
                        a                      a                      a 
 Frequencies --   860.4174               878.3505               888.8278
 Red. masses --     3.5815                 7.4800                 4.6745
 Frc consts  --     0.0000                 0.0000                 0.0000
 IR Inten    --     1.1108                29.6061                11.2602
 Raman Activ --     0.0000                 0.0000                 0.0000
 Depolar     --     0.0000                 0.0000                 0.0000
 Atom AN      X      Y      Z        X      Y      Z        X      Y      Z
   1   7     0.00  -0.01  -0.06     0.04   0.02   0.46    -0.16  -0.30  -0.07
   2   6     0.05   0.03   0.03    -0.33  -0.20  -0.14     0.16   0.22   0.23
   3   6    -0.01  -0.00   0.05     0.03   0.07  -0.31     0.10   0.17   0.08
   4   6    -0.00  -0.00  -0.01    -0.06   0.01   0.03     0.02  -0.00  -0.04
   5   6     0.00   0.02   0.33     0.05  -0.01   0.04    -0.02  -0.02  -0.03
   6   6    -0.01   0.02   0.11     0.05  -0.12   0.01    -0.01   0.04   0.00
   7   6     0.00  -0.01  -0.04    -0.08   0.01  -0.01     0.03   0.00   0.05
   8   6    -0.02  -0.02  -0.13     0.12   0.11  -0.02    -0.05  -0.04   0.03
   9   6    -0.01  -0.01  -0.29     0.05   0.01  -0.04    -0.02  -0.01  -0.02
  10   1    -0.00  -0.01   0.01     0.03   0.08  -0.08    -0.01   0.05  -0.14
  11   1    -0.00  -0.00   0.01    -0.04  -0.01  -0.23    -0.14  -0.10  -0.42
  12   1    -0.03  -0.02  -0.04     0.25   0.29   0.35     0.14   0.22   0.19
  13   1     0.01   0.00  -0.01    -0.12  -0.06  -0.10     0.03   0.04  -0.17
  14   1    -0.00  -0.00  -0.00     0.06   0.03  -0.06     0.08   0.01  -0.33
  15   1    -0.00   0.01  -0.01     0.01  -0.01   0.05    -0.01  -0.08  -0.15
  16   1    -0.02  -0.02   0.04     0.13   0.07  -0.18    -0.19  -0.22   0.28
  17   1     0.00  -0.03  -0.59     0.01  -0.00  -0.07    -0.00  -0.00   0.06
  18   1    -0.01  -0.01  -0.24     0.04  -0.03  -0.02    -0.01   0.01  -0.02
  19   1     0.00   0.00   0.05    -0.02  -0.01   0.03     0.01   0.01  -0.08
  20   1    -0.00   0.01   0.32     0.06   0.01   0.04    -0.03  -0.01  -0.08
  21   1     0.00   0.01   0.50     0.01   0.00   0.06    -0.00   0.00   0.06
                     19                     20                     21
                        a                      a                      a 
 Frequencies --   894.5631               921.8827               924.1129
 Red. masses --     3.3592                 4.5342                 4.1934
 Frc consts  --     0.0000                 0.0000                 0.0000
 IR Inten    --     0.2964                37.0445                 2.1144
 Raman Activ --     0.0000                 0.0000                 0.0000
 Depolar     --     0.0000                 0.0000                 0.0000
 Atom AN      X      Y      Z        X      Y      Z        X      Y      Z
   1   7     0.01   0.04   0.01     0.35  -0.07  -0.00     0.07  -0.03  -0.00
   2   6    -0.02  -0.03  -0.03    -0.11   0.12  -0.13    -0.02   0.04  -0.03
   3   6    -0.00  -0.02  -0.03    -0.22   0.02   0.17    -0.04   0.01   0.05
   4   6     0.00   0.00   0.04    -0.06   0.02  -0.10    -0.01   0.00  -0.03
   5   6    -0.00  -0.01  -0.22     0.03   0.00   0.04     0.00  -0.01  -0.15
   6   6     0.00   0.00   0.16     0.04  -0.09  -0.09     0.01  -0.00   0.32
   7   6     0.01   0.01   0.24    -0.06   0.02   0.07    -0.01   0.00  -0.03
   8   6     0.01   0.01   0.07     0.04   0.05   0.05    -0.00  -0.01  -0.32
   9   6    -0.00  -0.00  -0.26     0.02  -0.06  -0.03     0.00  -0.01   0.21
  10   1    -0.00  -0.01   0.01     0.14   0.28   0.46     0.03   0.07   0.10
  11   1     0.02   0.01   0.06    -0.24  -0.05  -0.16    -0.06  -0.02  -0.06
  12   1    -0.02  -0.03  -0.02    -0.21  -0.01  -0.15    -0.04   0.01  -0.02
  13   1    -0.00  -0.01   0.02    -0.06   0.02  -0.18    -0.01   0.01  -0.04
  14   1    -0.01  -0.00   0.05     0.13   0.01  -0.11     0.03   0.00  -0.04
  15   1     0.00   0.01   0.02    -0.09  -0.16   0.29    -0.02  -0.04   0.05
  16   1     0.03   0.04  -0.05     0.06  -0.07   0.02     0.00  -0.03   0.02
  17   1    -0.00   0.02   0.43     0.01  -0.00  -0.04     0.00   0.01   0.21
  18   1    -0.00  -0.01  -0.38     0.03  -0.01   0.14     0.00  -0.02  -0.52
  19   1    -0.00  -0.01  -0.37    -0.02   0.01  -0.12    -0.00   0.01   0.05
  20   1     0.00  -0.01  -0.20     0.01   0.01  -0.09     0.01   0.02   0.52
  21   1     0.00   0.02   0.51    -0.00  -0.02   0.05    -0.00  -0.01  -0.29
                     22                     23                     24
                        a                      a                      a 
 Frequencies --   936.4085               976.8682              1041.4734
 Red. masses --     3.6225                10.5955                 7.2736
 Frc consts  --     0.0000                 0.0000                 0.0000
 IR Inten    --     0.6275                 3.3796                28.0272
 Raman Activ --     0.0000                 0.0000                 0.0000
 Depolar     --     0.0000                 0.0000                 0.0000
 Atom AN      X      Y      Z        X      Y      Z        X      Y      Z
   1   7     0.04  -0.01  -0.00    -0.01  -0.02  -0.05    -0.06   0.18   0.12
   2   6    -0.01   0.02  -0.02     0.06   0.00   0.08     0.08  -0.26  -0.44
   3   6    -0.03   0.00   0.03     0.11  -0.01  -0.01    -0.14   0.08   0.28
   4   6    -0.01  -0.00  -0.09    -0.20   0.03   0.01     0.15  -0.10   0.06
   5   6     0.00  -0.00   0.02     0.26   0.47  -0.03     0.11   0.18  -0.01
   6   6     0.01  -0.00   0.19     0.04  -0.20   0.01    -0.08   0.17  -0.01
   7   6    -0.01  -0.01  -0.36    -0.38   0.06   0.00    -0.12  -0.03   0.00
   8   6     0.01   0.01   0.24     0.09   0.17  -0.01    -0.05  -0.06  -0.00
   9   6     0.00  -0.01   0.00     0.11  -0.53   0.02     0.03  -0.04  -0.01
  10   1     0.02   0.03   0.06    -0.00  -0.00   0.01    -0.04  -0.09  -0.14
  11   1    -0.03  -0.01  -0.02    -0.01  -0.01   0.00     0.15   0.06   0.14
  12   1    -0.02  -0.00  -0.02    -0.02  -0.02  -0.03     0.09   0.01   0.07
  13   1    -0.01   0.00  -0.02     0.01   0.00   0.05     0.30  -0.04  -0.25
  14   1     0.01  -0.00  -0.01    -0.06  -0.01   0.03     0.10  -0.00  -0.19
  15   1    -0.01  -0.02   0.03     0.04   0.07  -0.15    -0.08  -0.18   0.14
  16   1    -0.00  -0.01   0.01    -0.06   0.00   0.04    -0.07  -0.17   0.19
  17   1     0.00   0.00   0.06     0.03   0.17   0.01     0.05   0.04   0.02
  18   1     0.00  -0.01  -0.36    -0.06  -0.08  -0.00    -0.09   0.03   0.01
  19   1     0.01   0.03   0.64    -0.11   0.02  -0.00    -0.05  -0.07   0.01
  20   1    -0.00  -0.01  -0.44    -0.04   0.09  -0.00     0.02  -0.05   0.00
  21   1    -0.00   0.00   0.08    -0.02  -0.17   0.01    -0.00  -0.02   0.01
                     25                     26                     27
                        a                      a                      a 
 Frequencies --  1063.4237              1077.7702              1107.3560
 Red. masses --     6.9440                 5.8797                 4.9665
 Frc consts  --     0.0000                 0.0000                 0.0000
 IR Inten    --    29.1128                 9.9847                 7.8517
 Raman Activ --     0.0000                 0.0000                 0.0000
 Depolar     --     0.0000                 0.0000                 0.0000
 Atom AN      X      Y      Z        X      Y      Z        X      Y      Z
   1   7    -0.09  -0.09  -0.08     0.05  -0.00   0.03    -0.06  -0.03   0.06
   2   6     0.14   0.00   0.40    -0.11   0.07  -0.13     0.10   0.10  -0.14
   3   6    -0.23   0.06  -0.26     0.12  -0.06   0.08    -0.11  -0.11   0.05
   4   6     0.12  -0.07  -0.08    -0.05   0.06   0.03     0.19   0.13   0.01
   5   6     0.13   0.11   0.00     0.10  -0.10  -0.00    -0.19  -0.04   0.01
   6   6    -0.06   0.23   0.00     0.04   0.27  -0.01     0.04  -0.12   0.00
   7   6    -0.22   0.01   0.00    -0.37   0.09   0.00     0.03   0.18  -0.01
   8   6    -0.09  -0.16   0.01    -0.09  -0.32   0.01    -0.18  -0.15   0.01
   9   6     0.08  -0.05   0.01     0.15  -0.02  -0.01     0.20  -0.22   0.00
  10   1    -0.02  -0.05  -0.07     0.02   0.05   0.05    -0.01  -0.02  -0.08
  11   1    -0.01  -0.02  -0.04    -0.03  -0.01  -0.02     0.01  -0.01  -0.05
  12   1     0.01   0.00   0.01    -0.01   0.02  -0.00     0.06   0.05   0.07
  13   1     0.19   0.02   0.09    -0.16   0.00   0.01     0.03   0.03  -0.05
  14   1     0.21   0.05  -0.05    -0.12  -0.02   0.08    -0.03  -0.02   0.12
  15   1    -0.07  -0.10   0.37     0.05   0.09  -0.18    -0.02  -0.01   0.11
  16   1     0.28   0.09  -0.28    -0.11   0.01   0.08     0.05   0.04  -0.07
  17   1     0.10  -0.02  -0.01     0.22  -0.18   0.01    -0.37   0.23  -0.02
  18   1     0.01   0.08  -0.02     0.32   0.20  -0.01     0.17   0.03   0.00
  19   1    -0.07  -0.03  -0.00    -0.10   0.07  -0.00     0.06   0.42  -0.01
  20   1     0.05  -0.11  -0.00     0.18  -0.26   0.01    -0.28   0.14   0.00
  21   1     0.09   0.01  -0.01     0.30   0.09  -0.00     0.28   0.02   0.00
                     28                     29                     30
                        a                      a                      a 
 Frequencies --  1147.0552              1172.9391              1187.8653
 Red. masses --     7.0338                 1.3025                 2.2203
 Frc consts  --     0.0000                 0.0000                 0.0000
 IR Inten    --     7.6262                 0.1604                 1.7605
 Raman Activ --     0.0000                 0.0000                 0.0000
 Depolar     --     0.0000                 0.0000                 0.0000
 Atom AN      X      Y      Z        X      Y      Z        X      Y      Z
   1   7    -0.07  -0.12   0.08    -0.00  -0.01   0.00    -0.01  -0.03   0.01
   2   6     0.15   0.44  -0.25     0.02   0.02  -0.01     0.08   0.05  -0.05
   3   6    -0.12  -0.31   0.11    -0.01  -0.02   0.01    -0.02  -0.08   0.03
   4   6     0.24  -0.03   0.03    -0.02  -0.07   0.00    -0.17  -0.01   0.01
   5   6     0.16   0.04  -0.01    -0.07   0.02  -0.00     0.05  -0.08  -0.00
   6   6    -0.07   0.12  -0.01    -0.03  -0.02   0.00    -0.05  -0.10   0.00
   7   6    -0.02  -0.06   0.00     0.01   0.08  -0.00    -0.03  -0.01   0.00
   8   6    -0.03  -0.01  -0.00     0.03  -0.01  -0.00    -0.05   0.13  -0.01
   9   6    -0.07  -0.04  -0.00     0.07  -0.00   0.00     0.09   0.09  -0.00
  10   1     0.00   0.04  -0.07     0.00   0.00  -0.00     0.00   0.02  -0.01
  11   1    -0.04  -0.04  -0.16    -0.00  -0.00  -0.01     0.00  -0.01  -0.03
  12   1     0.08   0.11   0.12     0.01   0.01   0.01     0.02   0.03   0.03
  13   1    -0.09   0.09  -0.07     0.01   0.00  -0.01     0.17   0.03  -0.04
  14   1    -0.14  -0.05   0.33    -0.01  -0.00   0.02    -0.02  -0.01   0.07
  15   1     0.01   0.10   0.07     0.00   0.01   0.00     0.01   0.03   0.01
  16   1     0.04   0.14  -0.12     0.00   0.01  -0.01     0.01   0.04  -0.03
  17   1     0.09  -0.02   0.00     0.13  -0.11   0.01     0.37  -0.30   0.02
  18   1    -0.15  -0.02   0.01    -0.44  -0.18   0.01    -0.35  -0.16   0.01
  19   1    -0.04  -0.21   0.01     0.10   0.69  -0.03    -0.01  -0.02   0.00
  20   1     0.00  -0.01   0.00     0.36  -0.28   0.01    -0.30   0.27  -0.01
  21   1    -0.30  -0.12   0.01    -0.13  -0.06   0.00     0.51   0.21  -0.01
                     31                     32                     33
                        a                      a                      a 
 Frequencies --  1206.3259              1268.2230              1282.3918
 Red. masses --     6.2802                 4.6614                11.0628
 Frc consts  --     0.0000                 0.0000                 0.0000
 IR Inten    --    13.0243                11.6233                 4.1734
 Raman Activ --     0.0000                 0.0000                 0.0000
 Depolar     --     0.0000                 0.0000                 0.0000
 Atom AN      X      Y      Z        X      Y      Z        X      Y      Z
   1   7     0.03   0.06  -0.03     0.06  -0.06  -0.01     0.04  -0.05  -0.01
   2   6    -0.23  -0.09   0.06    -0.30   0.09   0.01    -0.18   0.05   0.00
   3   6     0.06   0.16  -0.05     0.10  -0.01  -0.02     0.06  -0.02  -0.01
   4   6     0.50   0.06  -0.01     0.15  -0.31   0.01     0.05  -0.35   0.01
   5   6     0.16  -0.07   0.00     0.18  -0.07   0.00    -0.30   0.25  -0.01
   6   6    -0.15   0.10  -0.00     0.06   0.14  -0.01     0.31   0.14  -0.01
   7   6    -0.07   0.03  -0.00     0.00   0.13  -0.00    -0.07  -0.40   0.02
   8   6    -0.11  -0.13   0.01    -0.10   0.06   0.00    -0.29   0.16  -0.00
   9   6     0.14  -0.08  -0.00    -0.08   0.00  -0.00     0.43   0.16  -0.01
  10   1    -0.00  -0.01   0.04     0.02   0.03   0.05     0.02   0.03   0.04
  11   1    -0.01   0.01   0.06    -0.06  -0.02  -0.03    -0.03  -0.01  -0.01
  12   1    -0.04  -0.04  -0.05    -0.04   0.01  -0.02    -0.02   0.02  -0.00
  13   1    -0.47  -0.08   0.13     0.16   0.06   0.10     0.12   0.04   0.08
  14   1     0.03   0.03  -0.14    -0.07  -0.01   0.02    -0.03  -0.01   0.01
  15   1    -0.00  -0.03  -0.04     0.02   0.02  -0.07     0.02   0.02  -0.05
  16   1    -0.04  -0.05   0.06    -0.05   0.02   0.02    -0.03   0.02   0.01
  17   1     0.11  -0.06  -0.00    -0.38   0.32  -0.02     0.04  -0.03   0.00
  18   1    -0.28  -0.06   0.01    -0.35  -0.10   0.01     0.06   0.03  -0.00
  19   1    -0.02   0.04  -0.00    -0.04  -0.20   0.01     0.00   0.06  -0.00
  20   1    -0.31   0.18  -0.00     0.18  -0.15   0.00    -0.12   0.07  -0.00
  21   1    -0.10  -0.08   0.01     0.34   0.14  -0.00    -0.14  -0.06   0.00
                     34                     35                     36
                        a                      a                      a 
 Frequencies --  1298.6266              1327.2765              1361.9061
 Red. masses --     3.2895                 5.5441                 2.9928
 Frc consts  --     0.0000                 0.0000                 0.0000
 IR Inten    --     9.6426                 8.9772               231.6623
 Raman Activ --     0.0000                 0.0000                 0.0000
 Depolar     --     0.0000                 0.0000                 0.0000
 Atom AN      X      Y      Z        X      Y      Z        X      Y      Z
   1   7     0.04   0.18   0.02     0.04  -0.10  -0.07    -0.18  -0.12  -0.31
   2   6    -0.11  -0.01   0.34    -0.41   0.02   0.06     0.03  -0.01   0.06
   3   6     0.05  -0.15  -0.03     0.11  -0.06  -0.01     0.01  -0.00  -0.05
   4   6     0.05  -0.03  -0.03     0.15   0.12  -0.01     0.00   0.00  -0.01
   5   6     0.01  -0.01  -0.01     0.13  -0.03   0.00    -0.02  -0.01   0.00
   6   6     0.02   0.03   0.00    -0.26  -0.03   0.00     0.05   0.00   0.00
   7   6    -0.02  -0.01  -0.00    -0.01   0.02  -0.00     0.00   0.02  -0.00
   8   6    -0.03  -0.01   0.00     0.20  -0.17   0.00    -0.05   0.02   0.00
   9   6     0.04   0.01   0.01    -0.06   0.05  -0.00     0.02  -0.02   0.00
  10   1    -0.03  -0.11  -0.05     0.03   0.07   0.10     0.03   0.26   0.46
  11   1    -0.03   0.04   0.03    -0.03  -0.02   0.04     0.26   0.04   0.43
  12   1    -0.06  -0.10  -0.09    -0.00   0.08   0.02     0.36   0.26   0.27
  13   1    -0.04  -0.07  -0.84     0.62   0.12   0.03    -0.09  -0.03  -0.15
  14   1    -0.04  -0.03   0.07    -0.07  -0.02   0.02    -0.01   0.00   0.06
  15   1     0.04   0.11  -0.09     0.03   0.05  -0.08     0.00  -0.00   0.05
  16   1     0.01   0.07  -0.07    -0.06   0.06  -0.00    -0.04  -0.03   0.03
  17   1    -0.03   0.02  -0.00     0.08  -0.04  -0.00    -0.02   0.01  -0.00
  18   1    -0.04  -0.01  -0.00     0.12   0.07  -0.00    -0.03  -0.02   0.00
  19   1    -0.01  -0.00  -0.00     0.02   0.18  -0.01    -0.01  -0.04   0.00
  20   1    -0.02   0.01   0.00    -0.16   0.13  -0.00     0.03  -0.03   0.00
  21   1    -0.01  -0.01  -0.01    -0.20  -0.05   0.00     0.02  -0.00  -0.00
                     37                     38                     39
                        a                      a                      a 
 Frequencies --  1418.4344              1422.5078              1426.2025
 Red. masses --     5.8385                 4.4960                 2.0723
 Frc consts  --     0.0000                 0.0000                 0.0000
 IR Inten    --    29.3542                60.3384                56.2075
 Raman Activ --     0.0000                 0.0000                 0.0000
 Depolar     --     0.0000                 0.0000                 0.0000
 Atom AN      X      Y      Z        X      Y      Z        X      Y      Z
   1   7     0.04   0.09  -0.04     0.06   0.12  -0.06    -0.13   0.13  -0.01
   2   6     0.08   0.06  -0.02    -0.06  -0.03  -0.01    -0.01   0.03  -0.02
   3   6     0.06   0.04  -0.18     0.06   0.02  -0.14    -0.06  -0.06   0.18
   4   6    -0.08  -0.31   0.01     0.05   0.27  -0.01    -0.03  -0.04   0.01
   5   6     0.20   0.06  -0.01    -0.17  -0.05   0.00     0.05  -0.02   0.00
   6   6    -0.21   0.10  -0.00     0.17  -0.09   0.00    -0.01   0.04  -0.00
   7   6    -0.05  -0.27   0.01     0.04   0.22  -0.01    -0.03  -0.04   0.00
   8   6     0.24   0.02  -0.00    -0.20  -0.02   0.00     0.05  -0.03   0.00
   9   6    -0.15   0.14  -0.00     0.13  -0.11   0.00     0.01   0.04  -0.00
  10   1    -0.07  -0.28   0.14    -0.11  -0.43   0.20    -0.06  -0.13   0.37
  11   1    -0.22  -0.01  -0.00    -0.35  -0.02  -0.06     0.16   0.02  -0.35
  12   1     0.15  -0.02   0.06     0.22  -0.07   0.07     0.42  -0.48   0.03
  13   1    -0.17  -0.02  -0.00     0.17   0.03   0.04     0.01   0.01   0.06
  14   1    -0.05   0.03   0.23    -0.03   0.02   0.17     0.05  -0.03  -0.25
  15   1     0.01  -0.03   0.25     0.01   0.01   0.20     0.00   0.05  -0.21
  16   1    -0.18  -0.14   0.16    -0.17  -0.10   0.13     0.14   0.17  -0.15
  17   1    -0.06   0.11  -0.00     0.08  -0.11   0.01    -0.04   0.04  -0.00
  18   1     0.11   0.10  -0.00    -0.08  -0.08   0.00    -0.01   0.01  -0.00
  19   1     0.04   0.26  -0.01    -0.03  -0.21   0.01    -0.00   0.04  -0.00
  20   1    -0.09   0.14  -0.00     0.07  -0.11   0.00    -0.04   0.03  -0.00
  21   1     0.09   0.09  -0.00    -0.08  -0.08   0.00    -0.02   0.01   0.00
                     40                     41                     42
                        a                      a                      a 
 Frequencies --  1429.9329              1454.7260              1478.9540
 Red. masses --     2.3784                 8.5313                 1.6976
 Frc consts  --     0.0000                 0.0000                 0.0000
 IR Inten    --    19.9209                 0.4492                22.0751
 Raman Activ --     0.0000                 0.0000                 0.0000
 Depolar     --     0.0000                 0.0000                 0.0000
 Atom AN      X      Y      Z        X      Y      Z        X      Y      Z
   1   7    -0.12  -0.00   0.11    -0.02   0.01  -0.00     0.01  -0.01   0.01
   2   6    -0.05  -0.02   0.04    -0.10   0.02   0.02     0.06  -0.05  -0.02
   3   6     0.12   0.07  -0.24     0.04  -0.02   0.00     0.07  -0.18   0.01
   4   6    -0.01   0.05  -0.01     0.39  -0.08  -0.00    -0.07   0.00   0.00
   5   6    -0.01  -0.03   0.00    -0.13   0.28  -0.01     0.01  -0.03   0.00
   6   6     0.04   0.00   0.00    -0.28  -0.21   0.01     0.05   0.03  -0.00
   7   6    -0.02   0.04  -0.00     0.25  -0.08   0.00    -0.04   0.02  -0.00
   8   6    -0.01  -0.03   0.00    -0.19   0.31  -0.01     0.04  -0.05   0.00
   9   6     0.04   0.00  -0.00    -0.23  -0.22   0.01     0.03   0.03  -0.00
  10   1     0.06   0.34  -0.04    -0.00   0.01   0.03     0.01   0.02  -0.04
  11   1     0.46   0.03  -0.30     0.03   0.00  -0.05     0.00   0.00   0.04
  12   1    -0.01  -0.35  -0.12     0.03  -0.06  -0.01    -0.04   0.05  -0.00
  13   1     0.05   0.00  -0.03    -0.04   0.00  -0.00    -0.04  -0.02   0.03
  14   1    -0.15   0.02   0.27    -0.07  -0.02  -0.08     0.05  -0.05  -0.41
  15   1     0.00  -0.11   0.32     0.01   0.01   0.06     0.09   0.36   0.40
  16   1    -0.24  -0.14   0.18    -0.08   0.10  -0.01    -0.48   0.47  -0.00
  17   1     0.00  -0.01  -0.01     0.23  -0.12   0.00    -0.04   0.03   0.00
  18   1    -0.03  -0.02   0.00     0.25   0.07  -0.01    -0.03  -0.01  -0.00
  19   1    -0.01  -0.03  -0.00     0.08   0.01  -0.00    -0.01  -0.00  -0.00
  20   1    -0.01  -0.00   0.00     0.21  -0.12   0.00    -0.03   0.02  -0.00
  21   1    -0.04  -0.02   0.00     0.26   0.06  -0.00    -0.03  -0.00   0.00
                     43                     44                     45
                        a                      a                      a 
 Frequencies --  1482.6119              1563.5096              1567.6866
 Red. masses --     1.6723                11.4291                11.4257
 Frc consts  --     0.0000                 0.0000                 0.0000
 IR Inten    --     7.7732                 0.8843                 1.2074
 Raman Activ --     0.0000                 0.0000                 0.0000
 Depolar     --     0.0000                 0.0000                 0.0000
 Atom AN      X      Y      Z        X      Y      Z        X      Y      Z
   1   7     0.01   0.01  -0.02    -0.01  -0.00  -0.01     0.00   0.00   0.00
   2   6     0.07   0.01   0.03    -0.03  -0.03   0.01     0.01  -0.04  -0.00
   3   6     0.19   0.10   0.05    -0.01  -0.00   0.00     0.00   0.00  -0.00
   4   6    -0.05   0.01  -0.00     0.21   0.34  -0.01    -0.17   0.34  -0.01
   5   6    -0.00  -0.02   0.00    -0.18  -0.11   0.01     0.38  -0.34   0.01
   6   6     0.04   0.01  -0.00     0.42   0.26  -0.01    -0.23   0.14  -0.00
   7   6    -0.02   0.00  -0.00    -0.21  -0.40   0.02     0.11  -0.37   0.01
   8   6     0.02  -0.02   0.00     0.21   0.12  -0.01    -0.36   0.34  -0.01
   9   6     0.01   0.01  -0.00    -0.43  -0.23   0.01     0.23  -0.11   0.00
  10   1    -0.01  -0.06   0.00    -0.00  -0.00  -0.00     0.00  -0.00  -0.01
  11   1    -0.07  -0.00   0.04     0.00   0.00  -0.00     0.00   0.00   0.01
  12   1     0.01   0.04   0.02     0.00  -0.00  -0.00    -0.01   0.01   0.00
  13   1    -0.02  -0.00  -0.03     0.06   0.01  -0.00     0.06   0.00  -0.00
  14   1    -0.66  -0.09  -0.19     0.01   0.00  -0.01    -0.00  -0.00  -0.01
  15   1    -0.11  -0.57   0.09     0.00   0.01  -0.00     0.00  -0.00   0.01
  16   1     0.03   0.28  -0.15    -0.00   0.00  -0.00    -0.01   0.01   0.00
  17   1    -0.00  -0.00  -0.01    -0.02  -0.04  -0.00    -0.11   0.07  -0.00
  18   1    -0.02  -0.01   0.00    -0.11  -0.02   0.00     0.02   0.07  -0.00
  19   1    -0.01  -0.00  -0.00    -0.02   0.11  -0.00     0.06   0.08  -0.00
  20   1    -0.02   0.01   0.00     0.01   0.07  -0.00     0.10  -0.06   0.00
  21   1    -0.02  -0.00   0.00     0.12   0.03  -0.00    -0.02  -0.06   0.00
                     46                     47                     48
                        a                      a                      a 
 Frequencies --  2895.7480              3023.2344              3032.3282
 Red. masses --     1.7592                 1.8857                 1.8920
 Frc consts  --     0.0000                 0.0000                 0.0000
 IR Inten    --     6.4745                21.2272                 1.2922
 Raman Activ --     0.0000                 0.0000                 0.0000
 Depolar     --     0.0000                 0.0000                 0.0000
 Atom AN      X      Y      Z        X      Y      Z        X      Y      Z
   1   7    -0.00  -0.00  -0.00     0.00   0.00  -0.00     0.00   0.00   0.00
   2   6     0.04  -0.26   0.02    -0.01   0.01  -0.00    -0.00  -0.01  -0.00
   3   6    -0.00   0.01   0.00    -0.27   0.09  -0.04    -0.06  -0.22  -0.17
   4   6     0.01  -0.01   0.00     0.00  -0.00   0.00     0.00  -0.00  -0.00
   5   6     0.00   0.00   0.00    -0.00  -0.00   0.00     0.00   0.00  -0.00
   6   6    -0.00  -0.00  -0.00     0.00  -0.00   0.00    -0.00   0.00  -0.00
   7   6    -0.00   0.00  -0.00    -0.00  -0.00   0.00    -0.00   0.00   0.00
   8   6     0.00  -0.00  -0.00    -0.00  -0.00  -0.00    -0.00  -0.00   0.00
   9   6    -0.00   0.00  -0.00     0.00  -0.00   0.00    -0.00   0.00   0.00
  10   1     0.00  -0.00  -0.00     0.00   0.00   0.00    -0.00   0.00  -0.00
  11   1     0.00  -0.02  -0.00    -0.00  -0.00   0.00     0.00  -0.00   0.00
  12   1    -0.00  -0.00  -0.00    -0.00  -0.00   0.00    -0.00  -0.00   0.00
  13   1    -0.14   0.95  -0.06     0.00  -0.02   0.00    -0.00   0.03  -0.00
  14   1     0.00  -0.04   0.01    -0.01  -0.21   0.01    -0.06   0.41  -0.06
  15   1     0.02  -0.00   0.00     0.90  -0.19  -0.02    -0.09  -0.01  -0.02
  16   1    -0.01  -0.00  -0.01     0.05   0.10   0.15     0.38   0.36   0.68
  17   1    -0.00  -0.00  -0.00     0.00   0.01  -0.00    -0.00  -0.01  -0.00
  18   1     0.00  -0.00  -0.00    -0.00  -0.00  -0.00     0.00  -0.00  -0.00
  19   1     0.00  -0.00   0.00     0.00  -0.00  -0.00     0.00   0.00   0.00
  20   1     0.00   0.00   0.00     0.00   0.00  -0.00     0.00   0.00   0.00
  21   1     0.00  -0.00   0.00    -0.00   0.00   0.00     0.00  -0.00   0.00
                     49                     50                     51
                        a                      a                      a 
 Frequencies --  3044.3472              3107.8713              3111.9079
 Red. masses --     1.4024                 1.7704                 1.8000
 Frc consts  --     0.0000                 0.0000                 0.0000
 IR Inten    --     7.8675                 0.5610                 2.2485
 Raman Activ --     0.0000                 0.0000                 0.0000
 Depolar     --     0.0000                 0.0000                 0.0000
 Atom AN      X      Y      Z        X      Y      Z        X      Y      Z
   1   7    -0.00  -0.00   0.00    -0.00  -0.00   0.00    -0.00  -0.00   0.00
   2   6    -0.00   0.01  -0.00    -0.00  -0.00  -0.00     0.00  -0.00  -0.00
   3   6     0.00   0.16  -0.11     0.00  -0.00   0.00     0.00  -0.00   0.00
   4   6    -0.00   0.00  -0.00    -0.00  -0.00   0.00    -0.00  -0.01   0.00
   5   6    -0.00  -0.01   0.00    -0.04  -0.04   0.00    -0.07  -0.09   0.00
   6   6    -0.00   0.00  -0.00    -0.05   0.14  -0.00    -0.06   0.14  -0.00
   7   6    -0.00   0.00   0.00     0.18  -0.03  -0.00    -0.04   0.01   0.00
   8   6    -0.00  -0.00   0.00    -0.07  -0.09   0.00     0.10   0.13  -0.01
   9   6     0.00  -0.00  -0.00    -0.01   0.03  -0.00     0.03  -0.08   0.00
  10   1     0.00   0.00  -0.00    -0.00   0.00   0.00    -0.00  -0.00   0.00
  11   1     0.00  -0.00  -0.00     0.00   0.00   0.00     0.00   0.01   0.00
  12   1     0.00   0.00  -0.00     0.00   0.00  -0.00     0.00   0.00  -0.00
  13   1     0.00  -0.03   0.00     0.00  -0.00  -0.00    -0.00   0.00  -0.00
  14   1     0.10  -0.84   0.07    -0.00   0.01  -0.00    -0.00   0.01  -0.00
  15   1    -0.28   0.08  -0.01     0.00  -0.00  -0.00     0.00  -0.00  -0.00
  16   1     0.17   0.20   0.31    -0.00  -0.00  -0.00    -0.00  -0.00  -0.00
  17   1     0.01   0.02  -0.00     0.13   0.17  -0.01     0.26   0.34  -0.02
  18   1     0.00  -0.00   0.00     0.20  -0.50   0.02     0.19  -0.48   0.02
  19   1     0.00  -0.00   0.00    -0.64   0.09   0.00     0.14  -0.02  -0.00
  20   1     0.00   0.00   0.00     0.25   0.32  -0.01    -0.37  -0.46   0.02
  21   1    -0.00   0.01   0.00     0.04  -0.11   0.00    -0.12   0.30  -0.01
                     52                     53                     54
                        a                      a                      a 
 Frequencies --  3117.9255              3123.0748              3125.5280
 Red. masses --     1.8419                 1.8793                 1.9072
 Frc consts  --     0.0000                 0.0000                 0.0000
 IR Inten    --    17.8570                41.9137                 2.4183
 Raman Activ --     0.0000                 0.0000                 0.0000
 Depolar     --     0.0000                 0.0000                 0.0000
 Atom AN      X      Y      Z        X      Y      Z        X      Y      Z
   1   7     0.00  -0.00   0.00     0.00   0.00  -0.00    -0.00   0.00  -0.00
   2   6    -0.00  -0.00  -0.00     0.00   0.00   0.00     0.00   0.00   0.00
   3   6     0.00  -0.00   0.00    -0.00   0.00  -0.00     0.00   0.00   0.00
   4   6    -0.01   0.00   0.00     0.00   0.00  -0.00     0.01  -0.00  -0.00
   5   6    -0.08  -0.11   0.01     0.11   0.14  -0.01     0.04   0.06  -0.00
   6   6    -0.01   0.03  -0.00    -0.06   0.15  -0.00    -0.03   0.08  -0.00
   7   6    -0.17   0.03   0.00    -0.06   0.01   0.00    -0.10   0.02   0.00
   8   6    -0.06  -0.08   0.00     0.03   0.04  -0.00    -0.09  -0.12   0.01
   9   6    -0.04   0.12  -0.00    -0.05   0.12  -0.00     0.07  -0.18   0.01
  10   1    -0.00   0.00   0.00     0.00   0.00  -0.00    -0.00   0.00  -0.00
  11   1     0.00   0.01   0.00    -0.00  -0.01  -0.00     0.00  -0.01   0.00
  12   1     0.00   0.00  -0.00    -0.00  -0.00   0.00     0.00   0.00  -0.00
  13   1     0.00  -0.00   0.00     0.00  -0.00   0.00    -0.00   0.00  -0.00
  14   1    -0.00   0.01  -0.00     0.00  -0.02   0.00     0.00  -0.00  -0.00
  15   1    -0.00  -0.00  -0.00     0.00  -0.00   0.00    -0.00   0.00  -0.00
  16   1    -0.00  -0.00  -0.00     0.00   0.00   0.00     0.00  -0.00  -0.00
  17   1     0.30   0.39  -0.02    -0.38  -0.49   0.03    -0.15  -0.20   0.01
  18   1     0.04  -0.11   0.00     0.19  -0.49   0.02     0.10  -0.26   0.01
  19   1     0.57  -0.08  -0.00     0.20  -0.03  -0.00     0.34  -0.05  -0.00
  20   1     0.22   0.28  -0.01    -0.11  -0.14   0.01     0.31   0.39  -0.02
  21   1     0.16  -0.42   0.01     0.16  -0.40   0.01    -0.23   0.60  -0.02
                     55                     56                     57
                        a                      a                      a 
 Frequencies --  3266.3189              3272.0248              3282.6912
 Red. masses --     2.0159                 2.0353                 1.2972
 Frc consts  --     0.0000                 0.0000                 0.0000
 IR Inten    --    62.3566                62.1160                23.2104
 Raman Activ --     0.0000                 0.0000                 0.0000
 Depolar     --     0.0000                 0.0000                 0.0000
 Atom AN      X      Y      Z        X      Y      Z        X      Y      Z
   1   7     0.22  -0.16   0.00     0.14   0.19  -0.15     0.00  -0.07  -0.13
   2   6     0.00  -0.00   0.00     0.00   0.01  -0.00    -0.00  -0.01  -0.01
   3   6    -0.00   0.00  -0.00     0.00  -0.00   0.00    -0.00   0.00  -0.00
   4   6    -0.00   0.00   0.00    -0.00   0.00  -0.00    -0.00  -0.00  -0.00
   5   6     0.00   0.00  -0.00    -0.00  -0.00   0.00     0.00   0.00  -0.00
   6   6    -0.00  -0.00  -0.00     0.00  -0.00   0.00    -0.00   0.00  -0.00
   7   6     0.00   0.00   0.00     0.00  -0.00   0.00    -0.00   0.00   0.00
   8   6     0.00   0.00  -0.00     0.00   0.00   0.00    -0.00  -0.00  -0.00
   9   6    -0.00  -0.00   0.00     0.00   0.00   0.00     0.00  -0.00  -0.00
  10   1    -0.82   0.19  -0.02    -0.28   0.09  -0.02     0.37  -0.09  -0.00
  11   1    -0.02   0.46  -0.02     0.07  -0.60   0.02    -0.06   0.60  -0.04
  12   1     0.00  -0.03   0.04    -0.30  -0.22   0.58    -0.31  -0.24   0.56
  13   1    -0.00   0.01  -0.00     0.00  -0.01   0.00    -0.00   0.01  -0.00
  14   1     0.00  -0.00  -0.00     0.00  -0.00   0.00    -0.00  -0.00  -0.00
  15   1     0.00  -0.00   0.00    -0.00   0.00   0.00    -0.00  -0.00  -0.00
  16   1    -0.00  -0.00  -0.00    -0.00  -0.00  -0.00     0.00   0.00   0.00
  17   1    -0.01  -0.01   0.00     0.01   0.01  -0.00    -0.00  -0.00   0.00
  18   1     0.00  -0.00   0.00    -0.00   0.00  -0.00     0.00  -0.00   0.00
  19   1    -0.00   0.00   0.00     0.00   0.00   0.00     0.00  -0.00   0.00
  20   1     0.00  -0.00  -0.00    -0.00  -0.00   0.00     0.00   0.00  -0.00
  21   1    -0.00   0.00   0.00     0.00  -0.00   0.00    -0.00   0.00   0.00
