 Entering Gaussian System
 *********************************************
 Gaussian 98:
 frequency output generated by the xtb code
 *********************************************
                         Standard orientation:
 --------------------------------------------------------------------
  Center     Atomic     Atomic              Coordinates (Angstroms)
  Number     Number      Type              X           Y           Z
 --------------------------------------------------------------------
    1          7             0       -8.216620    2.102223   -0.123955
    2          6             0       -8.573644    0.845816    0.600269
    3          6             0       -8.097073   -0.419728   -0.116381
    4          6             0       -6.619964   -0.613706   -0.082496
    5          6             0       -5.970080   -1.814179   -0.067346
    6          6             0       -4.562300   -1.711616   -0.047111
    7          6             0       -4.094373   -0.418189   -0.048655
    8          6             0       -2.729500   -0.018156   -0.031260
    9          6             0       -2.263184    1.281612   -0.026314
   10          6             0       -0.869943    1.406275   -0.010949
   11          6             0       -0.206556    2.737901   -0.002664
   12          6             0       -0.202329    0.175351   -0.005890
   13          6             0        1.200200   -0.037656    0.002506
   14          6             0        1.860974   -1.271140    0.012566
   15          6             0        1.214807   -2.506487    0.017750
   16          7             0        0.662372   -3.529984    0.021874
   17          6             0        3.282684   -1.166267    0.015941
   18          6             0        4.103908   -2.294492    0.024960
   19          7             0        4.801744   -3.224485    0.032689
   20          6             0        3.756191    0.148130    0.008297
   21          6             0        5.120773    0.563503    0.007121
   22          6             0        5.599930    1.867171   -0.002183
   23          6             0        4.755787    3.092495   -0.013312
   24          6             0        7.013761    1.939953   -0.000898
   25          6             0        7.633495    0.734890    0.009062
   26         16             0        6.486318   -0.535874    0.017058
   27         16             0        2.395927    1.221278   -0.000160
   28         16             0       -1.387236   -1.110693   -0.013393
   29         16             0       -5.455637    0.665168   -0.077072
   30          1             0       -8.515264    2.938086    0.391925
   31          1             0       -8.652683    2.125124   -1.052614
   32          1             0       -7.201380    2.156827   -0.256449
   33          1             0       -9.661584    0.817632    0.738222
   34          1             0       -8.144581    0.873676    1.608677
   35          1             0       -8.424787   -0.394568   -1.160750
   36          1             0       -8.575046   -1.302225    0.325152
   37          1             0       -6.490245   -2.759836   -0.073623
   38          1             0       -3.905094   -2.567410   -0.032422
   39          1             0       -2.927109    2.130815   -0.033934
   40          1             0        0.416732    2.863857   -0.887797
   41          1             0        0.421318    2.850660    0.881544
   42          1             0       -0.939852    3.544655    0.005597
   43          1             0        4.118340    3.129850    0.870430
   44          1             0        4.120584    3.115297   -0.899180
   45          1             0        5.368101    3.994012   -0.019986
   46          1             0        7.548026    2.877931   -0.007551
   47          1             0        8.695674    0.578745    0.011589
 --------------------------------------------------------------------
     1 basis functions        1 primitive gaussians
     1 alpha electrons        1 beta electrons

 Harmonic frequencies (cm**-1), IR intensities (km*mol⁻¹),
 Raman scattering activities (A**4/amu), Raman depolarization ratios,
 reduced masses (AMU), force constants (mDyne/A) and normal coordinates:
                      1                      2                      3
                        a                      a                      a 
 Frequencies --   -36.4662                11.1576                28.4642
 Red. masses --    15.9389                17.7801                12.5244
 Frc consts  --     0.0000                 0.0000                 0.0000
 IR Inten    --     0.5494                 5.4412                 3.9861
 Raman Activ --     0.0000                 0.0000                 0.0000
 Depolar     --     0.0000                 0.0000                 0.0000
 Atom AN      X      Y      Z        X      Y      Z        X      Y      Z
   1   7     0.00   0.01  -0.04     0.02   0.05  -0.25     0.03   0.06   0.30
   2   6     0.06   0.03   0.03     0.10   0.12  -0.06     0.09   0.04   0.29
   3   6    -0.00   0.01   0.02    -0.00   0.05   0.00    -0.01   0.05   0.19
   4   6    -0.00   0.00  -0.07    -0.01   0.00  -0.06    -0.01   0.02   0.04
   5   6    -0.00  -0.00  -0.31    -0.02  -0.01  -0.27    -0.03   0.01  -0.11
   6   6    -0.00  -0.01  -0.29    -0.02  -0.03  -0.23    -0.03  -0.02  -0.18
   7   6    -0.00  -0.01  -0.04    -0.00  -0.03   0.00    -0.01  -0.02  -0.10
   8   6    -0.00  -0.01   0.03    -0.00  -0.04   0.05    -0.00  -0.03  -0.14
   9   6    -0.01  -0.01   0.15    -0.01  -0.04   0.01    -0.00  -0.03  -0.28
  10   6    -0.01  -0.01   0.15    -0.01  -0.03   0.00    -0.00  -0.03  -0.28
  11   6    -0.01  -0.01   0.23    -0.02  -0.03  -0.07    -0.01  -0.03  -0.40
  12   6    -0.00  -0.01   0.04    -0.00  -0.03   0.05    -0.00  -0.03  -0.15
  13   6    -0.00  -0.00   0.02    -0.00  -0.02   0.05    -0.00  -0.02  -0.10
  14   6     0.00  -0.00   0.02     0.01  -0.01   0.08     0.01  -0.02  -0.05
  15   6     0.00  -0.00   0.03     0.02  -0.02   0.12     0.01  -0.02  -0.07
  16   7     0.00  -0.00   0.03     0.02  -0.02   0.15     0.02  -0.02  -0.09
  17   6     0.00   0.00   0.02     0.01  -0.00   0.04     0.01  -0.00   0.02
  18   6     0.00   0.00   0.01     0.02   0.01   0.08     0.01   0.00   0.05
  19   7     0.00   0.00  -0.00     0.02   0.01   0.11     0.02   0.01   0.06
  20   6    -0.00   0.00   0.00    -0.00   0.00  -0.01    -0.00  -0.00   0.02
  21   6    -0.00   0.00  -0.02    -0.01   0.01  -0.04    -0.01   0.01   0.08
  22   6    -0.01   0.00  -0.22    -0.02   0.02   0.10    -0.02   0.02   0.08
  23   6    -0.01   0.00  -0.41    -0.03   0.01   0.25    -0.03   0.01   0.04
  24   6    -0.01   0.01  -0.20    -0.02   0.03   0.04    -0.02   0.03   0.13
  25   6    -0.00   0.01   0.04    -0.01   0.04  -0.16    -0.01   0.04   0.17
  26  16    -0.00   0.01   0.39     0.00   0.04  -0.46     0.00   0.04   0.25
  27  16    -0.01  -0.00  -0.01    -0.02  -0.02  -0.02    -0.02  -0.02  -0.12
  28  16     0.00  -0.02  -0.15     0.00  -0.06   0.18    -0.00  -0.05  -0.00
  29  16    -0.00  -0.00   0.32     0.02  -0.02   0.37     0.01  -0.00   0.13
  30   1     0.08   0.01   0.03     0.16   0.03  -0.01     0.08   0.01   0.12
  31   1    -0.08   0.03   0.03    -0.15   0.05   0.01    -0.07   0.05   0.12
  32   1    -0.01  -0.03  -0.10    -0.01  -0.07  -0.24     0.00  -0.02  -0.00
  33   1     0.02   0.01   0.04     0.03   0.05   0.03     0.03   0.02   0.12
  34   1     0.05   0.01  -0.00     0.07   0.06  -0.04     0.06  -0.00   0.07
  35   1    -0.02   0.00   0.01    -0.02  -0.01   0.01    -0.03   0.03   0.07
  36   1     0.00   0.01   0.02    -0.00   0.03   0.03     0.00   0.01   0.06
  37   1    -0.00  -0.00  -0.14    -0.01   0.00  -0.13    -0.01   0.00  -0.05
  38   1    -0.00  -0.00  -0.13    -0.01  -0.01  -0.11    -0.01  -0.01  -0.08
  39   1    -0.00  -0.00   0.07    -0.00  -0.01  -0.01    -0.00  -0.01  -0.11
  40   1    -0.01   0.02   0.06    -0.01  -0.02  -0.03     0.00  -0.03  -0.12
  41   1     0.00  -0.02   0.06    -0.00   0.00  -0.03    -0.01   0.02  -0.11
  42   1    -0.00  -0.00   0.09    -0.01  -0.01  -0.03    -0.00  -0.01  -0.14
  43   1    -0.00   0.04  -0.12    -0.01  -0.03   0.08    -0.02  -0.00   0.00
  44   1    -0.00  -0.04  -0.12    -0.01   0.03   0.08     0.00   0.00   0.00
  45   1    -0.00   0.00  -0.15    -0.01   0.01   0.10    -0.01   0.00   0.02
  46   1    -0.00   0.00  -0.10    -0.01   0.01   0.04    -0.01   0.01   0.04
  47   1    -0.00   0.00   0.04    -0.00   0.01  -0.07    -0.00   0.01   0.06
                      4                      5                      6
                        a                      a                      a 
 Frequencies --    36.3578                41.1316                52.3918
 Red. masses --    13.1916                18.2077                16.9557
 Frc consts  --     0.0000                 0.0000                 0.0000
 IR Inten    --     4.7227                 5.4874                 2.3878
 Raman Activ --     0.0000                 0.0000                 0.0000
 Depolar     --     0.0000                 0.0000                 0.0000
 Atom AN      X      Y      Z        X      Y      Z        X      Y      Z
   1   7    -0.11  -0.19   0.27     0.11   0.15   0.27     0.09   0.10   0.24
   2   6    -0.10  -0.28   0.08     0.05   0.09   0.14    -0.07  -0.02  -0.06
   3   6     0.01  -0.17  -0.03    -0.01   0.14   0.01    -0.01   0.08  -0.20
   4   6     0.03  -0.06  -0.08    -0.02   0.07  -0.04    -0.01   0.06  -0.15
   5   6     0.10  -0.02  -0.21    -0.08   0.04   0.01    -0.04   0.05  -0.20
   6   6     0.09   0.05  -0.22    -0.07  -0.02  -0.04    -0.04   0.01  -0.13
   7   6     0.02   0.08  -0.10    -0.01  -0.04  -0.13    -0.01  -0.00  -0.03
   8   6     0.01   0.12  -0.07    -0.00  -0.08  -0.12     0.00  -0.03   0.05
   9   6     0.01   0.12  -0.04    -0.00  -0.08   0.04     0.02  -0.04  -0.08
  10   6     0.01   0.12  -0.02    -0.00  -0.08   0.08     0.02  -0.05  -0.02
  11   6     0.02   0.11   0.00    -0.01  -0.08   0.25     0.02  -0.05  -0.12
  12   6     0.01   0.11  -0.01    -0.00  -0.08  -0.03     0.00  -0.06   0.14
  13   6     0.00   0.09   0.02    -0.00  -0.07   0.01     0.00  -0.06   0.14
  14   6    -0.04   0.07   0.09     0.03  -0.05   0.09     0.02  -0.05   0.08
  15   6    -0.06   0.08   0.15     0.05  -0.06   0.17     0.03  -0.05   0.05
  16   7    -0.07   0.09   0.19     0.05  -0.07   0.23     0.04  -0.06   0.03
  17   6    -0.03   0.02   0.09     0.02  -0.02   0.10     0.02  -0.03   0.01
  18   6    -0.07  -0.00   0.14     0.05   0.00   0.17     0.04  -0.01  -0.09
  19   7    -0.10  -0.02   0.17     0.07   0.01   0.21     0.06   0.00  -0.18
  20   6     0.01   0.01   0.02    -0.01  -0.01   0.02    -0.00  -0.02   0.03
  21   6     0.02  -0.04  -0.02    -0.02   0.03  -0.02    -0.01   0.01  -0.03
  22   6     0.08  -0.06   0.00    -0.06   0.05   0.00    -0.05   0.03  -0.09
  23   6     0.13  -0.03   0.06    -0.10   0.02   0.06    -0.08   0.01  -0.10
  24   6     0.08  -0.12  -0.04    -0.06   0.09  -0.04    -0.05   0.07  -0.14
  25   6     0.03  -0.15  -0.09    -0.02   0.11  -0.10    -0.02   0.09  -0.10
  26  16    -0.03  -0.16  -0.16     0.03   0.12  -0.16     0.03   0.09  -0.01
  27  16     0.07   0.08  -0.08    -0.05  -0.07  -0.09    -0.03  -0.07   0.23
  28  16     0.00   0.20  -0.06    -0.01  -0.14  -0.40    -0.02  -0.08   0.52
  29  16    -0.08   0.01   0.03     0.06   0.02  -0.31     0.03   0.05  -0.08
  30   1    -0.14  -0.08   0.05     0.01   0.03   0.08    -0.14  -0.00   0.02
  31   1     0.07  -0.07   0.02     0.06   0.06   0.06     0.20   0.00  -0.02
  32   1    -0.02   0.02   0.19     0.03   0.05   0.11     0.05   0.11   0.26
  33   1    -0.03  -0.10  -0.00     0.01   0.04   0.04    -0.03  -0.01  -0.07
  34   1    -0.05  -0.10   0.03     0.02  -0.01   0.04    -0.07  -0.06   0.01
  35   1    -0.00  -0.03  -0.01    -0.01   0.07   0.01     0.01   0.07  -0.06
  36   1     0.03  -0.07  -0.03    -0.01   0.03  -0.02    -0.01   0.01  -0.10
  37   1     0.04  -0.02  -0.09    -0.03   0.02   0.03    -0.02   0.02  -0.08
  38   1     0.04   0.03  -0.09    -0.03  -0.01  -0.00    -0.02  -0.00  -0.04
  39   1     0.00   0.04  -0.02     0.00  -0.02   0.04     0.01  -0.01  -0.07
  40   1     0.00   0.03  -0.00    -0.01   0.01   0.08     0.01  -0.04  -0.03
  41   1     0.01   0.02  -0.00    -0.00  -0.05   0.07     0.00   0.00  -0.03
  42   1     0.01   0.03   0.01    -0.00  -0.03   0.10     0.01  -0.02  -0.06
  43   1     0.04  -0.01   0.02    -0.03  -0.01   0.02    -0.01   0.01  -0.02
  44   1     0.04   0.01   0.02    -0.03   0.01   0.02    -0.04  -0.01  -0.02
  45   1     0.05  -0.02   0.03    -0.04   0.01   0.03    -0.03   0.01  -0.04
  46   1     0.03  -0.04  -0.01    -0.03   0.03  -0.01    -0.02   0.02  -0.06
  47   1     0.01  -0.05  -0.04    -0.01   0.04  -0.04    -0.00   0.03  -0.03
                      7                      8                      9
                        a                      a                      a 
 Frequencies --    65.7730                75.6851                82.9410
 Red. masses --    15.5139                14.6642                14.5915
 Frc consts  --     0.0000                 0.0000                 0.0000
 IR Inten    --     0.9364                 0.0332                 5.4645
 Raman Activ --     0.0000                 0.0000                 0.0000
 Depolar     --     0.0000                 0.0000                 0.0000
 Atom AN      X      Y      Z        X      Y      Z        X      Y      Z
   1   7    -0.03  -0.03   0.03    -0.00  -0.00  -0.02     0.32   0.13   0.07
   2   6     0.17  -0.00   0.17    -0.01   0.01  -0.00     0.12   0.11  -0.04
   3   6     0.01  -0.02   0.07    -0.00  -0.00   0.02     0.02   0.09  -0.07
   4   6     0.01  -0.05  -0.06    -0.00   0.00   0.02    -0.01  -0.06  -0.03
   5   6     0.01  -0.05   0.03     0.00   0.00   0.01    -0.08  -0.10  -0.03
   6   6     0.01  -0.04  -0.01     0.00   0.01   0.00    -0.07  -0.18   0.01
   7   6     0.01  -0.04  -0.14    -0.00   0.01   0.00    -0.00  -0.20   0.04
   8   6    -0.00  -0.01  -0.11     0.00   0.01  -0.01    -0.02  -0.17   0.05
   9   6    -0.03   0.00  -0.12     0.01   0.00  -0.02    -0.12  -0.13   0.05
  10   6    -0.03   0.03   0.00     0.01  -0.00  -0.02    -0.13  -0.01   0.02
  11   6    -0.05   0.04   0.04     0.01  -0.00  -0.02    -0.23   0.03   0.00
  12   6    -0.01   0.05   0.10     0.00  -0.00  -0.02    -0.04   0.04   0.00
  13   6    -0.01   0.06   0.15     0.00  -0.01   0.02    -0.03   0.12  -0.03
  14   6    -0.02   0.05   0.08     0.00  -0.01  -0.03    -0.03   0.13  -0.02
  15   6    -0.03   0.06   0.05     0.00  -0.01  -0.30    -0.00   0.12  -0.03
  16   7    -0.03   0.06   0.06     0.00  -0.01  -0.54     0.02   0.12  -0.06
  17   6    -0.02   0.04   0.03     0.00  -0.01   0.12    -0.03   0.13  -0.01
  18   6    -0.04   0.02  -0.09     0.00  -0.00   0.29    -0.07   0.10   0.03
  19   7    -0.07   0.01  -0.18     0.01   0.00   0.48    -0.13   0.07   0.07
  20   6    -0.01   0.03   0.09     0.00  -0.00   0.16    -0.03   0.12  -0.03
  21   6     0.00  -0.00   0.02    -0.00  -0.00   0.07    -0.00   0.05  -0.02
  22   6     0.04  -0.02  -0.05    -0.01   0.00  -0.06     0.11   0.00  -0.00
  23   6     0.08   0.01  -0.03    -0.01  -0.00  -0.01     0.21   0.07  -0.01
  24   6     0.04  -0.06  -0.14    -0.01   0.01  -0.24     0.12  -0.12   0.02
  25   6     0.01  -0.08  -0.12    -0.00   0.01  -0.25     0.01  -0.18   0.02
  26  16    -0.05  -0.07  -0.01     0.01   0.01  -0.06    -0.17  -0.12  -0.01
  27  16     0.00   0.08   0.38     0.00  -0.01   0.30    -0.05   0.22  -0.10
  28  16     0.03   0.04   0.12    -0.00   0.00  -0.02     0.11  -0.10   0.06
  29  16     0.01  -0.07  -0.41    -0.00   0.01   0.03     0.11  -0.22   0.02
  30   1     0.24   0.00   0.13    -0.02  -0.00  -0.02     0.01   0.03  -0.02
  31   1    -0.27   0.09   0.13     0.02  -0.02  -0.02     0.19   0.02  -0.03
  32   1    -0.04  -0.12  -0.28     0.00   0.01   0.02     0.10   0.06   0.13
  33   1     0.06   0.00   0.13    -0.00   0.00  -0.01     0.03   0.06  -0.03
  34   1     0.13   0.01   0.01    -0.01   0.01   0.00     0.01   0.01  -0.00
  35   1    -0.03   0.01   0.03    -0.00  -0.01   0.01     0.01   0.05  -0.02
  36   1     0.01  -0.00   0.03     0.00   0.00   0.01    -0.03   0.04  -0.03
  37   1     0.00  -0.01   0.04     0.00   0.00   0.00    -0.04  -0.02  -0.01
  38   1     0.00  -0.01   0.02     0.00   0.00  -0.00    -0.03  -0.06   0.00
  39   1    -0.01  -0.00  -0.06     0.00   0.00  -0.01    -0.06  -0.05   0.02
  40   1     0.00   0.01   0.02     0.02  -0.01   0.00    -0.08   0.02  -0.00
  41   1    -0.03   0.02   0.02    -0.01   0.01   0.00    -0.06   0.02  -0.01
  42   1    -0.02   0.01  -0.01     0.00  -0.00  -0.03    -0.08  -0.00   0.01
  43   1     0.04   0.02   0.00     0.02   0.00   0.01     0.05   0.03  -0.01
  44   1     0.00  -0.00   0.01    -0.02  -0.00   0.01     0.07   0.03  -0.01
  45   1     0.03  -0.00  -0.03    -0.00  -0.00  -0.02     0.08   0.01   0.00
  46   1     0.02  -0.02  -0.06    -0.00   0.00  -0.10     0.06  -0.05   0.01
  47   1     0.00  -0.03  -0.05    -0.00   0.00  -0.10    -0.00  -0.08   0.01
                     10                     11                     12
                        a                      a                      a 
 Frequencies --    91.3013               107.8722               122.9625
 Red. masses --    16.3085                13.0204                13.1950
 Frc consts  --     0.0000                 0.0000                 0.0000
 IR Inten    --     1.5884                14.4712                 2.7045
 Raman Activ --     0.0000                 0.0000                 0.0000
 Depolar     --     0.0000                 0.0000                 0.0000
 Atom AN      X      Y      Z        X      Y      Z        X      Y      Z
   1   7    -0.11   0.01   0.19    -0.35   0.03   0.03     0.03   0.06   0.16
   2   6     0.02  -0.11   0.03    -0.28  -0.01  -0.03    -0.02  -0.10  -0.14
   3   6     0.00   0.03  -0.24    -0.16   0.05  -0.06     0.06   0.05  -0.36
   4   6     0.00   0.01  -0.16    -0.15   0.08   0.01     0.04  -0.00  -0.07
   5   6     0.00   0.01  -0.04    -0.18   0.07   0.01     0.03  -0.01   0.05
   6   6     0.00   0.02   0.09    -0.17   0.03   0.02     0.03  -0.02   0.20
   7   6    -0.00   0.02   0.09    -0.11   0.00   0.02     0.03  -0.03   0.21
   8   6     0.00   0.02   0.17    -0.07  -0.07  -0.01     0.03  -0.01   0.11
   9   6     0.01   0.01   0.15    -0.03  -0.09  -0.02     0.00  -0.00   0.09
  10   6     0.01   0.00   0.10    -0.03  -0.09  -0.03     0.00   0.02  -0.09
  11   6     0.02   0.00   0.09    -0.05  -0.08  -0.04    -0.01   0.02  -0.22
  12   6     0.00  -0.00   0.06    -0.00  -0.08  -0.03     0.01   0.02  -0.14
  13   6     0.00  -0.01  -0.06     0.03  -0.01  -0.00     0.00   0.02  -0.07
  14   6     0.00  -0.01  -0.04     0.10   0.02   0.01    -0.02   0.01  -0.01
  15   6     0.00  -0.01  -0.09     0.19  -0.02   0.02    -0.05   0.02   0.06
  16   7    -0.00  -0.01  -0.20     0.27  -0.06   0.04    -0.08   0.04   0.15
  17   6     0.00  -0.01  -0.04     0.10   0.08   0.02    -0.02  -0.01   0.06
  18   6     0.01  -0.01   0.12     0.14   0.11  -0.01    -0.04  -0.03  -0.02
  19   7     0.01  -0.00   0.23     0.19   0.15  -0.03    -0.07  -0.05  -0.11
  20   6     0.01  -0.01  -0.13     0.07   0.09   0.03    -0.01  -0.02   0.12
  21   6     0.00  -0.01  -0.08     0.09   0.04   0.02    -0.02  -0.01   0.10
  22   6    -0.00  -0.00  -0.02     0.19   0.01  -0.00    -0.04  -0.00  -0.00
  23   6    -0.01  -0.01  -0.05     0.26   0.06   0.02    -0.05  -0.01   0.13
  24   6    -0.00   0.01   0.10     0.19  -0.08  -0.04    -0.04   0.02  -0.20
  25   6     0.00   0.01   0.11     0.12  -0.12  -0.04    -0.02   0.02  -0.18
  26  16     0.02   0.00  -0.02     0.05  -0.07   0.02    -0.01   0.02   0.14
  27  16     0.01  -0.02  -0.42     0.02   0.06   0.06     0.01   0.00   0.10
  28  16    -0.01   0.01   0.35    -0.07  -0.13  -0.07     0.06   0.01  -0.29
  29  16    -0.00   0.03  -0.19    -0.17   0.08   0.06     0.09  -0.02   0.22
  30   1     0.17  -0.02   0.19    -0.05   0.00   0.04     0.14  -0.01   0.16
  31   1    -0.23   0.13   0.15    -0.14   0.04   0.03    -0.10   0.15   0.10
  32   1    -0.05  -0.08  -0.16    -0.10  -0.01  -0.04    -0.00  -0.05  -0.07
  33   1     0.01  -0.04   0.04    -0.08  -0.02  -0.02    -0.01  -0.04  -0.06
  34   1     0.04  -0.08  -0.01    -0.09  -0.01  -0.00    -0.02  -0.09  -0.03
  35   1     0.02   0.08  -0.07    -0.03   0.03  -0.02     0.09   0.10  -0.12
  36   1    -0.01  -0.02  -0.13    -0.04   0.00  -0.04    -0.02  -0.01  -0.20
  37   1     0.00   0.00  -0.01    -0.06   0.02   0.00     0.01  -0.00  -0.01
  38   1     0.00   0.01   0.05    -0.06  -0.00   0.00     0.01  -0.01   0.08
  39   1     0.00   0.01   0.04    -0.00  -0.02  -0.00    -0.00  -0.00   0.06
  40   1    -0.02   0.01   0.01    -0.01  -0.02  -0.01    -0.00  -0.02  -0.07
  41   1     0.04  -0.01   0.01    -0.02  -0.02  -0.01    -0.00   0.03  -0.07
  42   1     0.01   0.00   0.06    -0.02  -0.03  -0.02    -0.00   0.01  -0.08
  43   1    -0.03  -0.01  -0.03     0.08   0.02   0.01     0.00  -0.02   0.05
  44   1     0.02   0.01  -0.03     0.07   0.03   0.01    -0.03   0.01   0.05
  45   1    -0.00  -0.00   0.01     0.09   0.01   0.00    -0.02  -0.00   0.04
  46   1    -0.00   0.00   0.05     0.07  -0.03  -0.02    -0.01   0.01  -0.10
  47   1     0.00   0.00   0.05     0.03  -0.05  -0.02    -0.01   0.01  -0.08
                     13                     14                     15
                        a                      a                      a 
 Frequencies --   145.5962               147.1600               154.9546
 Red. masses --    17.3197                17.6829                14.8933
 Frc consts  --     0.0000                 0.0000                 0.0000
 IR Inten    --     2.8537                 0.5188                 5.1899
 Raman Activ --     0.0000                 0.0000                 0.0000
 Depolar     --     0.0000                 0.0000                 0.0000
 Atom AN      X      Y      Z        X      Y      Z        X      Y      Z
   1   7    -0.08   0.04   0.03    -0.01  -0.01  -0.09     0.12  -0.02   0.01
   2   6    -0.10   0.02  -0.01     0.01   0.05   0.04     0.10  -0.02   0.01
   3   6    -0.08   0.03  -0.02    -0.04  -0.02   0.12     0.04  -0.02  -0.02
   4   6    -0.08  -0.00   0.02    -0.04  -0.01   0.01     0.03  -0.03  -0.04
   5   6    -0.10  -0.02   0.01    -0.03  -0.01  -0.02     0.06  -0.02  -0.01
   6   6    -0.10  -0.06  -0.00    -0.03  -0.01  -0.05     0.05   0.03   0.02
   7   6    -0.04  -0.08  -0.01    -0.03  -0.01  -0.04     0.01   0.04   0.04
   8   6    -0.03  -0.09  -0.03    -0.02  -0.01   0.01    -0.01   0.06   0.04
   9   6    -0.04  -0.08  -0.03    -0.01  -0.01   0.02     0.02   0.04   0.05
  10   6    -0.04  -0.05  -0.01    -0.01  -0.02   0.03     0.03  -0.01   0.01
  11   6    -0.06  -0.03   0.00    -0.01  -0.02   0.10     0.07  -0.03  -0.05
  12   6     0.02  -0.01   0.01     0.00  -0.01   0.00    -0.02  -0.04  -0.01
  13   6     0.05   0.05   0.03     0.01   0.01  -0.07    -0.03  -0.06  -0.01
  14   6     0.02   0.04   0.00     0.01   0.00   0.01    -0.02  -0.06  -0.01
  15   6    -0.21   0.16  -0.00    -0.06   0.04   0.00    -0.12  -0.00  -0.00
  16   7    -0.55   0.35  -0.00    -0.16   0.10  -0.04    -0.31   0.09   0.02
  17   6     0.03  -0.04  -0.02     0.01  -0.01   0.07    -0.02  -0.01  -0.01
  18   6     0.02  -0.06   0.01     0.03   0.00  -0.01     0.24   0.18  -0.00
  19   7     0.04  -0.05   0.05     0.07   0.03  -0.16     0.61   0.45   0.01
  20   6     0.11  -0.06  -0.03     0.03  -0.02   0.07    -0.07   0.01   0.00
  21   6     0.13  -0.06  -0.04     0.04  -0.02   0.13    -0.07  -0.03  -0.00
  22   6     0.06  -0.03  -0.00     0.02  -0.01   0.01    -0.02  -0.05   0.00
  23   6     0.01  -0.07  -0.12     0.01  -0.02   0.38     0.00  -0.03  -0.02
  24   6     0.05   0.08   0.10     0.02   0.01  -0.33    -0.02  -0.10   0.02
  25   6     0.15   0.13   0.09     0.05   0.03  -0.28    -0.07  -0.12   0.02
  26  16     0.39   0.08  -0.11     0.12   0.02   0.36    -0.18  -0.13  -0.03
  27  16     0.21  -0.01   0.11     0.05  -0.01  -0.40    -0.13  -0.04   0.05
  28  16     0.03  -0.07  -0.03    -0.02  -0.01   0.18    -0.10   0.01  -0.04
  29  16    -0.05  -0.07   0.03    -0.06  -0.02  -0.11    -0.01   0.00  -0.01
  30   1    -0.01   0.01   0.02    -0.05   0.01  -0.07     0.04  -0.01   0.01
  31   1    -0.02   0.02   0.01     0.03  -0.05  -0.04     0.03  -0.00   0.00
  32   1    -0.02  -0.00   0.00     0.00   0.02   0.01     0.03  -0.01  -0.00
  33   1    -0.03   0.01  -0.01     0.01   0.02   0.02     0.03   0.01   0.01
  34   1    -0.04   0.00   0.00     0.02   0.04   0.00     0.04  -0.01  -0.00
  35   1    -0.01   0.02  -0.01    -0.04  -0.03   0.04     0.00  -0.00  -0.00
  36   1    -0.03   0.01  -0.02     0.00   0.01   0.07     0.01  -0.01  -0.01
  37   1    -0.04  -0.00   0.00    -0.01  -0.00  -0.00     0.02  -0.01  -0.01
  38   1    -0.04  -0.03  -0.00    -0.01  -0.00  -0.02     0.02   0.01   0.01
  39   1    -0.01  -0.03  -0.01    -0.00  -0.00  -0.00     0.01   0.02   0.02
  40   1    -0.01  -0.01   0.01    -0.03   0.02   0.01     0.02  -0.03  -0.02
  41   1    -0.03  -0.01   0.01     0.03  -0.03   0.01     0.02  -0.00  -0.02
  42   1    -0.02  -0.01  -0.01    -0.00  -0.00   0.08     0.03  -0.00  -0.03
  43   1    -0.00  -0.00  -0.04     0.01  -0.08   0.12     0.00   0.00  -0.01
  44   1     0.01  -0.05  -0.04    -0.01   0.07   0.12    -0.00  -0.01  -0.01
  45   1    -0.01  -0.01  -0.05     0.00  -0.00   0.18     0.00  -0.01  -0.02
  46   1    -0.01   0.04   0.05     0.00   0.01  -0.16     0.00  -0.03   0.01
  47   1     0.05   0.06   0.04     0.01   0.01  -0.12    -0.02  -0.05   0.01
                     16                     17                     18
                        a                      a                      a 
 Frequencies --   169.2785               176.6630               190.9041
 Red. masses --    13.8868                15.6253                16.5715
 Frc consts  --     0.0000                 0.0000                 0.0000
 IR Inten    --     0.1868                 0.5076                21.2004
 Raman Activ --     0.0000                 0.0000                 0.0000
 Depolar     --     0.0000                 0.0000                 0.0000
 Atom AN      X      Y      Z        X      Y      Z        X      Y      Z
   1   7    -0.09   0.02   0.01     0.16   0.06   0.03     0.37  -0.00   0.04
   2   6    -0.14  -0.04  -0.13     0.00   0.03  -0.07     0.13  -0.00  -0.06
   3   6     0.08   0.03  -0.10    -0.05   0.01  -0.08    -0.08  -0.07  -0.09
   4   6     0.08   0.06   0.16    -0.07  -0.08   0.04    -0.10  -0.16  -0.03
   5   6     0.04   0.04   0.16    -0.04  -0.07   0.06     0.01  -0.09   0.03
   6   6     0.05  -0.01   0.02    -0.04  -0.04   0.04     0.00   0.06   0.07
   7   6     0.08  -0.03  -0.10    -0.06  -0.03  -0.01    -0.11   0.11   0.04
   8   6     0.07  -0.05  -0.28    -0.07   0.06  -0.11    -0.11   0.15  -0.06
   9   6     0.05  -0.04  -0.44    -0.11   0.08  -0.18     0.02   0.11  -0.14
  10   6     0.04  -0.03  -0.13    -0.10   0.14  -0.07     0.05  -0.05  -0.07
  11   6     0.04  -0.04   0.33    -0.21   0.20   0.13     0.23  -0.14   0.11
  12   6     0.03  -0.04   0.00    -0.04   0.17  -0.01    -0.04  -0.10  -0.04
  13   6     0.01  -0.01   0.06    -0.03   0.07   0.02    -0.02  -0.07  -0.01
  14   6     0.01  -0.01   0.08    -0.08   0.03   0.03     0.05  -0.03  -0.01
  15   6    -0.04   0.02   0.02     0.04  -0.04   0.01     0.04  -0.03   0.00
  16   7    -0.13   0.06  -0.07     0.29  -0.17  -0.02    -0.04   0.02   0.01
  17   6    -0.00   0.01   0.04    -0.07  -0.04   0.02     0.06   0.02  -0.00
  18   6     0.01   0.02   0.02     0.01   0.01   0.01     0.00  -0.03   0.00
  19   7     0.00   0.02  -0.03     0.21   0.17  -0.01    -0.11  -0.11   0.01
  20   6    -0.04   0.03  -0.01     0.03  -0.08  -0.00     0.04   0.03  -0.00
  21   6    -0.06   0.04  -0.03     0.06  -0.17  -0.01     0.04   0.09  -0.01
  22   6    -0.03   0.03  -0.02    -0.04  -0.14  -0.01     0.10   0.08  -0.01
  23   6     0.00   0.06   0.00    -0.17  -0.24  -0.01     0.19   0.15  -0.01
  24   6    -0.03  -0.02  -0.01    -0.05  -0.00   0.00     0.11   0.03  -0.00
  25   6    -0.07  -0.05   0.00     0.06   0.05   0.01     0.07   0.02   0.00
  26  16    -0.19  -0.01   0.02     0.30  -0.10  -0.00     0.04   0.11  -0.00
  27  16    -0.06   0.02  -0.11     0.10  -0.02  -0.03    -0.04  -0.06   0.01
  28  16     0.10  -0.09   0.12    -0.01   0.23   0.03    -0.33   0.05   0.02
  29  16     0.20   0.05   0.25    -0.15  -0.12   0.11    -0.37  -0.09   0.09
  30   1     0.04  -0.01   0.06     0.09   0.01   0.04     0.15  -0.00   0.04
  31   1    -0.06   0.07   0.03     0.03   0.06   0.02     0.08   0.05   0.02
  32   1    -0.03  -0.04  -0.04     0.04  -0.02  -0.01     0.10  -0.04  -0.01
  33   1    -0.05  -0.03  -0.09    -0.00   0.03  -0.04     0.03   0.05  -0.02
  34   1    -0.10  -0.02  -0.01    -0.02  -0.02  -0.01     0.04  -0.04  -0.02
  35   1     0.09   0.03  -0.05     0.01   0.02  -0.03    -0.02  -0.00  -0.03
  36   1     0.01  -0.01  -0.08    -0.05   0.01  -0.04    -0.06  -0.00  -0.03
  37   1     0.00   0.02   0.05    -0.01  -0.02   0.02     0.03  -0.04   0.01
  38   1     0.01  -0.01  -0.02    -0.01  -0.01   0.01     0.02   0.04   0.03
  39   1     0.01  -0.02  -0.19    -0.04   0.02  -0.08     0.03   0.05  -0.06
  40   1     0.07   0.06   0.15    -0.04   0.10   0.06     0.12  -0.05   0.07
  41   1    -0.05  -0.08   0.15    -0.08   0.04   0.06     0.02  -0.08   0.07
  42   1     0.01  -0.01   0.11    -0.08   0.04   0.05     0.10  -0.01   0.00
  43   1    -0.01   0.01  -0.01    -0.06  -0.09  -0.01     0.05   0.05  -0.01
  44   1     0.01   0.04  -0.01    -0.04  -0.08  -0.01     0.06   0.06  -0.00
  45   1     0.01   0.01   0.03    -0.08  -0.05   0.01     0.07   0.03   0.00
  46   1     0.00  -0.01  -0.00    -0.04   0.01   0.00     0.04   0.01   0.00
  47   1    -0.02  -0.02   0.01     0.02   0.04   0.00     0.02  -0.01   0.00
                     19                     20                     21
                        a                      a                      a 
 Frequencies --   196.3407               216.7501               226.7200
 Red. masses --    13.1939                 4.2542                 3.5281
 Frc consts  --     0.0000                 0.0000                 0.0000
 IR Inten    --     5.0970                 1.4815                 5.8208
 Raman Activ --     0.0000                 0.0000                 0.0000
 Depolar     --     0.0000                 0.0000                 0.0000
 Atom AN      X      Y      Z        X      Y      Z        X      Y      Z
   1   7     0.02  -0.00  -0.02    -0.08  -0.00  -0.02    -0.10   0.01  -0.02
   2   6     0.00   0.01  -0.01     0.07   0.00   0.06     0.10   0.01   0.07
   3   6    -0.00  -0.01   0.00     0.01   0.02  -0.00     0.02   0.03  -0.03
   4   6    -0.01  -0.01   0.01     0.01   0.01  -0.08     0.01  -0.00  -0.09
   5   6     0.00  -0.01   0.02    -0.00   0.01  -0.06     0.00  -0.01  -0.05
   6   6     0.00   0.00   0.02    -0.00  -0.00   0.04     0.00  -0.01   0.06
   7   6    -0.01   0.01   0.00     0.00  -0.01   0.08    -0.00  -0.00   0.09
   8   6    -0.01   0.01   0.01     0.00  -0.02   0.08    -0.00  -0.01   0.06
   9   6     0.00   0.01   0.05    -0.01  -0.01   0.00    -0.01  -0.01   0.00
  10   6     0.00  -0.00   0.03    -0.01  -0.00  -0.09    -0.01  -0.00  -0.06
  11   6     0.02  -0.01  -0.12    -0.02  -0.00   0.11    -0.00  -0.01   0.05
  12   6    -0.00  -0.01   0.07     0.00   0.00  -0.14    -0.00  -0.00  -0.04
  13   6    -0.00  -0.01   0.20     0.00   0.01  -0.17    -0.00   0.01   0.02
  14   6     0.00  -0.00   0.44    -0.00   0.01  -0.13    -0.00   0.01   0.15
  15   6     0.00  -0.00   0.11    -0.00   0.01  -0.05    -0.00   0.01   0.05
  16   7    -0.00  -0.00  -0.34     0.01   0.00   0.10     0.01   0.00  -0.11
  17   6     0.00   0.00   0.44    -0.00   0.00   0.03    -0.01   0.01   0.15
  18   6     0.00  -0.00   0.11    -0.00   0.00   0.01    -0.01   0.01   0.05
  19   7    -0.00  -0.01  -0.35    -0.00   0.01  -0.04    -0.01   0.01  -0.11
  20   6     0.00   0.00   0.21    -0.00   0.00   0.15    -0.00   0.00   0.02
  21   6     0.00   0.01   0.09     0.00  -0.01   0.18     0.00  -0.01  -0.04
  22   6     0.01   0.01   0.06    -0.00  -0.01   0.15     0.00  -0.01  -0.05
  23   6     0.01   0.01  -0.18    -0.01  -0.02  -0.15    -0.01  -0.02   0.04
  24   6     0.01   0.00   0.09    -0.00  -0.00   0.04    -0.00  -0.00   0.01
  25   6     0.00   0.00   0.01     0.00  -0.00  -0.11     0.01   0.00   0.07
  26  16    -0.00   0.01  -0.14     0.01  -0.01  -0.05     0.02  -0.01  -0.03
  27  16    -0.00  -0.01  -0.23     0.00   0.01   0.02    -0.00   0.01  -0.15
  28  16    -0.02   0.00  -0.13     0.01  -0.01   0.08    -0.00  -0.01  -0.04
  29  16    -0.02  -0.01   0.00     0.02   0.01  -0.03     0.00   0.00   0.00
  30   1     0.01   0.00  -0.00    -0.07  -0.00  -0.04    -0.09  -0.00  -0.04
  31   1     0.01   0.00  -0.00    -0.00  -0.05  -0.02    -0.00  -0.06  -0.02
  32   1     0.01  -0.00  -0.01    -0.02   0.04   0.02    -0.03   0.06   0.02
  33   1     0.00   0.01  -0.01     0.03  -0.01   0.06     0.04  -0.01   0.08
  34   1    -0.00   0.00  -0.00     0.06   0.01   0.00     0.08   0.01  -0.00
  35   1     0.00  -0.00  -0.00    -0.02   0.01   0.01    -0.01   0.03  -0.00
  36   1    -0.00   0.00   0.00     0.01   0.00   0.00     0.01   0.00  -0.01
  37   1     0.00  -0.00   0.01    -0.00   0.00  -0.03     0.00  -0.00  -0.03
  38   1     0.00   0.00   0.01    -0.00  -0.00   0.02     0.00  -0.00   0.03
  39   1     0.00   0.00   0.02    -0.00  -0.01   0.01    -0.00  -0.00   0.01
  40   1    -0.08   0.00  -0.10     0.25  -0.07   0.20     0.31  -0.12   0.22
  41   1     0.09  -0.01  -0.10    -0.26   0.07   0.21    -0.31   0.11   0.22
  42   1     0.01  -0.00   0.04    -0.01   0.00  -0.24    -0.00   0.00  -0.35
  43   1    -0.11  -0.01  -0.13    -0.31  -0.13  -0.26     0.25   0.13   0.19
  44   1     0.12   0.02  -0.13     0.30   0.11  -0.26    -0.26  -0.15   0.20
  45   1     0.01   0.00   0.04    -0.01  -0.00   0.28    -0.01  -0.01  -0.31
  46   1     0.00   0.00   0.04    -0.00   0.00   0.00    -0.00   0.00   0.01
  47   1     0.00  -0.00  -0.01     0.00   0.00  -0.07     0.00   0.00   0.03
                     22                     23                     24
                        a                      a                      a 
 Frequencies --   234.5209               242.2761               248.0798
 Red. masses --     6.9561                 9.7775                13.3602
 Frc consts  --     0.0000                 0.0000                 0.0000
 IR Inten    --    14.1189                 7.6773                 0.3588
 Raman Activ --     0.0000                 0.0000                 0.0000
 Depolar     --     0.0000                 0.0000                 0.0000
 Atom AN      X      Y      Z        X      Y      Z        X      Y      Z
   1   7     0.28  -0.08   0.06    -0.20   0.11  -0.02     0.00  -0.01  -0.01
   2   6    -0.30  -0.03  -0.14     0.17   0.04   0.05     0.03  -0.01   0.01
   3   6    -0.07  -0.09   0.13     0.06   0.08  -0.09     0.00  -0.00  -0.01
   4   6    -0.04   0.06   0.16     0.03  -0.08  -0.02    -0.00  -0.00  -0.02
   5   6    -0.04   0.06   0.05     0.04  -0.08   0.04     0.00   0.00  -0.00
   6   6    -0.03   0.02  -0.15     0.04  -0.03   0.05     0.00   0.01   0.02
   7   6     0.01   0.00  -0.14    -0.00  -0.01   0.00    -0.01   0.01   0.01
   8   6     0.02  -0.01   0.00    -0.01   0.02  -0.06     0.00  -0.01  -0.01
   9   6     0.01  -0.00   0.17    -0.01   0.02  -0.04     0.03  -0.02  -0.02
  10   6     0.01   0.00   0.14    -0.00   0.01   0.06     0.03  -0.10  -0.01
  11   6     0.04  -0.00  -0.13     0.01   0.00  -0.09     0.34  -0.27   0.00
  12   6     0.02   0.01   0.15    -0.01   0.01   0.19    -0.03  -0.10   0.00
  13   6     0.02   0.02   0.10    -0.01  -0.01   0.25    -0.01   0.14   0.01
  14   6     0.01   0.01   0.06    -0.01  -0.01   0.18     0.01   0.18   0.01
  15   6     0.00   0.02   0.02    -0.01  -0.02   0.08     0.06   0.17   0.00
  16   7     0.01   0.01  -0.05    -0.01  -0.02  -0.12     0.14   0.15  -0.01
  17   6     0.00   0.00  -0.05    -0.00  -0.01  -0.12    -0.03   0.17  -0.01
  18   6     0.00   0.00  -0.02     0.00  -0.01  -0.05    -0.08   0.16  -0.00
  19   7     0.00   0.00   0.03     0.01  -0.00   0.10    -0.15   0.13   0.01
  20   6    -0.00   0.00  -0.09     0.00  -0.01  -0.26    -0.02   0.14  -0.02
  21   6    -0.01  -0.01  -0.10     0.00   0.00  -0.32     0.04  -0.10  -0.02
  22   6    -0.02  -0.00  -0.07     0.01   0.00  -0.23    -0.02  -0.10  -0.02
  23   6    -0.04  -0.02   0.07     0.03   0.03   0.18    -0.30  -0.31   0.01
  24   6    -0.02  -0.00  -0.04     0.01   0.00  -0.10    -0.03  -0.03  -0.01
  25   6    -0.02  -0.01   0.03     0.01   0.01   0.13    -0.00  -0.02   0.01
  26  16    -0.03  -0.01   0.05     0.01   0.02   0.12     0.10  -0.15   0.01
  27  16     0.02   0.02  -0.05    -0.01  -0.03   0.06    -0.03   0.29   0.01
  28  16     0.05   0.00  -0.05    -0.03   0.03  -0.15    -0.08  -0.16  -0.01
  29  16     0.05   0.04  -0.08    -0.05  -0.09   0.07    -0.02   0.01   0.01
  30   1     0.26  -0.00   0.09    -0.16   0.01  -0.04    -0.01  -0.00  -0.01
  31   1     0.02   0.12   0.05    -0.02  -0.04  -0.02     0.00  -0.01  -0.00
  32   1     0.08  -0.19  -0.05    -0.05   0.13   0.03    -0.00   0.01   0.00
  33   1    -0.11   0.03  -0.19     0.06  -0.01   0.10     0.01  -0.00   0.02
  34   1    -0.23  -0.03   0.02     0.12   0.02  -0.02     0.02  -0.00  -0.00
  35   1    -0.01  -0.10   0.03     0.04   0.08  -0.03    -0.00   0.01  -0.00
  36   1     0.01  -0.02   0.09    -0.02   0.02  -0.07    -0.00  -0.00  -0.01
  37   1    -0.02   0.02   0.03     0.02  -0.03   0.01     0.00  -0.00  -0.00
  38   1    -0.02  -0.00  -0.07     0.02  -0.00   0.02     0.00   0.00   0.01
  39   1     0.00  -0.00   0.06    -0.00   0.01  -0.02     0.02   0.00  -0.01
  40   1     0.19  -0.15   0.07     0.05  -0.06  -0.00     0.08  -0.11  -0.02
  41   1    -0.17   0.14   0.08    -0.05   0.06   0.00     0.13  -0.14  -0.01
  42   1     0.01   0.01  -0.32     0.01   0.00  -0.12     0.16  -0.02   0.04
  43   1    -0.06  -0.07  -0.01    -0.11  -0.17  -0.03    -0.10  -0.15   0.00
  44   1     0.04   0.06  -0.01     0.13   0.19  -0.03    -0.08  -0.13  -0.00
  45   1    -0.01  -0.00   0.12     0.02   0.01   0.32    -0.16  -0.04   0.02
  46   1    -0.00  -0.00  -0.01     0.00   0.00  -0.03    -0.02  -0.00  -0.00
  47   1    -0.01  -0.00   0.02     0.00   0.00   0.10     0.00   0.00   0.01
                     25                     26                     27
                        a                      a                      a 
 Frequencies --   255.3669               267.7732               291.9894
 Red. masses --    17.9409                15.6315                12.7657
 Frc consts  --     0.0000                 0.0000                 0.0000
 IR Inten    --     9.0323                17.9986                 9.2164
 Raman Activ --     0.0000                 0.0000                 0.0000
 Depolar     --     0.0000                 0.0000                 0.0000
 Atom AN      X      Y      Z        X      Y      Z        X      Y      Z
   1   7    -0.19   0.30   0.05     0.15  -0.17  -0.03    -0.06   0.09   0.02
   2   6    -0.08   0.16  -0.07    -0.01  -0.03   0.08    -0.15   0.06  -0.05
   3   6    -0.07   0.09  -0.00    -0.19  -0.06   0.04     0.01   0.00   0.13
   4   6    -0.10  -0.21   0.12    -0.15   0.07  -0.22     0.03   0.00   0.01
   5   6    -0.02  -0.18   0.04    -0.14   0.08  -0.14    -0.00  -0.03  -0.11
   6   6     0.01  -0.10  -0.10    -0.14   0.06   0.16     0.00  -0.10  -0.02
   7   6     0.01  -0.08  -0.10    -0.04   0.03   0.22     0.05  -0.11   0.12
   8   6     0.03   0.04  -0.01     0.03  -0.06   0.08     0.00   0.02   0.15
   9   6     0.07   0.05   0.08     0.06  -0.06  -0.11    -0.03   0.05   0.05
  10   6     0.09   0.07   0.06     0.06   0.00  -0.15    -0.03   0.05  -0.19
  11   6     0.25  -0.01  -0.03    -0.02   0.05   0.08     0.21  -0.07   0.08
  12   6     0.10   0.08   0.02     0.12   0.04  -0.12    -0.05   0.05  -0.32
  13   6     0.10   0.05  -0.04     0.13   0.05   0.01    -0.07   0.02  -0.18
  14   6     0.06   0.02  -0.06     0.11   0.03   0.09    -0.14  -0.01   0.05
  15   6     0.02   0.04  -0.03     0.05   0.07   0.04    -0.12  -0.04   0.02
  16   7     0.03   0.04   0.03     0.02   0.10  -0.04     0.02  -0.13  -0.01
  17   6     0.06  -0.06  -0.00     0.11  -0.06   0.05    -0.14  -0.01   0.19
  18   6     0.06  -0.06   0.00     0.10  -0.08   0.02    -0.12   0.02   0.11
  19   7     0.07  -0.06  -0.01     0.07  -0.11  -0.02     0.01   0.12  -0.10
  20   6     0.02  -0.04   0.06     0.04  -0.04  -0.05    -0.04  -0.04   0.03
  21   6    -0.05   0.03   0.10    -0.03   0.03  -0.15    -0.02  -0.03  -0.21
  22   6    -0.08   0.04   0.07    -0.08   0.04  -0.13    -0.00  -0.02  -0.23
  23   6    -0.07   0.05  -0.05    -0.12   0.02   0.06     0.14   0.08   0.08
  24   6    -0.08  -0.01   0.03    -0.09  -0.02  -0.04    -0.00   0.01  -0.07
  25   6    -0.13  -0.04  -0.05    -0.14  -0.05   0.10     0.05   0.05   0.20
  26  16    -0.25  -0.03  -0.02    -0.26  -0.05   0.00     0.12   0.04  -0.05
  27  16     0.21   0.02  -0.04     0.25   0.04   0.08    -0.05  -0.03   0.14
  28  16     0.19   0.16   0.04     0.25   0.01  -0.03    -0.01   0.08   0.08
  29  16    -0.21  -0.35  -0.03    -0.15   0.07  -0.00     0.18  -0.13  -0.11
  30   1    -0.08   0.05   0.04     0.06  -0.01  -0.04     0.01   0.02   0.03
  31   1    -0.05   0.10   0.01     0.05  -0.07  -0.01    -0.02   0.06   0.01
  32   1    -0.05   0.11   0.02     0.04  -0.08  -0.00    -0.01  -0.01   0.00
  33   1    -0.02   0.03  -0.03    -0.00   0.03   0.05    -0.05   0.00  -0.08
  34   1    -0.04   0.05  -0.01     0.02  -0.02   0.01    -0.10   0.03   0.01
  35   1     0.02   0.04  -0.01    -0.13  -0.04   0.03    -0.02  -0.06   0.04
  36   1    -0.08   0.05  -0.02    -0.01  -0.02   0.06     0.03   0.02   0.10
  37   1     0.02  -0.06   0.02    -0.04   0.02  -0.07    -0.01  -0.00  -0.05
  38   1     0.00  -0.03  -0.05    -0.05   0.01   0.08    -0.01  -0.04  -0.01
  39   1     0.02   0.02   0.03     0.02  -0.02  -0.04    -0.01   0.01   0.04
  40   1     0.09  -0.05  -0.01    -0.03   0.09   0.02     0.06   0.01   0.02
  41   1     0.07  -0.00  -0.00     0.01  -0.04   0.02     0.08  -0.13   0.02
  42   1     0.11   0.03  -0.04    -0.02   0.00   0.09     0.11   0.02   0.10
  43   1    -0.00   0.06  -0.00    -0.05  -0.06   0.01     0.05  -0.03   0.03
  44   1    -0.04  -0.02  -0.00    -0.02   0.06   0.01     0.04   0.13   0.03
  45   1    -0.02   0.01  -0.07    -0.04   0.01   0.08     0.08  -0.00   0.10
  46   1    -0.01  -0.01   0.00    -0.01  -0.01  -0.00    -0.01   0.01  -0.01
  47   1    -0.04  -0.02  -0.03    -0.04  -0.02   0.06     0.01   0.02   0.12
                     28                     29                     30
                        a                      a                      a 
 Frequencies --   301.8207               323.7042               340.1765
 Red. masses --    12.1683                13.0572                15.2578
 Frc consts  --     0.0000                 0.0000                 0.0000
 IR Inten    --     4.2272                 2.6487                17.3048
 Raman Activ --     0.0000                 0.0000                 0.0000
 Depolar     --     0.0000                 0.0000                 0.0000
 Atom AN      X      Y      Z        X      Y      Z        X      Y      Z
   1   7     0.04  -0.16  -0.03     0.06  -0.17  -0.06    -0.03   0.22   0.07
   2   6     0.00  -0.05   0.10     0.14  -0.09   0.08     0.03   0.03  -0.16
   3   6    -0.07   0.03  -0.04     0.05   0.06  -0.17     0.12  -0.12   0.11
   4   6    -0.06   0.11  -0.12     0.00   0.04   0.20     0.11  -0.09  -0.02
   5   6    -0.15   0.06  -0.03    -0.04   0.04   0.23     0.21  -0.04  -0.08
   6   6    -0.14  -0.07   0.10    -0.04   0.04  -0.17     0.18   0.11   0.03
   7   6    -0.00  -0.11   0.04    -0.06   0.04  -0.28    -0.02   0.16   0.10
   8   6    -0.01  -0.04  -0.06    -0.05  -0.03  -0.09    -0.00  -0.05   0.06
   9   6    -0.06   0.01  -0.10    -0.07  -0.03   0.17    -0.03  -0.08  -0.04
  10   6    -0.06   0.05   0.07    -0.07  -0.05   0.07    -0.05  -0.12  -0.05
  11   6     0.28  -0.12  -0.02    -0.03  -0.08  -0.03    -0.16  -0.09   0.01
  12   6    -0.04   0.08   0.20    -0.02  -0.02  -0.10    -0.03  -0.09  -0.01
  13   6    -0.04   0.11   0.16     0.02   0.11  -0.19     0.01   0.14   0.05
  14   6    -0.19   0.04   0.01    -0.03   0.09  -0.09    -0.08   0.11   0.05
  15   6    -0.18   0.02   0.01    -0.04   0.10  -0.07    -0.10   0.14   0.04
  16   7     0.10  -0.14  -0.01     0.11   0.03   0.06     0.15   0.02  -0.03
  17   6    -0.18  -0.08  -0.15    -0.02  -0.08   0.17    -0.08  -0.08  -0.05
  18   6    -0.16  -0.06  -0.09    -0.03  -0.10   0.12    -0.10  -0.10  -0.04
  19   7     0.09   0.14   0.08     0.10  -0.01  -0.09     0.10   0.05   0.03
  20   6    -0.03  -0.12  -0.05     0.03  -0.10   0.12     0.01  -0.12  -0.05
  21   6    -0.04  -0.05   0.12    -0.02  -0.02  -0.08    -0.03  -0.07   0.01
  22   6    -0.07  -0.02   0.15    -0.08   0.00  -0.15    -0.12  -0.03   0.05
  23   6     0.18   0.16  -0.05     0.03   0.09   0.04     0.08   0.12  -0.01
  24   6    -0.08   0.01   0.05    -0.08   0.00  -0.06    -0.13   0.00   0.02
  25   6    -0.01   0.05  -0.15    -0.07   0.01   0.17    -0.07   0.03  -0.06
  26  16     0.05   0.04   0.05    -0.06  -0.02  -0.07     0.00  -0.04   0.03
  27  16     0.18   0.00  -0.08     0.27   0.04   0.05     0.30   0.10  -0.00
  28  16     0.09   0.06  -0.09    -0.09  -0.07   0.12    -0.11  -0.28  -0.03
  29  16     0.14   0.00   0.06    -0.05   0.14   0.06    -0.17   0.13  -0.05
  30   1     0.01  -0.01  -0.06    -0.01  -0.03  -0.06    -0.01   0.01   0.10
  31   1     0.02  -0.09  -0.02     0.02  -0.10  -0.02    -0.03   0.14   0.03
  32   1     0.01  -0.06  -0.00     0.02  -0.02  -0.01    -0.01   0.09   0.01
  33   1     0.00   0.00   0.06     0.05  -0.01   0.09     0.00  -0.02  -0.10
  34   1     0.04  -0.02   0.01     0.10  -0.04  -0.01    -0.04   0.02  -0.02
  35   1    -0.04   0.04  -0.00     0.11   0.14  -0.08    -0.01  -0.15   0.04
  36   1     0.00  -0.01  -0.03    -0.04  -0.02  -0.18     0.06   0.00   0.14
  37   1    -0.07   0.03  -0.01    -0.02   0.01   0.11     0.08  -0.02  -0.04
  38   1    -0.07  -0.04   0.05    -0.01   0.02  -0.09     0.09   0.06   0.02
  39   1    -0.03  -0.01  -0.06    -0.02  -0.01   0.08    -0.01  -0.03  -0.02
  40   1     0.09  -0.12  -0.01    -0.01  -0.06  -0.01    -0.05   0.00   0.01
  41   1     0.10  -0.07  -0.01    -0.00  -0.01  -0.01    -0.05  -0.02   0.01
  42   1     0.15   0.03  -0.02     0.00  -0.01  -0.03    -0.07  -0.05   0.01
  43   1     0.04   0.14  -0.02     0.02   0.01   0.02     0.02   0.09  -0.01
  44   1     0.06   0.05  -0.02    -0.00   0.09   0.02     0.03   0.07  -0.01
  45   1     0.12   0.00  -0.06     0.04   0.00   0.05     0.08  -0.00  -0.01
  46   1    -0.03   0.01   0.01    -0.02   0.00  -0.01    -0.05   0.01   0.01
  47   1    -0.00   0.03  -0.09    -0.02   0.01   0.09    -0.02   0.03  -0.03
                     31                     32                     33
                        a                      a                      a 
 Frequencies --   344.8074               369.6153               411.1446
 Red. masses --    21.8860                11.9805                15.4434
 Frc consts  --     0.0000                 0.0000                 0.0000
 IR Inten    --     0.2613                 0.9055                 6.1096
 Raman Activ --     0.0000                 0.0000                 0.0000
 Depolar     --     0.0000                 0.0000                 0.0000
 Atom AN      X      Y      Z        X      Y      Z        X      Y      Z
   1   7     0.04   0.02  -0.00    -0.03   0.08   0.04     0.01  -0.07  -0.03
   2   6     0.05   0.01  -0.00    -0.01   0.01  -0.06    -0.08   0.03   0.08
   3   6    -0.10  -0.03  -0.05    -0.01  -0.07   0.06    -0.04   0.10  -0.01
   4   6    -0.11  -0.08  -0.00     0.02   0.01  -0.21    -0.03  -0.01   0.07
   5   6     0.03   0.01   0.06     0.01   0.00  -0.08    -0.01  -0.01  -0.05
   6   6     0.03   0.17  -0.01     0.01  -0.02   0.18     0.01  -0.01  -0.02
   7   6     0.02   0.16  -0.07     0.01  -0.02   0.05     0.04  -0.01   0.08
   8   6     0.16  -0.13  -0.05    -0.01   0.01  -0.16     0.02   0.08   0.06
   9   6     0.15  -0.13   0.03    -0.01   0.01  -0.16     0.12   0.04  -0.04
  10   6     0.13   0.00   0.05    -0.02  -0.00   0.23     0.13  -0.02  -0.02
  11   6     0.03   0.06  -0.01    -0.00  -0.01  -0.04    -0.03   0.08   0.00
  12   6     0.10   0.01   0.02    -0.02  -0.00   0.38     0.05  -0.07   0.04
  13   6     0.02  -0.03  -0.04    -0.01   0.00  -0.02     0.04  -0.03   0.04
  14   6    -0.13  -0.09  -0.05     0.01   0.01  -0.30     0.12   0.02  -0.01
  15   6    -0.14  -0.12  -0.04     0.01   0.01  -0.28     0.15   0.04  -0.02
  16   7    -0.09  -0.17   0.03     0.01   0.02   0.18     0.02   0.13   0.01
  17   6    -0.15   0.06   0.04     0.01  -0.00   0.14     0.08   0.02  -0.02
  18   6    -0.13   0.12   0.03     0.01  -0.01   0.14     0.16   0.06  -0.03
  19   7    -0.11   0.17  -0.03     0.01  -0.01  -0.09    -0.05  -0.09   0.02
  20   6    -0.09   0.04   0.05     0.01  -0.00   0.30    -0.09   0.04   0.04
  21   6    -0.03  -0.05  -0.01     0.00   0.00   0.08    -0.07  -0.21   0.05
  22   6    -0.01  -0.06  -0.04     0.00   0.00  -0.17    -0.29  -0.16  -0.01
  23   6     0.09   0.01   0.01    -0.00   0.00   0.04     0.16   0.17   0.00
  24   6    -0.01   0.00  -0.02     0.00  -0.00  -0.16    -0.33  -0.03  -0.04
  25   6     0.05   0.04   0.05    -0.00  -0.00   0.28    -0.13   0.10   0.05
  26  16     0.15   0.01  -0.02    -0.01  -0.00  -0.16     0.27  -0.28  -0.03
  27  16    -0.20   0.07  -0.00     0.01  -0.01  -0.10    -0.19   0.19  -0.02
  28  16     0.51  -0.18   0.02    -0.05   0.01  -0.07    -0.11   0.00  -0.03
  29  16    -0.37   0.07   0.03     0.06  -0.01   0.07     0.05  -0.12  -0.05
  30   1    -0.00   0.00   0.00    -0.01   0.00   0.04     0.02   0.01  -0.05
  31   1     0.01   0.00  -0.00    -0.01   0.05   0.01     0.01  -0.05  -0.01
  32   1     0.01   0.02   0.00    -0.01   0.03   0.01     0.00  -0.06  -0.00
  33   1     0.02   0.02   0.03    -0.01  -0.00  -0.03    -0.02   0.01   0.01
  34   1     0.05  -0.01  -0.01    -0.02   0.01  -0.01    -0.03   0.01   0.03
  35   1    -0.02   0.01  -0.02    -0.08  -0.10   0.04     0.03   0.09  -0.01
  36   1    -0.05  -0.00  -0.03     0.05   0.00   0.12    -0.04   0.01  -0.07
  37   1     0.05  -0.02   0.03     0.00   0.00  -0.04     0.00  -0.01  -0.03
  38   1     0.02   0.06  -0.01    -0.00  -0.01   0.10    -0.01  -0.01  -0.01
  39   1     0.03  -0.05   0.01    -0.00   0.00  -0.10     0.05   0.03  -0.02
  40   1     0.00   0.02  -0.01    -0.02  -0.07  -0.03    -0.02   0.06   0.00
  41   1     0.01   0.05  -0.01     0.02   0.06  -0.03    -0.02   0.05   0.00
  42   1    -0.01  -0.00  -0.01     0.00   0.00  -0.05    -0.05  -0.02   0.01
  43   1     0.03   0.01   0.01     0.01  -0.05   0.02     0.05   0.15   0.00
  44   1     0.02   0.03   0.01    -0.02   0.04   0.02     0.05   0.15   0.00
  45   1     0.05  -0.01   0.01    -0.00   0.00   0.04     0.18  -0.04   0.00
  46   1    -0.02   0.01  -0.01     0.00  -0.00  -0.06    -0.13   0.01  -0.02
  47   1     0.02   0.02   0.03    -0.00  -0.00   0.14    -0.03   0.10   0.02
                     34                     35                     36
                        a                      a                      a 
 Frequencies --   419.1485               429.6637               444.2774
 Red. masses --    12.6694                12.4096                17.2716
 Frc consts  --     0.0000                 0.0000                 0.0000
 IR Inten    --     5.1198                 1.4651                 1.4832
 Raman Activ --     0.0000                 0.0000                 0.0000
 Depolar     --     0.0000                 0.0000                 0.0000
 Atom AN      X      Y      Z        X      Y      Z        X      Y      Z
   1   7    -0.02   0.09   0.04    -0.02   0.09   0.04     0.01   0.03   0.01
   2   6     0.07  -0.03  -0.10     0.11  -0.05  -0.11     0.10  -0.05  -0.07
   3   6    -0.03  -0.13   0.01    -0.01  -0.15  -0.01     0.11  -0.07   0.00
   4   6    -0.00   0.04  -0.30     0.01   0.04  -0.20     0.06   0.00   0.21
   5   6    -0.05   0.03   0.10    -0.05   0.02   0.13     0.01  -0.01  -0.01
   6   6    -0.05  -0.03   0.13    -0.06  -0.03   0.04    -0.02   0.01  -0.12
   7   6    -0.00  -0.05  -0.24    -0.03  -0.04  -0.22    -0.08   0.02   0.15
   8   6    -0.01  -0.00  -0.24    -0.03  -0.04  -0.11    -0.05  -0.13   0.16
   9   6    -0.02   0.01   0.10    -0.07  -0.01   0.14    -0.25  -0.06  -0.08
  10   6    -0.01   0.02   0.13    -0.07   0.03  -0.03    -0.26   0.08  -0.06
  11   6     0.03  -0.00  -0.02     0.04  -0.03  -0.00     0.10  -0.13   0.01
  12   6     0.00   0.02  -0.06    -0.01   0.05  -0.20    -0.10   0.15   0.09
  13   6    -0.00  -0.02  -0.18    -0.02  -0.01  -0.01    -0.11   0.00   0.09
  14   6     0.05   0.00  -0.01     0.04   0.01   0.15     0.07   0.07  -0.05
  15   6     0.08   0.01  -0.03     0.07   0.01   0.25     0.14   0.11  -0.12
  16   7    -0.00   0.06   0.01    -0.01   0.05  -0.14     0.05   0.18   0.07
  17   6     0.04   0.01   0.15     0.04  -0.00  -0.19     0.10  -0.06   0.03
  18   6     0.08   0.02   0.23     0.08  -0.00  -0.33     0.13  -0.12   0.08
  19   7    -0.01  -0.06  -0.13     0.01  -0.06   0.18     0.11  -0.17  -0.04
  20   6    -0.03   0.01  -0.21    -0.02   0.01   0.15    -0.04  -0.01  -0.01
  21   6    -0.02  -0.06  -0.29    -0.01  -0.03   0.30    -0.03  -0.02  -0.05
  22   6    -0.08  -0.04   0.05    -0.04  -0.03  -0.02    -0.03  -0.03  -0.00
  23   6     0.04   0.05  -0.01     0.03   0.03   0.01     0.04   0.01  -0.00
  24   6    -0.09  -0.01   0.22    -0.05  -0.01  -0.21    -0.03  -0.01   0.03
  25   6    -0.04   0.02  -0.28    -0.02   0.02   0.25     0.01   0.01  -0.03
  26  16     0.08  -0.08   0.17     0.05  -0.05  -0.15     0.06  -0.02   0.02
  27  16    -0.10   0.03   0.10    -0.10  -0.02  -0.03    -0.31  -0.14  -0.02
  28  16     0.01   0.06   0.08     0.08   0.08   0.08     0.31   0.11  -0.06
  29  16     0.06   0.02   0.16     0.02   0.08   0.12    -0.13   0.20  -0.09
  30   1    -0.04  -0.02   0.06    -0.04  -0.02   0.06    -0.02  -0.02   0.04
  31   1    -0.01   0.06   0.01    -0.01   0.06   0.01    -0.01   0.03   0.01
  32   1    -0.01   0.07   0.02    -0.01   0.08   0.01    -0.00   0.04  -0.01
  33   1     0.02  -0.01  -0.00     0.03  -0.01  -0.00     0.03  -0.02  -0.01
  34   1     0.04  -0.02  -0.04     0.06  -0.03  -0.04     0.03  -0.02  -0.02
  35   1    -0.12  -0.15   0.03    -0.08  -0.15   0.02     0.07  -0.03  -0.01
  36   1     0.06  -0.01   0.14     0.06  -0.02   0.12     0.01  -0.01  -0.01
  37   1    -0.03   0.01   0.06    -0.03   0.02   0.08    -0.01   0.00  -0.02
  38   1    -0.02  -0.02   0.08    -0.02  -0.01   0.03     0.01   0.02  -0.07
  39   1    -0.01   0.00   0.05    -0.03  -0.01   0.09    -0.11  -0.04  -0.05
  40   1    -0.00  -0.04  -0.02     0.02  -0.03   0.00     0.05  -0.09   0.01
  41   1     0.02   0.03  -0.02     0.01  -0.04   0.00     0.04  -0.13   0.01
  42   1     0.02   0.01  -0.03     0.04   0.02   0.00     0.12   0.05   0.02
  43   1     0.01   0.06  -0.01     0.01   0.02   0.00     0.01   0.01  -0.00
  44   1     0.02   0.03  -0.01     0.01   0.03   0.00     0.01   0.01   0.00
  45   1     0.05  -0.01  -0.01     0.03  -0.01   0.01     0.03  -0.01   0.00
  46   1    -0.04   0.00   0.12    -0.02   0.00  -0.12    -0.02   0.00   0.02
  47   1    -0.01   0.03  -0.12    -0.00   0.02   0.11     0.00   0.01  -0.01
                     37                     38                     39
                        a                      a                      a 
 Frequencies --   461.0591               480.4867               488.3926
 Red. masses --    16.0971                13.1284                17.2395
 Frc consts  --     0.0000                 0.0000                 0.0000
 IR Inten    --     3.8121                 1.8319                 3.0223
 Raman Activ --     0.0000                 0.0000                 0.0000
 Depolar     --     0.0000                 0.0000                 0.0000
 Atom AN      X      Y      Z        X      Y      Z        X      Y      Z
   1   7    -0.00   0.05   0.02    -0.01   0.07   0.02    -0.01   0.01   0.00
   2   6     0.13  -0.08  -0.11     0.13  -0.07  -0.11    -0.01   0.01   0.00
   3   6     0.08  -0.12  -0.01    -0.06  -0.15  -0.05    -0.08  -0.01  -0.02
   4   6     0.05   0.04   0.11    -0.06   0.06  -0.04    -0.05   0.00  -0.12
   5   6    -0.08  -0.01   0.06    -0.13   0.04   0.22     0.00   0.03   0.11
   6   6    -0.09  -0.06  -0.11    -0.12  -0.04  -0.19     0.02   0.03  -0.05
   7   6    -0.09  -0.05   0.07    -0.00  -0.06  -0.04     0.05   0.01  -0.10
   8   6    -0.10  -0.03   0.13     0.00   0.05   0.24     0.06   0.01   0.09
   9   6    -0.08  -0.03  -0.04     0.16   0.01   0.03     0.05   0.02   0.07
  10   6    -0.07  -0.05  -0.07     0.17  -0.02  -0.21     0.05   0.08  -0.15
  11   6    -0.03  -0.09   0.01     0.02   0.09   0.01     0.03   0.12   0.00
  12   6     0.07   0.02   0.04     0.07  -0.06  -0.02    -0.07   0.01  -0.07
  13   6     0.10  -0.06   0.09     0.06   0.03   0.33    -0.10  -0.04   0.27
  14   6     0.00  -0.16  -0.02    -0.02  -0.00  -0.01     0.03   0.09   0.02
  15   6     0.12  -0.33  -0.09    -0.25   0.09  -0.29     0.33   0.04  -0.24
  16   7    -0.23  -0.18   0.05     0.08  -0.09   0.15     0.00   0.26   0.12
  17   6    -0.02   0.15   0.01     0.01  -0.08   0.01    -0.05   0.09   0.01
  18   6     0.09   0.34   0.03     0.06  -0.12   0.03    -0.35  -0.01  -0.00
  19   7    -0.25   0.13  -0.02     0.10  -0.12  -0.01    -0.04   0.27  -0.00
  20   6     0.07   0.08   0.00    -0.08  -0.01   0.00     0.11  -0.02   0.00
  21   6     0.06  -0.02  -0.01    -0.05  -0.01  -0.01     0.07   0.02  -0.00
  22   6    -0.08   0.03  -0.00     0.04  -0.04   0.00    -0.04   0.06  -0.00
  23   6    -0.04   0.08  -0.00     0.03  -0.08   0.00    -0.03   0.10   0.00
  24   6    -0.09   0.01   0.01     0.05  -0.01   0.00    -0.04   0.01   0.00
  25   6    -0.09   0.01  -0.01     0.06   0.00  -0.00    -0.06  -0.01  -0.00
  26  16     0.02  -0.15   0.01    -0.02   0.11   0.00     0.01  -0.12   0.00
  27  16     0.37   0.05  -0.02    -0.12   0.25  -0.06     0.04  -0.46  -0.05
  28  16    -0.01   0.18  -0.04    -0.11  -0.01  -0.04    -0.01  -0.14  -0.00
  29  16    -0.01   0.13  -0.04     0.08  -0.01   0.02     0.03  -0.06   0.04
  30   1    -0.03  -0.03   0.06    -0.05  -0.03   0.06    -0.00   0.00  -0.00
  31   1    -0.01   0.04   0.01    -0.01   0.05   0.01     0.00   0.00  -0.00
  32   1    -0.00   0.07  -0.00    -0.01   0.08   0.01    -0.00  -0.00   0.01
  33   1     0.04  -0.03  -0.01     0.04  -0.00   0.04    -0.00   0.01   0.02
  34   1     0.06  -0.03  -0.04     0.10  -0.04  -0.06     0.01  -0.00  -0.01
  35   1     0.03  -0.09  -0.00    -0.06  -0.13  -0.00    -0.05  -0.01   0.00
  36   1     0.04  -0.02   0.04     0.02  -0.02   0.07    -0.01   0.00   0.02
  37   1    -0.05   0.01   0.02    -0.06   0.02   0.12     0.01   0.00   0.07
  38   1    -0.03  -0.02  -0.07    -0.06  -0.03  -0.11    -0.00   0.00  -0.02
  39   1    -0.01  -0.00  -0.02     0.07   0.02   0.01     0.00  -0.00   0.04
  40   1     0.00  -0.02   0.01     0.02   0.12   0.02     0.02   0.08   0.02
  41   1    -0.01  -0.06   0.01    -0.02   0.01   0.03    -0.01   0.01   0.02
  42   1     0.01  -0.01   0.01    -0.04  -0.01   0.04    -0.00   0.02   0.02
  43   1    -0.01   0.04   0.00     0.01  -0.03   0.00    -0.01   0.03  -0.00
  44   1    -0.01   0.04  -0.00     0.01  -0.03   0.00    -0.01   0.03   0.00
  45   1     0.01   0.01   0.00    -0.00  -0.01   0.00    -0.00   0.02   0.00
  46   1    -0.02  -0.00   0.00     0.00   0.00   0.00     0.00  -0.01   0.00
  47   1    -0.02   0.02  -0.00     0.02  -0.01  -0.00    -0.02   0.01  -0.00
                     40                     41                     42
                        a                      a                      a 
 Frequencies --   498.6278               502.4567               525.0116
 Red. masses --    11.7742                11.9032                11.8481
 Frc consts  --     0.0000                 0.0000                 0.0000
 IR Inten    --     3.6367                 1.2020                 3.1230
 Raman Activ --     0.0000                 0.0000                 0.0000
 Depolar     --     0.0000                 0.0000                 0.0000
 Atom AN      X      Y      Z        X      Y      Z        X      Y      Z
   1   7     0.01  -0.06  -0.02    -0.00   0.01   0.00     0.01   0.02   0.00
   2   6    -0.14   0.08   0.12     0.04  -0.02  -0.03     0.12  -0.07  -0.09
   3   6     0.04   0.15   0.04    -0.00  -0.04  -0.01     0.09  -0.09   0.02
   4   6     0.05  -0.05  -0.14    -0.01   0.01   0.05     0.03   0.03   0.38
   5   6     0.14  -0.03  -0.09    -0.04   0.01   0.01    -0.13  -0.03  -0.32
   6   6     0.13   0.04   0.18    -0.04  -0.01  -0.04    -0.15  -0.07   0.21
   7   6     0.01   0.06  -0.21    -0.01  -0.02   0.07    -0.07  -0.07   0.09
   8   6    -0.01  -0.02  -0.14     0.00   0.00   0.01    -0.04  -0.01  -0.37
   9   6    -0.15   0.00   0.18     0.04  -0.00  -0.05     0.11  -0.04   0.12
  10   6    -0.16  -0.04  -0.13     0.04   0.01   0.05     0.12  -0.01   0.08
  11   6    -0.05  -0.15  -0.00     0.01   0.04   0.00     0.03   0.06  -0.01
  12   6    -0.02   0.03  -0.21     0.01  -0.01   0.05     0.07  -0.03  -0.18
  13   6     0.01   0.02   0.37     0.00  -0.00  -0.11     0.05  -0.01   0.12
  14   6    -0.01  -0.04   0.08     0.00   0.01   0.01     0.03  -0.01   0.08
  15   6    -0.07  -0.07  -0.37     0.01   0.01   0.02     0.16  -0.07  -0.15
  16   7    -0.04  -0.10   0.18     0.01   0.02  -0.01    -0.05   0.05   0.07
  17   6     0.03  -0.01   0.04    -0.01   0.00   0.11    -0.02  -0.01   0.02
  18   6     0.19   0.07  -0.14    -0.04  -0.02  -0.49    -0.25  -0.19  -0.02
  19   7    -0.02  -0.11   0.07     0.01   0.02   0.24     0.09   0.07   0.01
  20   6    -0.02   0.01   0.10     0.00   0.00   0.54    -0.02  -0.00  -0.06
  21   6    -0.01  -0.01  -0.06     0.00  -0.00  -0.32    -0.02  -0.01   0.03
  22   6     0.00  -0.01  -0.04     0.00  -0.00  -0.23     0.01  -0.02   0.03
  23   6     0.00  -0.02   0.00     0.00   0.00  -0.01     0.02  -0.03  -0.00
  24   6     0.00  -0.00   0.05     0.00   0.00   0.28     0.00   0.00  -0.03
  25   6     0.01   0.00  -0.04     0.00  -0.00  -0.21     0.01   0.01   0.02
  26  16    -0.00   0.01   0.02    -0.00  -0.00   0.10    -0.01   0.04  -0.01
  27  16     0.04   0.12  -0.09    -0.01  -0.02  -0.08    -0.05   0.12  -0.01
  28  16     0.07   0.07   0.06    -0.02  -0.01  -0.01    -0.03   0.06   0.08
  29  16    -0.05  -0.02   0.06     0.01   0.01  -0.02    -0.03   0.10  -0.08
  30   1     0.05   0.04  -0.06    -0.01  -0.01   0.02    -0.03  -0.03   0.04
  31   1     0.01  -0.05  -0.01    -0.00   0.01   0.00    -0.01   0.03   0.01
  32   1     0.00  -0.08  -0.01    -0.00   0.02   0.00    -0.00   0.06  -0.01
  33   1    -0.05   0.01  -0.04     0.01  -0.00   0.01     0.04  -0.02  -0.00
  34   1    -0.10   0.04   0.06     0.03  -0.01  -0.01     0.05  -0.02  -0.03
  35   1     0.01   0.11   0.01     0.00  -0.03  -0.00     0.10  -0.04  -0.02
  36   1    -0.00   0.02  -0.04     0.00  -0.01   0.01    -0.00  -0.02  -0.01
  37   1     0.06  -0.02  -0.04    -0.02   0.01  -0.00    -0.07   0.01  -0.20
  38   1     0.06   0.03   0.13    -0.02  -0.01  -0.03    -0.05  -0.03   0.10
  39   1    -0.05  -0.01   0.13     0.01   0.00  -0.03     0.05   0.01   0.10
  40   1     0.01  -0.04   0.01    -0.00   0.01  -0.01    -0.00   0.01  -0.01
  41   1    -0.02  -0.10   0.01     0.01   0.03  -0.01     0.01   0.07  -0.01
  42   1     0.02  -0.01   0.01    -0.00   0.00  -0.00    -0.02  -0.01  -0.02
  43   1     0.01  -0.01   0.00     0.03  -0.05   0.02     0.00  -0.00  -0.00
  44   1    -0.00   0.00   0.00    -0.03   0.05   0.02     0.01  -0.01  -0.00
  45   1     0.00  -0.00   0.01    -0.00   0.00   0.03     0.01  -0.01  -0.00
  46   1    -0.00   0.00   0.03     0.00   0.00   0.18    -0.00   0.00  -0.02
  47   1     0.00  -0.00  -0.01     0.00  -0.00  -0.05     0.00  -0.00   0.00
                     43                     44                     45
                        a                      a                      a 
 Frequencies --   528.8700               549.1916               553.7938
 Red. masses --    15.6348                17.8829                11.4138
 Frc consts  --     0.0000                 0.0000                 0.0000
 IR Inten    --     4.9669                 2.1627                 5.9714
 Raman Activ --     0.0000                 0.0000                 0.0000
 Depolar     --     0.0000                 0.0000                 0.0000
 Atom AN      X      Y      Z        X      Y      Z        X      Y      Z
   1   7    -0.00  -0.01  -0.00    -0.00   0.01   0.00    -0.00   0.01   0.00
   2   6    -0.06   0.04   0.05     0.01  -0.01  -0.01    -0.02   0.02   0.01
   3   6    -0.01   0.06   0.00    -0.04  -0.02  -0.01    -0.09  -0.00  -0.03
   4   6     0.01  -0.02  -0.18    -0.03   0.00   0.02    -0.05  -0.00  -0.14
   5   6     0.06  -0.00   0.12     0.00   0.02   0.01     0.05   0.05   0.21
   6   6     0.07   0.01  -0.07     0.00   0.03  -0.02     0.07   0.04  -0.28
   7   6     0.01   0.02  -0.06     0.03   0.02   0.07     0.04   0.04   0.53
   8   6    -0.02   0.02   0.16     0.06  -0.05  -0.06     0.03   0.03  -0.33
   9   6    -0.05   0.01  -0.04    -0.06   0.03   0.00    -0.04   0.03  -0.03
  10   6    -0.06  -0.09  -0.04    -0.06   0.25   0.03    -0.05  -0.05   0.24
  11   6    -0.07  -0.15   0.00     0.16   0.28   0.00    -0.05  -0.09   0.00
  12   6     0.04  -0.03   0.08    -0.15   0.12  -0.03    -0.00  -0.02  -0.15
  13   6     0.05   0.01  -0.04    -0.11   0.06   0.00     0.00  -0.00  -0.09
  14   6     0.03  -0.05  -0.03    -0.05   0.02   0.02    -0.00  -0.00   0.23
  15   6     0.43  -0.30   0.06     0.26  -0.16  -0.02    -0.01  -0.01  -0.24
  16   7    -0.21   0.03  -0.03    -0.10   0.04   0.01    -0.00  -0.01   0.10
  17   6    -0.02  -0.05  -0.01    -0.04  -0.04   0.01     0.00   0.00   0.16
  18   6    -0.34  -0.33   0.01     0.23   0.14  -0.01    -0.01  -0.02  -0.18
  19   7     0.19   0.05  -0.01    -0.06  -0.09   0.01     0.01  -0.00   0.08
  20   6    -0.06  -0.01   0.02    -0.09  -0.06  -0.01     0.01   0.00  -0.16
  21   6    -0.06  -0.04  -0.01    -0.10  -0.12   0.00     0.01   0.01   0.01
  22   6     0.02  -0.08  -0.01     0.00  -0.21   0.01     0.00   0.02   0.11
  23   6     0.06  -0.09   0.00     0.17  -0.23   0.00    -0.02   0.02   0.01
  24   6     0.01  -0.00   0.01    -0.04  -0.01  -0.01     0.01   0.00  -0.08
  25   6     0.03   0.02  -0.01     0.04   0.05   0.00    -0.00  -0.01   0.05
  26  16    -0.04   0.13   0.00    -0.15   0.31  -0.00     0.02  -0.03  -0.01
  27  16    -0.02   0.38   0.00     0.18   0.06   0.00    -0.01   0.01   0.02
  28  16     0.04   0.14  -0.03    -0.11  -0.39   0.01     0.03   0.05   0.05
  29  16     0.00  -0.03   0.04     0.01  -0.02  -0.01     0.06  -0.06  -0.05
  30   1     0.02   0.02  -0.02    -0.01  -0.00   0.01     0.00   0.01  -0.01
  31   1     0.00  -0.02  -0.00     0.00   0.01  -0.00     0.00  -0.00  -0.00
  32   1     0.00  -0.03   0.00    -0.00   0.01   0.00     0.00  -0.01   0.01
  33   1    -0.02   0.00  -0.01     0.00   0.01   0.02    -0.00   0.02   0.03
  34   1    -0.04   0.02   0.02     0.02  -0.01  -0.01     0.01  -0.00  -0.01
  35   1    -0.04   0.03   0.01    -0.01  -0.01  -0.00    -0.06  -0.01   0.00
  36   1     0.01   0.01   0.00    -0.01  -0.00   0.00    -0.01   0.00   0.01
  37   1     0.03  -0.01   0.08     0.01   0.00  -0.00     0.03   0.00   0.10
  38   1     0.03   0.01  -0.03    -0.01   0.00  -0.02     0.02   0.01  -0.22
  39   1    -0.00   0.01  -0.04    -0.07  -0.03   0.01    -0.01   0.01   0.02
  40   1    -0.02  -0.03   0.00     0.05   0.04  -0.00    -0.04  -0.10  -0.03
  41   1    -0.02  -0.06   0.01     0.05   0.05  -0.00     0.01   0.04  -0.03
  42   1    -0.01  -0.04   0.01     0.09   0.12  -0.00    -0.01  -0.02  -0.04
  43   1     0.02  -0.02   0.00     0.05  -0.04   0.00    -0.02   0.03  -0.01
  44   1     0.02  -0.02  -0.00     0.05  -0.04  -0.00     0.01  -0.02  -0.01
  45   1     0.02  -0.03   0.00     0.08  -0.09  -0.00    -0.01   0.01  -0.02
  46   1    -0.02   0.01   0.01    -0.06   0.02  -0.00     0.01  -0.00  -0.06
  47   1     0.01  -0.00  -0.00     0.01  -0.01   0.00    -0.00   0.00   0.00
                     46                     47                     48
                        a                      a                      a 
 Frequencies --   559.3036               561.7756               579.3128
 Red. masses --    18.4448                11.6256                12.6535
 Frc consts  --     0.0000                 0.0000                 0.0000
 IR Inten    --     1.0087                 9.8283                23.6527
 Raman Activ --     0.0000                 0.0000                 0.0000
 Depolar     --     0.0000                 0.0000                 0.0000
 Atom AN      X      Y      Z        X      Y      Z        X      Y      Z
   1   7    -0.00  -0.00   0.00    -0.00   0.01  -0.01     0.01  -0.07  -0.00
   2   6     0.00  -0.00  -0.00    -0.01   0.01  -0.00    -0.05   0.02   0.07
   3   6     0.01   0.00   0.00    -0.07  -0.01  -0.02     0.42   0.19   0.11
   4   6     0.00   0.00  -0.00    -0.04   0.00  -0.04     0.26  -0.02  -0.31
   5   6    -0.01  -0.00  -0.00     0.03   0.03   0.08    -0.08  -0.21   0.14
   6   6    -0.01  -0.01   0.00     0.03   0.03  -0.11    -0.11  -0.19  -0.10
   7   6    -0.01  -0.01  -0.00     0.03   0.02   0.31    -0.18  -0.11   0.11
   8   6    -0.03   0.05   0.00     0.02   0.02  -0.35    -0.12  -0.09  -0.05
   9   6     0.08  -0.02   0.00    -0.02   0.02   0.15     0.11  -0.13   0.00
  10   6     0.07  -0.21  -0.00    -0.03  -0.02  -0.10     0.13   0.07   0.02
  11   6    -0.15  -0.23  -0.00    -0.03  -0.04  -0.02     0.12   0.18   0.00
  12   6     0.12  -0.11   0.00    -0.01  -0.01  -0.09     0.06   0.02  -0.03
  13   6     0.07  -0.03  -0.00    -0.00   0.00   0.31     0.03  -0.02   0.02
  14   6     0.04   0.04   0.00    -0.00  -0.00  -0.30     0.02  -0.01  -0.01
  15   6     0.00   0.17  -0.00     0.00  -0.00   0.28    -0.03   0.04   0.01
  16   7     0.12   0.15  -0.00    -0.00  -0.00  -0.12     0.02   0.01  -0.00
  17   6    -0.05   0.03   0.00     0.00  -0.00  -0.31     0.00   0.01  -0.02
  18   6     0.00   0.19  -0.00     0.00   0.00   0.32    -0.04  -0.00   0.02
  19   7    -0.15   0.12  -0.00     0.00  -0.00  -0.13    -0.01   0.03  -0.01
  20   6    -0.08  -0.05  -0.00     0.00   0.00   0.24    -0.00   0.01   0.01
  21   6    -0.11  -0.16   0.00     0.00   0.00   0.04    -0.00  -0.01   0.01
  22   6    -0.01  -0.26   0.00     0.00   0.00  -0.23    -0.00  -0.02  -0.02
  23   6     0.23  -0.27   0.00    -0.00   0.01  -0.02     0.02  -0.02  -0.00
  24   6    -0.07  -0.01  -0.00     0.00   0.00   0.15    -0.01   0.00   0.01
  25   6     0.03   0.07  -0.00    -0.00  -0.00  -0.09    -0.00   0.01  -0.01
  26  16    -0.18   0.36  -0.00     0.00  -0.01   0.01    -0.01   0.02   0.00
  27  16     0.03  -0.29   0.00     0.00   0.00  -0.05    -0.02  -0.02  -0.00
  28  16     0.08   0.31  -0.00     0.01   0.01   0.06    -0.05  -0.00   0.01
  29  16     0.01   0.00   0.00     0.04  -0.04  -0.03    -0.28   0.19   0.02
  30   1    -0.00  -0.00   0.00    -0.00   0.00  -0.00     0.04   0.02  -0.04
  31   1    -0.00  -0.00   0.00     0.00   0.00  -0.00    -0.01  -0.05   0.01
  32   1    -0.00  -0.00  -0.00     0.00   0.00   0.00     0.00  -0.05  -0.03
  33   1     0.00  -0.00  -0.00     0.00   0.01   0.02    -0.03  -0.08  -0.16
  34   1    -0.00   0.00   0.00     0.02  -0.00  -0.01    -0.18   0.06   0.09
  35   1     0.00  -0.00   0.00    -0.03  -0.01  -0.00     0.07   0.08   0.04
  36   1     0.00   0.00   0.00    -0.01  -0.00   0.01     0.14   0.03   0.00
  37   1    -0.01   0.00  -0.00     0.02   0.00   0.02    -0.09  -0.02   0.10
  38   1     0.00  -0.00   0.00     0.01   0.01  -0.11    -0.00  -0.04  -0.06
  39   1     0.07   0.03   0.00    -0.01   0.00   0.15     0.04  -0.03   0.01
  40   1    -0.05  -0.03   0.00     0.00   0.00   0.01     0.03   0.06  -0.00
  41   1    -0.05  -0.03  -0.00    -0.02  -0.03   0.00     0.03   0.07  -0.00
  42   1    -0.08  -0.10  -0.00    -0.00  -0.01   0.01     0.02   0.04  -0.00
  43   1     0.07  -0.04  -0.00     0.03  -0.05   0.02     0.01  -0.01   0.00
  44   1     0.07  -0.04   0.00    -0.03   0.05   0.02     0.00   0.00   0.00
  45   1     0.12  -0.11   0.00    -0.00   0.00   0.03     0.01  -0.01   0.00
  46   1    -0.08   0.03  -0.00     0.00   0.00   0.11    -0.01   0.00   0.01
  47   1     0.00  -0.00   0.00     0.00  -0.00   0.00    -0.00   0.00   0.00
                     49                     50                     51
                        a                      a                      a 
 Frequencies --   589.3262               594.9985               633.2564
 Red. masses --    10.6535                11.0677                12.0435
 Frc consts  --     0.0000                 0.0000                 0.0000
 IR Inten    --     0.0241                 0.1246                 0.0417
 Raman Activ --     0.0000                 0.0000                 0.0000
 Depolar     --     0.0000                 0.0000                 0.0000
 Atom AN      X      Y      Z        X      Y      Z        X      Y      Z
   1   7    -0.00   0.00   0.00     0.00   0.00   0.00     0.00  -0.00  -0.00
   2   6     0.00  -0.00  -0.00    -0.00  -0.00   0.00    -0.00   0.00  -0.00
   3   6    -0.01  -0.00  -0.00    -0.00  -0.00  -0.00    -0.00   0.00  -0.00
   4   6    -0.00   0.00   0.01    -0.00   0.00  -0.00     0.00  -0.00   0.00
   5   6     0.00   0.00  -0.00     0.00   0.00  -0.00     0.00  -0.00  -0.00
   6   6     0.00   0.00   0.01     0.00  -0.00  -0.00     0.00  -0.00   0.00
   7   6     0.00   0.00  -0.08    -0.00   0.00   0.05    -0.00  -0.00  -0.00
   8   6    -0.00   0.00   0.22     0.00  -0.00  -0.17    -0.00  -0.00  -0.00
   9   6     0.00   0.00  -0.23    -0.00  -0.00   0.20    -0.00  -0.00   0.01
  10   6    -0.01  -0.00   0.40     0.00   0.00  -0.39     0.00   0.00  -0.03
  11   6    -0.00  -0.00   0.02     0.00  -0.00  -0.02     0.00  -0.00  -0.00
  12   6     0.00  -0.00  -0.35    -0.00  -0.00   0.41    -0.00  -0.00   0.10
  13   6    -0.00   0.00   0.06     0.00  -0.00  -0.26     0.00  -0.00  -0.29
  14   6    -0.00   0.00   0.13    -0.00   0.00   0.15    -0.00   0.00   0.55
  15   6     0.00  -0.00  -0.09     0.00  -0.00  -0.11     0.00  -0.00  -0.25
  16   7    -0.00   0.00   0.04    -0.00  -0.00   0.04    -0.00   0.00   0.09
  17   6     0.00  -0.00  -0.10    -0.00   0.00   0.12     0.00  -0.00  -0.58
  18   6     0.00   0.00   0.07     0.00  -0.00  -0.10    -0.00   0.00   0.28
  19   7     0.00  -0.00  -0.03     0.00  -0.00   0.04     0.00  -0.00  -0.10
  20   6     0.00  -0.00  -0.12     0.00  -0.00  -0.24    -0.00   0.00   0.31
  21   6    -0.00   0.00   0.41    -0.00   0.00   0.40    -0.00  -0.00  -0.12
  22   6     0.00  -0.00  -0.44     0.00  -0.00  -0.35    -0.00   0.00   0.03
  23   6    -0.00   0.00  -0.02    -0.00   0.00  -0.02    -0.00   0.00   0.00
  24   6    -0.00   0.00   0.22    -0.00   0.00   0.17     0.00  -0.00  -0.01
  25   6     0.00  -0.00  -0.14     0.00  -0.00  -0.11     0.00  -0.00   0.01
  26  16    -0.00   0.00  -0.02     0.00  -0.00  -0.02     0.00   0.00   0.01
  27  16    -0.00  -0.00   0.00     0.00   0.00   0.05    -0.00   0.00  -0.00
  28  16     0.00  -0.00  -0.00    -0.00   0.00  -0.01     0.00   0.00  -0.01
  29  16     0.00  -0.00   0.01     0.00   0.00  -0.00     0.00   0.00  -0.00
  30   1    -0.00  -0.00   0.00     0.00   0.00  -0.00     0.00  -0.00  -0.00
  31   1     0.00   0.00  -0.00    -0.00  -0.00   0.00     0.00   0.00  -0.00
  32   1    -0.00   0.00   0.00    -0.00  -0.00  -0.00     0.00  -0.00   0.00
  33   1     0.00   0.00   0.00    -0.00  -0.00   0.00    -0.00   0.00   0.00
  34   1     0.00  -0.00  -0.00     0.00  -0.00   0.00    -0.00   0.00  -0.00
  35   1    -0.00  -0.00  -0.00     0.00  -0.00  -0.00     0.00   0.00  -0.00
  36   1    -0.00  -0.00  -0.00    -0.00   0.00  -0.00    -0.00   0.00  -0.00
  37   1     0.00   0.00   0.00     0.00   0.00  -0.00     0.00  -0.00  -0.00
  38   1    -0.00   0.00   0.02     0.00  -0.00  -0.01     0.00   0.00   0.00
  39   1     0.00   0.00  -0.17    -0.00  -0.00   0.14    -0.00  -0.00  -0.00
  40   1    -0.04  -0.11  -0.04     0.04   0.11   0.04     0.00   0.01   0.00
  41   1     0.04   0.11  -0.04    -0.04  -0.10   0.04    -0.00  -0.01   0.00
  42   1     0.00   0.00  -0.06    -0.00  -0.00   0.06     0.00  -0.00   0.01
  43   1     0.06  -0.11   0.04     0.05  -0.09   0.04    -0.00   0.01  -0.00
  44   1    -0.06   0.11   0.04    -0.05   0.09   0.04     0.00  -0.01  -0.00
  45   1    -0.00   0.00   0.07    -0.00   0.00   0.05    -0.00   0.00  -0.01
  46   1    -0.00   0.00   0.15    -0.00   0.00   0.11     0.00  -0.00  -0.00
  47   1     0.00   0.00   0.02     0.00   0.00   0.03     0.00  -0.00  -0.01
                     52                     53                     54
                        a                      a                      a 
 Frequencies --   658.4343               675.6654               716.1337
 Red. masses --    13.6334                17.2623                14.8194
 Frc consts  --     0.0000                 0.0000                 0.0000
 IR Inten    --     2.0899                32.4935                13.0242
 Raman Activ --     0.0000                 0.0000                 0.0000
 Depolar     --     0.0000                 0.0000                 0.0000
 Atom AN      X      Y      Z        X      Y      Z        X      Y      Z
   1   7     0.00   0.01  -0.00     0.00   0.06  -0.01    -0.01   0.02  -0.00
   2   6    -0.01   0.01   0.01    -0.11   0.08   0.06    -0.01   0.02   0.02
   3   6    -0.05  -0.01  -0.01    -0.34  -0.11  -0.05    -0.02  -0.03   0.03
   4   6    -0.02  -0.02   0.01    -0.10  -0.27   0.00    -0.01  -0.25  -0.04
   5   6     0.03  -0.00  -0.00     0.16  -0.21   0.00    -0.18  -0.34   0.00
   6   6     0.03  -0.01   0.00     0.21  -0.20   0.00    -0.15  -0.02  -0.01
   7   6    -0.01  -0.00  -0.00    -0.08  -0.12  -0.00    -0.01  -0.00   0.00
   8   6    -0.01  -0.03   0.00    -0.08  -0.21   0.00     0.01   0.24  -0.00
   9   6    -0.06  -0.02  -0.00     0.04  -0.25  -0.00     0.08   0.26   0.00
  10   6    -0.05   0.05  -0.00     0.05   0.04   0.00     0.07  -0.09   0.00
  11   6     0.03   0.05   0.00     0.09   0.11   0.00    -0.07  -0.12  -0.00
  12   6     0.00   0.04   0.00     0.05   0.03  -0.00    -0.09  -0.10  -0.00
  13   6     0.03  -0.07   0.00     0.04  -0.03   0.00    -0.12   0.15  -0.00
  14   6     0.09  -0.05   0.00     0.03  -0.02   0.00    -0.22   0.11  -0.00
  15   6    -0.15   0.02  -0.00    -0.02   0.02  -0.00     0.18  -0.06   0.00
  16   7     0.00  -0.08   0.00     0.01   0.01   0.00    -0.03   0.06  -0.00
  17   6     0.12   0.09  -0.00     0.01   0.01   0.00    -0.19  -0.13   0.00
  18   6    -0.11  -0.09   0.00    -0.03  -0.00  -0.00     0.18   0.07   0.00
  19   7     0.04   0.02  -0.00    -0.01   0.02  -0.00    -0.00  -0.08   0.00
  20   6     0.13   0.13  -0.00    -0.01   0.01  -0.00    -0.06  -0.15   0.00
  21   6     0.17  -0.04   0.00    -0.02  -0.00   0.00    -0.03   0.04  -0.00
[...]
  14   6     0.00   0.00   0.00    -0.00   0.00   0.00    -0.00   0.00   0.00
  15   6    -0.00  -0.00  -0.00     0.00   0.00   0.00     0.00   0.00  -0.00
  16   7     0.00   0.00  -0.00    -0.00  -0.00  -0.00    -0.00  -0.00   0.00
  17   6    -0.00   0.00  -0.00     0.00   0.00  -0.00    -0.00   0.00  -0.00
  18   6     0.00  -0.00  -0.00    -0.00   0.00   0.00     0.00  -0.00  -0.00
  19   7    -0.00   0.00   0.00     0.00  -0.00  -0.00    -0.00   0.00   0.00
  20   6     0.00   0.00  -0.00    -0.00  -0.00   0.00     0.00   0.00   0.00
  21   6    -0.00  -0.00  -0.00     0.00   0.00  -0.00    -0.00  -0.00   0.00
  22   6     0.00   0.00   0.00     0.00   0.00   0.01    -0.00   0.00  -0.00
  23   6     0.00   0.00   0.00     0.00   0.00   0.29    -0.01  -0.00  -0.01
  24   6    -0.00  -0.00   0.00    -0.00   0.00   0.00     0.00   0.00   0.00
  25   6    -0.00  -0.00   0.00    -0.00  -0.00  -0.00    -0.00   0.00   0.00
  26  16    -0.00   0.00  -0.00     0.00  -0.00   0.00    -0.00  -0.00  -0.00
  27  16    -0.00  -0.00   0.00     0.00  -0.00   0.00     0.00  -0.00  -0.00
  28  16    -0.00  -0.00  -0.00    -0.00  -0.00   0.00    -0.00  -0.00  -0.00
  29  16     0.00   0.00  -0.00    -0.00   0.00  -0.00     0.00   0.00   0.00
  30   1     0.00   0.00  -0.00     0.00  -0.00  -0.00    -0.00   0.00   0.00
  31   1    -0.01   0.00  -0.02    -0.00   0.00  -0.00     0.00  -0.00   0.00
  32   1     0.01   0.00  -0.00    -0.00   0.00   0.00    -0.00  -0.00  -0.00
  33   1    -0.55  -0.02   0.03    -0.00  -0.00   0.00     0.00   0.00  -0.00
  34   1     0.34   0.02   0.72    -0.00  -0.00  -0.00    -0.00   0.00  -0.00
  35   1     0.02  -0.00   0.07    -0.00  -0.00  -0.00    -0.00   0.00  -0.00
  36   1    -0.02  -0.04   0.02     0.00   0.00  -0.00    -0.00  -0.00   0.00
  37   1     0.00   0.00  -0.00    -0.00  -0.00  -0.00     0.00   0.00   0.00
  38   1    -0.00   0.00  -0.00     0.00   0.00  -0.00    -0.00   0.00   0.00
  39   1     0.00  -0.00  -0.00    -0.00   0.00  -0.00    -0.00   0.00  -0.00
  40   1    -0.00  -0.00   0.00    -0.01  -0.00   0.01    -0.30  -0.05   0.37
  41   1     0.00   0.00   0.00     0.01   0.00   0.01     0.49   0.08   0.66
  42   1     0.00  -0.00  -0.00     0.00  -0.00  -0.00     0.06  -0.07  -0.04
  43   1     0.00  -0.00  -0.00     0.41  -0.01  -0.53     0.01  -0.00  -0.02
  44   1    -0.00   0.00  -0.00    -0.41   0.01  -0.54     0.03  -0.00   0.04
  45   1    -0.00  -0.00   0.00    -0.00  -0.00   0.04     0.01   0.01  -0.00
  46   1     0.00   0.00   0.00     0.00   0.00   0.00     0.00  -0.00  -0.00
  47   1     0.00  -0.00  -0.00    -0.00  -0.00  -0.00     0.00  -0.00  -0.00
                    124                    125                    126
                        a                      a                      a 
 Frequencies --  3001.6836              3004.6989              3021.1758
 Red. masses --     1.7228                 1.8186                 1.3958
 Frc consts  --     0.0000                 0.0000                 0.0000
 IR Inten    --    34.2060                14.8764                14.2936
 Raman Activ --     0.0000                 0.0000                 0.0000
 Depolar     --     0.0000                 0.0000                 0.0000
 Atom AN      X      Y      Z        X      Y      Z        X      Y      Z
   1   7     0.00   0.00  -0.00    -0.00   0.00   0.00     0.00   0.00   0.00
   2   6     0.00   0.00  -0.00     0.00   0.00   0.00    -0.00   0.00  -0.00
   3   6     0.00   0.00   0.00    -0.00  -0.00  -0.00    -0.00  -0.00   0.00
   4   6    -0.00  -0.00   0.00     0.00  -0.00   0.00     0.00  -0.00   0.00
   5   6    -0.00  -0.00   0.00     0.00   0.00   0.00    -0.00   0.00   0.00
   6   6     0.00  -0.00   0.00    -0.00   0.00   0.00     0.00  -0.00   0.00
   7   6    -0.00  -0.00  -0.00     0.00   0.00  -0.00     0.00   0.00  -0.00
   8   6     0.00  -0.00  -0.00    -0.00  -0.00  -0.00    -0.00  -0.00  -0.00
   9   6     0.00  -0.00   0.00     0.00  -0.00   0.00    -0.00   0.01   0.00
  10   6    -0.00  -0.00   0.00    -0.01  -0.00   0.00     0.00  -0.01   0.00
  11   6    -0.05   0.01   0.03    -0.25   0.06   0.07     0.05  -0.18   0.01
  12   6    -0.00   0.00  -0.00    -0.00   0.00  -0.00    -0.00   0.00  -0.00
  13   6     0.00  -0.00   0.00     0.00  -0.00   0.00     0.00  -0.00   0.00
  14   6     0.00  -0.00   0.00    -0.00   0.00  -0.00    -0.00   0.00  -0.00
  15   6     0.00  -0.00   0.00     0.00   0.00   0.00     0.00   0.00   0.00
  16   7    -0.00  -0.00  -0.00    -0.00  -0.00  -0.00    -0.00  -0.00  -0.00
  17   6    -0.00  -0.00   0.00     0.00   0.00   0.00     0.00   0.00   0.00
  18   6     0.00  -0.00   0.00     0.00  -0.00   0.00    -0.00   0.00   0.00
  19   7    -0.00   0.00  -0.00    -0.00   0.00  -0.00     0.00  -0.00  -0.00
  20   6     0.00   0.00  -0.00    -0.00   0.00  -0.00    -0.00   0.00  -0.00
  21   6    -0.00  -0.00   0.00     0.00   0.00  -0.00     0.00   0.00  -0.00
  22   6    -0.01   0.00   0.00     0.00  -0.00  -0.00     0.00   0.00   0.00
  23   6    -0.24  -0.07   0.00     0.05   0.02  -0.00     0.00  -0.00  -0.00
  24   6     0.00   0.00   0.00    -0.00  -0.00  -0.00    -0.00  -0.00   0.00
  25   6     0.00   0.00  -0.00    -0.00  -0.00  -0.00    -0.00   0.00  -0.00
  26  16    -0.00   0.00   0.00     0.00  -0.00   0.00    -0.00  -0.00   0.00
  27  16     0.00   0.00  -0.00     0.00  -0.00   0.00     0.00  -0.00   0.00
  28  16    -0.00   0.00   0.00    -0.00  -0.00   0.00    -0.00  -0.00   0.00
  29  16     0.00   0.00  -0.00     0.00   0.00  -0.00    -0.00  -0.00  -0.00
  30   1    -0.00   0.00   0.00     0.00  -0.00   0.00     0.00  -0.00  -0.00
  31   1    -0.00  -0.00  -0.00    -0.00  -0.00  -0.00    -0.00   0.00  -0.00
  32   1    -0.00  -0.00   0.00     0.00  -0.00   0.00    -0.00   0.00   0.00
  33   1    -0.00  -0.00   0.00    -0.00  -0.00   0.00    -0.00   0.00  -0.00
  34   1     0.00  -0.00   0.00     0.00  -0.00  -0.00     0.00   0.00   0.00
  35   1    -0.00   0.00  -0.00     0.00  -0.00   0.00    -0.00   0.00  -0.00
  36   1    -0.00  -0.00   0.00     0.00   0.00  -0.00     0.00   0.00  -0.00
  37   1     0.00   0.00   0.00    -0.00  -0.00  -0.00     0.00  -0.00  -0.00
  38   1    -0.00   0.00  -0.00     0.00  -0.00  -0.00    -0.00   0.00  -0.00
  39   1    -0.00   0.00   0.00    -0.00   0.00   0.00     0.01  -0.01   0.00
  40   1     0.11   0.02  -0.16     0.40   0.09  -0.61     0.22   0.02  -0.30
  41   1     0.02   0.01   0.05     0.20   0.05   0.34     0.19   0.01   0.25
  42   1     0.06  -0.06   0.00     0.29  -0.33   0.01    -0.59   0.62   0.01
  43   1     0.35  -0.03  -0.53    -0.08   0.01   0.12    -0.00   0.00   0.01
  44   1     0.34  -0.02   0.52    -0.08   0.00  -0.12    -0.00  -0.00  -0.01
  45   1     0.16   0.26  -0.00    -0.04  -0.06   0.00     0.00   0.00  -0.00
  46   1    -0.00  -0.00   0.00     0.00   0.00   0.00     0.00   0.00  -0.00
  47   1    -0.00   0.00  -0.00     0.00  -0.00   0.00     0.00  -0.00   0.00
                    127                    128                    129
                        a                      a                      a 
 Frequencies --  3023.9419              3086.1046              3089.1023
 Red. masses --     1.4826                 1.8050                 1.8475
 Frc consts  --     0.0000                 0.0000                 0.0000
 IR Inten    --    21.4480                34.0345                26.8548
 Raman Activ --     0.0000                 0.0000                 0.0000
 Depolar     --     0.0000                 0.0000                 0.0000
 Atom AN      X      Y      Z        X      Y      Z        X      Y      Z
   1   7    -0.00   0.00   0.00     0.00   0.00   0.00    -0.00   0.00  -0.00
   2   6     0.00   0.00  -0.00     0.00   0.00   0.00     0.00   0.00  -0.00
   3   6     0.00   0.00   0.00    -0.00  -0.00  -0.00     0.00   0.00   0.00
   4   6    -0.00   0.00   0.00    -0.01   0.00  -0.00    -0.00   0.00  -0.00
   5   6    -0.00  -0.00  -0.00    -0.09  -0.17  -0.00    -0.00  -0.00  -0.00
   6   6     0.00  -0.00   0.00    -0.11   0.15  -0.00    -0.00   0.00  -0.00
   7   6    -0.00   0.00   0.00    -0.01  -0.00  -0.00    -0.00   0.00  -0.00
   8   6     0.00  -0.00   0.00    -0.00  -0.00   0.00     0.00  -0.00   0.00
   9   6    -0.00   0.00   0.00     0.00  -0.00   0.00     0.00  -0.00   0.00
  10   6     0.00  -0.00  -0.00    -0.00  -0.00  -0.00    -0.00   0.00  -0.00
  11   6     0.00  -0.00   0.00     0.00  -0.00   0.00    -0.00  -0.00   0.00
  12   6     0.00  -0.00   0.00     0.00  -0.00   0.00     0.00  -0.00   0.00
  13   6    -0.00  -0.00  -0.00    -0.00  -0.00  -0.00    -0.00   0.00  -0.00
  14   6     0.00  -0.00   0.00     0.00  -0.00   0.00     0.00   0.00   0.00
  15   6    -0.00  -0.00  -0.00     0.00  -0.00   0.00    -0.00  -0.00  -0.00
  16   7     0.00   0.00  -0.00    -0.00   0.00   0.00     0.00   0.00   0.00
  17   6    -0.00  -0.00  -0.00    -0.00   0.00  -0.00    -0.00   0.00  -0.00
  18   6     0.00  -0.00   0.00     0.00  -0.00   0.00     0.00  -0.00   0.00
  19   7    -0.00   0.00  -0.00    -0.00   0.00   0.00    -0.00   0.00  -0.00
  20   6     0.00   0.00   0.00    -0.00  -0.00   0.00    -0.00   0.00  -0.00
  21   6    -0.00  -0.00   0.00    -0.00   0.00  -0.00    -0.00  -0.00   0.00
  22   6     0.00   0.01  -0.00     0.00  -0.00  -0.00    -0.01   0.01  -0.00
  23   6     0.06   0.20  -0.00    -0.00   0.00   0.00     0.00   0.00  -0.00
  24   6    -0.00  -0.01   0.00    -0.00  -0.00   0.00     0.13   0.24  -0.00
  25   6     0.00   0.00  -0.00    -0.00   0.00  -0.00    -0.02   0.00  -0.00
  26  16    -0.00   0.00   0.00     0.00   0.00   0.00    -0.00  -0.00   0.00
  27  16     0.00   0.00  -0.00     0.00   0.00  -0.00    -0.00   0.00   0.00
  28  16    -0.00   0.00  -0.00     0.00   0.00   0.00    -0.00   0.00  -0.00
  29  16    -0.00  -0.00   0.00     0.00   0.00   0.00    -0.00  -0.00   0.00
  30   1     0.00  -0.00  -0.00     0.00  -0.00  -0.00     0.00  -0.00  -0.00
  31   1     0.00   0.00   0.00    -0.00  -0.00  -0.00     0.00   0.00   0.00
  32   1    -0.00   0.00  -0.00    -0.00  -0.00   0.00     0.00   0.00  -0.00
  33   1    -0.00  -0.00   0.00     0.00   0.00  -0.00    -0.00  -0.00   0.00
  34   1     0.00   0.00   0.00    -0.00  -0.00  -0.00     0.00  -0.00   0.00
  35   1    -0.00   0.00  -0.00     0.00  -0.00   0.00    -0.00  -0.00  -0.00
  36   1    -0.00  -0.00   0.00     0.00   0.00  -0.00     0.00  -0.00   0.00
  37   1     0.00   0.00   0.00     0.32   0.60   0.00     0.00   0.01   0.00
  38   1    -0.00   0.00  -0.00     0.41  -0.54   0.01     0.00  -0.00   0.00
  39   1     0.00  -0.00   0.00    -0.00   0.01  -0.00    -0.00   0.00  -0.00
  40   1    -0.00  -0.00   0.00     0.00  -0.00  -0.00     0.00   0.00  -0.00
  41   1    -0.00  -0.00  -0.00    -0.00  -0.00  -0.00     0.00   0.00   0.00
  42   1    -0.00   0.00   0.00    -0.00   0.00  -0.00    -0.00   0.00   0.00
  43   1     0.15   0.02  -0.20     0.00   0.00  -0.00     0.00   0.00  -0.00
  44   1     0.15   0.02   0.20     0.00   0.00   0.00     0.00   0.00   0.00
  45   1    -0.53  -0.74   0.01    -0.00  -0.00  -0.00    -0.01  -0.02   0.00
  46   1     0.01   0.02  -0.00     0.00   0.00  -0.00    -0.47  -0.83   0.01
  47   1    -0.00   0.00  -0.00    -0.00   0.00  -0.00     0.11  -0.02   0.00
                    130                    131                    132
                        a                      a                      a 
 Frequencies --  3096.7753              3107.0834              3143.5350
 Red. masses --     1.9027                 1.8546                 1.8911
 Frc consts  --     0.0000                 0.0000                 0.0000
 IR Inten    --    70.4532                11.3681                 0.1233
 Raman Activ --     0.0000                 0.0000                 0.0000
 Depolar     --     0.0000                 0.0000                 0.0000
 Atom AN      X      Y      Z        X      Y      Z        X      Y      Z
   1   7    -0.00   0.00  -0.00    -0.00   0.00   0.00     0.00   0.00   0.00
   2   6     0.00   0.00   0.00     0.00  -0.00   0.00    -0.00   0.00  -0.00
   3   6    -0.00  -0.00  -0.00     0.00   0.00  -0.00    -0.00  -0.00   0.00
   4   6    -0.01   0.00  -0.00     0.00  -0.00  -0.00     0.00  -0.00   0.00
   5   6    -0.10  -0.18  -0.00     0.00   0.00   0.00    -0.00   0.00  -0.00
   6   6     0.12  -0.16   0.00    -0.00   0.01  -0.00    -0.00   0.00  -0.00
   7   6     0.01   0.00   0.00    -0.00   0.00  -0.00    -0.00  -0.00  -0.00
   8   6     0.00  -0.00   0.00    -0.01  -0.00  -0.00     0.00   0.00   0.00
   9   6    -0.01   0.01  -0.00    -0.17   0.22  -0.00     0.00  -0.00   0.00
  10   6     0.00   0.00   0.00     0.01   0.01   0.00     0.00  -0.00   0.00
  11   6    -0.00   0.00   0.00    -0.00   0.00  -0.00    -0.00  -0.00   0.00
  12   6    -0.00   0.00  -0.00     0.00  -0.00   0.00    -0.00   0.00   0.00
  13   6     0.00  -0.00   0.00    -0.00   0.00   0.00     0.00  -0.00  -0.00
  14   6    -0.00   0.00  -0.00    -0.00  -0.00   0.00    -0.00   0.00   0.00
  15   6    -0.00  -0.00  -0.00    -0.00  -0.00   0.00     0.00   0.00  -0.00
  16   7     0.00   0.00   0.00    -0.00  -0.00  -0.00    -0.00  -0.00  -0.00
  17   6    -0.00  -0.00   0.00    -0.00   0.00  -0.00     0.00   0.00  -0.00
  18   6     0.00  -0.00  -0.00     0.00  -0.00   0.00    -0.00  -0.00   0.00
  19   7    -0.00   0.00   0.00    -0.00   0.00  -0.00     0.00  -0.00  -0.00
  20   6    -0.00   0.00  -0.00     0.00   0.00  -0.00    -0.00  -0.00   0.00
  21   6    -0.00  -0.00   0.00    -0.00  -0.00  -0.00    -0.00   0.00  -0.00
  22   6     0.00   0.00   0.00     0.00   0.00  -0.00    -0.00  -0.00   0.00
  23   6     0.00  -0.00   0.00     0.00   0.00   0.00     0.00  -0.00  -0.00
  24   6    -0.00  -0.00   0.00     0.00   0.00  -0.00     0.02   0.04  -0.00
  25   6     0.00  -0.00   0.00     0.00  -0.00  -0.00     0.28  -0.05   0.00
  26  16     0.00  -0.00  -0.00     0.00  -0.00   0.00     0.00  -0.00   0.00
  27  16     0.00  -0.00   0.00     0.00   0.00  -0.00    -0.00   0.00  -0.00
  28  16    -0.00  -0.00  -0.00     0.00  -0.00   0.00    -0.00  -0.00  -0.00
  29  16     0.00   0.00   0.00     0.00   0.00  -0.00    -0.00   0.00  -0.00
  30   1     0.00  -0.00  -0.00    -0.00   0.00   0.00     0.00  -0.00  -0.00
  31   1     0.00   0.00   0.00    -0.00  -0.00  -0.00     0.00   0.00  -0.00
  32   1     0.00   0.00  -0.00     0.00  -0.00  -0.00    -0.00   0.00   0.00
  33   1     0.00  -0.00   0.00    -0.00   0.00   0.00    -0.00   0.00   0.00
  34   1    -0.00   0.00   0.00    -0.00  -0.00  -0.00     0.00   0.00   0.00
  35   1     0.00  -0.00   0.00     0.00   0.00   0.00    -0.00   0.00  -0.00
  36   1     0.00   0.00  -0.00    -0.00  -0.00   0.00     0.00   0.00  -0.00
  37   1     0.32   0.59   0.00    -0.01  -0.02  -0.00    -0.00   0.00  -0.00
  38   1    -0.41   0.54  -0.01     0.02  -0.02   0.00     0.00  -0.00   0.00
  39   1     0.02  -0.03   0.00     0.59  -0.76   0.01    -0.00   0.00  -0.00
  40   1    -0.00   0.00   0.00    -0.00  -0.00   0.00     0.00   0.00  -0.00
  41   1    -0.00   0.00  -0.00    -0.00  -0.00  -0.00     0.00   0.00   0.00
  42   1     0.00  -0.00  -0.00     0.01  -0.01  -0.00    -0.00   0.00   0.00
  43   1    -0.00   0.00   0.00    -0.00   0.00   0.00    -0.00  -0.00   0.00
  44   1    -0.00   0.00  -0.00    -0.00   0.00  -0.00    -0.00  -0.00  -0.00
  45   1     0.00   0.00  -0.00    -0.00  -0.00  -0.00    -0.00  -0.00   0.00
  46   1     0.00   0.00  -0.00    -0.00  -0.00   0.00    -0.05  -0.09   0.00
  47   1    -0.00   0.00  -0.00    -0.00   0.00  -0.00    -0.94   0.15  -0.00
                    133                    134                    135
                        a                      a                      a 
 Frequencies --  3263.1352              3269.9078              3296.4141
 Red. masses --     2.0156                 2.0456                 1.3192
 Frc consts  --     0.0000                 0.0000                 0.0000
 IR Inten    --   303.7627               252.2611                67.9824
 Raman Activ --     0.0000                 0.0000                 0.0000
 Depolar     --     0.0000                 0.0000                 0.0000
 Atom AN      X      Y      Z        X      Y      Z        X      Y      Z
   1   7     0.16  -0.17  -0.15     0.21   0.04   0.19    -0.08  -0.09   0.10
   2   6     0.00  -0.00  -0.00     0.00   0.00   0.01    -0.00  -0.01   0.01
   3   6    -0.00   0.00  -0.00     0.00  -0.00   0.00    -0.00   0.00   0.00
   4   6    -0.00  -0.00  -0.00    -0.00   0.00   0.00     0.00  -0.00   0.00
   5   6    -0.00  -0.00   0.00    -0.00   0.00   0.00     0.00  -0.00  -0.00
   6   6     0.00  -0.00   0.00     0.00   0.00   0.00    -0.00  -0.00  -0.00
   7   6     0.00  -0.00  -0.00     0.00  -0.00  -0.00    -0.00   0.00   0.00
   8   6     0.00   0.00   0.00     0.00   0.00  -0.00     0.00  -0.00  -0.00
   9   6    -0.00  -0.00  -0.00    -0.00   0.00  -0.00     0.00  -0.00   0.00
  10   6     0.00  -0.00   0.00     0.00   0.00  -0.00     0.00  -0.00  -0.00
  11   6    -0.00  -0.00   0.00    -0.00   0.00  -0.00     0.00  -0.00   0.00
  12   6    -0.00  -0.00   0.00    -0.00   0.00  -0.00     0.00   0.00  -0.00
  13   6     0.00  -0.00  -0.00     0.00  -0.00   0.00    -0.00  -0.00   0.00
  14   6     0.00   0.00   0.00    -0.00   0.00  -0.00     0.00   0.00  -0.00
  15   6    -0.00  -0.00  -0.00     0.00  -0.00   0.00    -0.00  -0.00   0.00
  16   7     0.00   0.00   0.00    -0.00   0.00  -0.00     0.00   0.00  -0.00
  17   6    -0.00  -0.00   0.00    -0.00  -0.00  -0.00    -0.00   0.00   0.00
  18   6     0.00  -0.00  -0.00     0.00  -0.00   0.00    -0.00  -0.00   0.00
  19   7    -0.00   0.00   0.00    -0.00   0.00  -0.00    -0.00   0.00  -0.00
  20   6    -0.00   0.00  -0.00    -0.00   0.00   0.00     0.00  -0.00   0.00
  21   6    -0.00  -0.00   0.00    -0.00  -0.00  -0.00     0.00  -0.00  -0.00
  22   6     0.00   0.00   0.00    -0.00   0.00  -0.00     0.00  -0.00  -0.00
  23   6     0.00   0.00   0.00    -0.00  -0.00  -0.00     0.00   0.00   0.00
  24   6     0.00   0.00   0.00    -0.00   0.00  -0.00     0.00   0.00  -0.00
  25   6     0.00  -0.00   0.00    -0.00  -0.00  -0.00     0.00  -0.00  -0.00
  26  16     0.00   0.00  -0.00     0.00  -0.00   0.00    -0.00   0.00   0.00
  27  16     0.00  -0.00   0.00     0.00  -0.00  -0.00    -0.00   0.00  -0.00
  28  16     0.00  -0.00  -0.00     0.00  -0.00   0.00    -0.00   0.00   0.00
  29  16     0.00  -0.00   0.00     0.00  -0.00   0.00    -0.00   0.00  -0.00
  30   1    -0.25   0.70   0.45     0.07  -0.13  -0.07    -0.12   0.31   0.21
  31   1     0.06  -0.01   0.07    -0.33   0.01  -0.71    -0.26  -0.00  -0.51
  32   1    -0.40  -0.03   0.04    -0.53  -0.02   0.08     0.70   0.02  -0.08
  33   1    -0.01  -0.00   0.00    -0.01  -0.00   0.00     0.02   0.00  -0.00
  34   1     0.00   0.00   0.00    -0.01   0.00  -0.01    -0.01   0.00  -0.01
  35   1     0.00  -0.00   0.00    -0.00  -0.00  -0.00    -0.00  -0.00   0.00
  36   1     0.00   0.00  -0.00    -0.00   0.00  -0.00     0.00   0.00  -0.00
  37   1     0.00   0.00   0.00     0.00   0.00  -0.00     0.00   0.00  -0.00
  38   1    -0.00   0.00   0.00    -0.00   0.00  -0.00     0.00  -0.00  -0.00
  39   1     0.00   0.00  -0.00     0.00  -0.00   0.00    -0.00   0.00  -0.00
  40   1     0.00  -0.00  -0.00    -0.00   0.00   0.00    -0.00   0.00  -0.00
  41   1    -0.00   0.00  -0.00     0.00  -0.00   0.00    -0.00   0.00  -0.00
  42   1    -0.00   0.00  -0.00     0.00  -0.00   0.00    -0.00   0.00  -0.00
  43   1     0.00   0.00  -0.00    -0.00  -0.00   0.00     0.00  -0.00  -0.00
  44   1    -0.00  -0.00  -0.00     0.00   0.00   0.00    -0.00  -0.00   0.00
  45   1    -0.00  -0.00  -0.00    -0.00  -0.00   0.00    -0.00  -0.00   0.00
  46   1    -0.00  -0.00  -0.00    -0.00  -0.00   0.00    -0.00  -0.00   0.00
  47   1    -0.00   0.00  -0.00     0.00  -0.00   0.00    -0.00   0.00   0.00
