 Entering Gaussian System
 *********************************************
 Gaussian 98:
 frequency output generated by the xtb code
 *********************************************
                         Standard orientation:
 --------------------------------------------------------------------
  Center     Atomic     Atomic              Coordinates (Angstroms)
  Number     Number      Type              X           Y           Z
 --------------------------------------------------------------------
    1          7             0       -2.743575   -0.554476   -0.453549
    2          6             0       -1.590420    0.392898   -0.436735
    3          6             0       -0.599607    0.133724    0.710332
    4          6             0        0.421110    1.294999    0.876026
    5          6             0        1.483896    1.311022   -0.237667
    6          6             0        2.209619   -0.040422   -0.344018
    7          6             0        1.213242   -1.194787   -0.543202
    8          6             0        0.150226   -1.219410    0.569872
    9          1             0       -3.256592   -0.532082    0.439702
   10          1             0       -2.442080   -1.525958   -0.614689
   11          1             0       -3.416056   -0.318304   -1.198598
   12          1             0       -1.977504    1.415700   -0.358306
   13          1             0       -1.066853    0.350163   -1.396717
   14          1             0       -1.200184    0.084639    1.634794
   15          1             0        0.919363    1.209429    1.848875
   16          1             0       -0.111085    2.254022    0.906017
   17          1             0        2.206471    2.120859   -0.066091
   18          1             0        1.010424    1.548893   -1.197066
   19          1             0        2.791841   -0.214544    0.568841
   20          1             0        2.946166   -0.020557   -1.159040
   21          1             0        1.744827   -2.155410   -0.586872
   22          1             0        0.726079   -1.093997   -1.519591
   23          1             0        0.635028   -1.466861    1.521910
   24          1             0       -0.566119   -2.030327    0.393876
 --------------------------------------------------------------------
     1 basis functions        1 primitive gaussians
     1 alpha electrons        1 beta electrons

 Harmonic frequencies (cm**-1), IR intensities (km*mol⁻¹),
 Raman scattering activities (A**4/amu), Raman depolarization ratios,
 reduced masses (AMU), force constants (mDyne/A) and normal coordinates:
                      1                      2                      3
                        a                      a                      a 
 Frequencies --   100.0345               144.7409               168.6069
 Red. masses --     8.5161                 3.7895                 6.9886
 Frc consts  --     0.0000                 0.0000                 0.0000
 IR Inten    --    15.5006                 3.0732                 7.6655
 Raman Activ --     0.0000                 0.0000                 0.0000
 Depolar     --     0.0000                 0.0000                 0.0000
 Atom AN      X      Y      Z        X      Y      Z        X      Y      Z
   1   7    -0.39   0.26   0.32    -0.12  -0.08   0.09     0.08  -0.29   0.17
   2   6     0.01  -0.19  -0.20    -0.20   0.05   0.05    -0.23   0.09   0.07
   3   6    -0.00  -0.12  -0.17    -0.01   0.03  -0.11    -0.03   0.14  -0.08
   4   6    -0.08  -0.06  -0.06    -0.02   0.05  -0.16     0.03   0.10  -0.11
   5   6     0.03   0.03   0.05     0.14  -0.04  -0.01     0.27  -0.04   0.11
   6   6     0.15   0.09   0.16     0.15  -0.05   0.21     0.11  -0.13   0.19
   7   6     0.26   0.03   0.00     0.12   0.02   0.01    -0.08   0.11  -0.17
   8   6     0.08  -0.08  -0.17    -0.02   0.02  -0.13    -0.14   0.09  -0.23
   9   1    -0.11   0.28   0.07     0.25  -0.36   0.20    -0.13   0.07  -0.04
  10   1    -0.21   0.01   0.25    -0.07   0.04  -0.43     0.16  -0.08   0.32
  11   1    -0.07   0.02   0.04    -0.27   0.23   0.32     0.12  -0.32  -0.12
  12   1     0.11  -0.00  -0.16    -0.09  -0.00   0.09    -0.14  -0.01   0.06
  13   1    -0.03  -0.22  -0.07    -0.11   0.09  -0.01    -0.09   0.09   0.00
  14   1    -0.01  -0.05  -0.06     0.02   0.01  -0.01     0.02   0.04  -0.00
  15   1    -0.05  -0.02  -0.00    -0.04   0.05  -0.03    -0.04   0.05  -0.00
  16   1    -0.04  -0.03  -0.02    -0.01   0.02  -0.10     0.02   0.04  -0.09
  17   1    -0.02   0.03   0.03     0.03  -0.00   0.01     0.09  -0.04   0.08
  18   1     0.03  -0.01   0.00     0.08  -0.04  -0.03     0.14   0.01   0.00
  19   1     0.01   0.04   0.07    -0.02  -0.01   0.10    -0.04  -0.09   0.09
  20   1     0.08   0.04   0.08     0.10  -0.03   0.11     0.09  -0.05   0.11
  21   1     0.09   0.02   0.02     0.02  -0.01   0.01    -0.08   0.00  -0.10
  22   1     0.11   0.01  -0.02     0.07   0.04  -0.01     0.00   0.13  -0.05
  23   1    -0.02  -0.04  -0.03    -0.04  -0.01  -0.02    -0.06  -0.02  -0.07
  24   1     0.04  -0.02  -0.11    -0.01   0.02  -0.07    -0.06   0.04  -0.10
                      4                      5                      6
                        a                      a                      a 
 Frequencies --   219.4534               282.0271               309.2164
 Red. masses --     7.3500                 8.2913                 7.1955
 Frc consts  --     0.0000                 0.0000                 0.0000
 IR Inten    --     2.4801                14.7374                 1.3234
 Raman Activ --     0.0000                 0.0000                 0.0000
 Depolar     --     0.0000                 0.0000                 0.0000
 Atom AN      X      Y      Z        X      Y      Z        X      Y      Z
   1   7    -0.10   0.12  -0.17     0.39  -0.00   0.26     0.09   0.11  -0.04
   2   6    -0.19   0.22   0.35     0.18   0.15  -0.17     0.26  -0.13   0.13
   3   6     0.03  -0.11   0.10     0.01   0.07  -0.09     0.15  -0.12   0.18
   4   6     0.00  -0.06  -0.11     0.04  -0.04   0.12    -0.12   0.16  -0.15
   5   6    -0.17  -0.08  -0.27    -0.27   0.01  -0.13    -0.12  -0.03  -0.14
   6   6     0.12   0.06   0.10    -0.15   0.06   0.14    -0.14  -0.06   0.32
   7   6     0.29  -0.09   0.13     0.03  -0.08   0.05    -0.21   0.12  -0.25
   8   6     0.04  -0.11  -0.09    -0.28  -0.08  -0.24     0.11  -0.12   0.01
   9   1    -0.19   0.06  -0.14     0.21  -0.01   0.13     0.01   0.03  -0.02
  10   1     0.04   0.04   0.06     0.16   0.02   0.07    -0.04   0.01  -0.04
  11   1     0.10  -0.02  -0.18     0.00  -0.07   0.14     0.06   0.10  -0.01
  12   1    -0.09   0.04   0.25     0.05   0.04  -0.09     0.12  -0.02  -0.00
  13   1    -0.07   0.22   0.08     0.05  -0.01  -0.05     0.11  -0.07   0.06
  14   1     0.06  -0.06   0.06    -0.03   0.01  -0.05     0.06  -0.04   0.06
  15   1     0.05   0.01  -0.06     0.07  -0.08  -0.00    -0.03   0.19  -0.03
  16   1    -0.01  -0.02  -0.02     0.02  -0.01   0.13    -0.11   0.01  -0.15
  17   1    -0.10   0.05  -0.17    -0.10   0.04  -0.14    -0.05   0.02  -0.10
  18   1    -0.10  -0.14  -0.08    -0.15  -0.08  -0.02    -0.02  -0.10  -0.07
  19   1    -0.00   0.10   0.07    -0.09   0.07   0.08    -0.21  -0.04   0.20
  20   1     0.07   0.00   0.06     0.01   0.00   0.08     0.11  -0.04   0.22
  21   1     0.11  -0.01   0.11     0.04  -0.01   0.09    -0.10   0.02  -0.23
  22   1     0.13  -0.08   0.01     0.08  -0.08  -0.03    -0.10   0.20  -0.04
  23   1    -0.05  -0.08  -0.01    -0.18  -0.14  -0.05     0.11  -0.06  -0.05
  24   1     0.01  -0.01  -0.11    -0.12   0.04  -0.19     0.01  -0.02   0.04
                      7                      8                      9
                        a                      a                      a 
 Frequencies --   375.8755               394.6264               457.3401
 Red. masses --     7.4044                 7.2898                 8.7302
 Frc consts  --     0.0000                 0.0000                 0.0000
 IR Inten    --     2.9534                 0.9656                 2.4869
 Raman Activ --     0.0000                 0.0000                 0.0000
 Depolar     --     0.0000                 0.0000                 0.0000
 Atom AN      X      Y      Z        X      Y      Z        X      Y      Z
   1   7    -0.19  -0.13  -0.12    -0.07  -0.06  -0.07    -0.12  -0.10  -0.08
   2   6    -0.06  -0.18  -0.04     0.11  -0.22   0.17     0.04  -0.18   0.08
   3   6    -0.04   0.09   0.07     0.13  -0.03   0.18     0.02   0.27   0.23
   4   6     0.39  -0.22   0.10     0.10   0.14  -0.14     0.01   0.29   0.28
   5   6     0.03   0.01  -0.23     0.23   0.29  -0.02    -0.14  -0.24   0.10
   6   6     0.13   0.08   0.13    -0.09   0.13  -0.10     0.08  -0.14  -0.07
   7   6    -0.12   0.31   0.06    -0.05  -0.00   0.17     0.15  -0.13  -0.17
   8   6    -0.11   0.10   0.08    -0.33  -0.23  -0.09     0.00   0.29  -0.25
   9   1    -0.07  -0.04  -0.04    -0.06  -0.03  -0.04    -0.07  -0.04  -0.04
  10   1    -0.09  -0.04  -0.06    -0.09  -0.03  -0.06    -0.10  -0.04  -0.07
  11   1    -0.03   0.02  -0.04     0.03   0.08  -0.04     0.01   0.06  -0.03
  12   1    -0.01  -0.04  -0.09     0.05  -0.05  -0.01     0.01  -0.04  -0.14
  13   1     0.01  -0.12   0.00     0.08  -0.11   0.07     0.08  -0.18   0.07
  14   1    -0.01   0.08   0.02     0.08   0.05   0.08     0.02   0.01   0.07
  15   1     0.22  -0.27  -0.04     0.02   0.11  -0.03    -0.02   0.13   0.09
  16   1     0.20  -0.02   0.25    -0.03   0.01  -0.08     0.04   0.11  -0.01
  17   1    -0.04   0.07  -0.17     0.11   0.02   0.10    -0.04  -0.04  -0.12
  18   1    -0.08  -0.11  -0.05     0.13   0.19  -0.01    -0.14  -0.16   0.05
  19   1    -0.03   0.05   0.09     0.03   0.05  -0.06     0.05  -0.06  -0.04
  20   1     0.09  -0.05   0.08    -0.07  -0.02  -0.07     0.00   0.04  -0.03
  21   1    -0.10   0.06  -0.08     0.04   0.03   0.10     0.01  -0.06   0.08
  22   1    -0.05   0.21   0.04     0.02  -0.08   0.02     0.12  -0.11  -0.09
  23   1    -0.04  -0.01   0.02    -0.22  -0.29  -0.02    -0.01  -0.01  -0.09
  24   1    -0.02   0.03  -0.02    -0.17   0.05  -0.25    -0.06   0.14  -0.11
                     10                     11                     12
                        a                      a                      a 
 Frequencies --   481.9522               622.0478               772.8835
 Red. masses --     8.0689                 6.5995                 6.8965
 Frc consts  --     0.0000                 0.0000                 0.0000
 IR Inten    --     1.5011                 6.1113                24.9993
 Raman Activ --     0.0000                 0.0000                 0.0000
 Depolar     --     0.0000                 0.0000                 0.0000
 Atom AN      X      Y      Z        X      Y      Z        X      Y      Z
   1   7    -0.17  -0.08  -0.05    -0.11  -0.05  -0.03    -0.12   0.05  -0.05
   2   6    -0.10  -0.03  -0.02    -0.05   0.03  -0.17    -0.22   0.24  -0.12
   3   6     0.24   0.08  -0.19     0.33   0.01  -0.25    -0.23   0.01   0.27
   4   6     0.23   0.15   0.12     0.12   0.29   0.21     0.08   0.16   0.12
   5   6     0.01   0.27  -0.00    -0.06  -0.05   0.12     0.09   0.11  -0.08
   6   6    -0.40  -0.00   0.15     0.04  -0.02   0.03     0.08   0.02  -0.05
   7   6    -0.00  -0.32  -0.12    -0.05   0.03   0.13     0.11  -0.12  -0.12
   8   6     0.16  -0.03  -0.04     0.04  -0.29   0.12     0.05  -0.36   0.11
   9   1    -0.08  -0.02  -0.03    -0.02   0.02  -0.00     0.02  -0.15   0.02
  10   1    -0.06  -0.03  -0.01    -0.04  -0.02   0.02     0.29   0.11  -0.00
  11   1    -0.01  -0.00  -0.03    -0.04  -0.03  -0.01    -0.15  -0.22   0.02
  12   1    -0.05  -0.02   0.05    -0.05  -0.02   0.11     0.05   0.13  -0.33
  13   1    -0.09   0.04  -0.04    -0.16   0.13  -0.13     0.07  -0.22   0.05
  14   1     0.09   0.01  -0.04     0.04   0.01  -0.10    -0.05   0.01   0.08
  15   1     0.11  -0.09  -0.00    -0.04   0.17   0.10     0.05   0.10   0.03
  16   1     0.07   0.04   0.18    -0.03   0.05  -0.06     0.02   0.05  -0.00
  17   1     0.10  -0.01   0.01    -0.03   0.05  -0.21     0.04   0.03  -0.06
  18   1     0.00   0.15   0.02    -0.18  -0.19   0.06    -0.00   0.02  -0.01
  19   1    -0.27   0.00   0.14     0.17  -0.01  -0.10    -0.04   0.01   0.03
  20   1     0.03  -0.02   0.17    -0.13   0.03  -0.12     0.08  -0.00   0.04
  21   1     0.10  -0.04   0.07    -0.05   0.00  -0.20     0.06  -0.02  -0.14
  22   1     0.02  -0.22  -0.06    -0.13   0.20   0.11    -0.02   0.02  -0.00
  23   1     0.11   0.09  -0.02    -0.09  -0.17   0.06     0.04  -0.09   0.02
  24   1     0.01  -0.01   0.14    -0.05  -0.00  -0.08     0.05  -0.13   0.04
                     13                     14                     15
                        a                      a                      a 
 Frequencies --   812.6693               829.9215               851.6447
 Red. masses --     4.6081                 4.0356                 6.8281
 Frc consts  --     0.0000                 0.0000                 0.0000
 IR Inten    --     0.3368                26.0807                 3.8465
 Raman Activ --     0.0000                 0.0000                 0.0000
 Depolar     --     0.0000                 0.0000                 0.0000
 Atom AN      X      Y      Z        X      Y      Z        X      Y      Z
   1   7    -0.01   0.02   0.01    -0.01   0.09   0.13    -0.12   0.01  -0.02
   2   6     0.00  -0.01   0.02    -0.04   0.02   0.21    -0.04   0.09  -0.09
   3   6    -0.01  -0.20  -0.05     0.17   0.06  -0.24     0.17  -0.02   0.04
   4   6     0.21  -0.10   0.10    -0.04  -0.06  -0.17     0.16  -0.22  -0.00
   5   6     0.22   0.07   0.08    -0.09  -0.02   0.10    -0.05  -0.31   0.05
   6   6     0.03   0.14   0.03    -0.09  -0.00   0.17    -0.30   0.05  -0.13
   7   6    -0.21   0.13  -0.05    -0.02  -0.03   0.09     0.01   0.30   0.11
   8   6    -0.25  -0.04  -0.13     0.00   0.03  -0.11     0.21   0.15   0.06
   9   1    -0.02  -0.03  -0.01    -0.27  -0.34  -0.11    -0.03  -0.11  -0.00
  10   1     0.04   0.02  -0.01     0.30   0.15  -0.14     0.16   0.06  -0.01
  11   1     0.01  -0.00  -0.01     0.16   0.03  -0.11    -0.07  -0.12  -0.01
  12   1     0.03   0.01  -0.00     0.19   0.10  -0.19     0.06   0.05  -0.06
  13   1    -0.01  -0.04  -0.00    -0.04  -0.33   0.05    -0.05  -0.06  -0.04
  14   1     0.00  -0.03  -0.01     0.12   0.02  -0.02     0.03   0.00  -0.00
  15   1    -0.10   0.23   0.13     0.01  -0.12  -0.06    -0.06   0.17   0.07
  16   1    -0.06  -0.08  -0.25    -0.00  -0.02   0.06     0.02  -0.07  -0.28
  17   1    -0.04   0.16  -0.25    -0.04   0.00   0.03     0.06  -0.16   0.09
  18   1    -0.16  -0.23   0.07     0.02  -0.05  -0.00    -0.04   0.07   0.07
  19   1     0.02  -0.04  -0.01     0.18   0.00  -0.08    -0.24   0.01   0.07
  20   1    -0.01  -0.01  -0.01    -0.20   0.05  -0.11     0.04  -0.01   0.08
  21   1     0.06   0.08   0.27    -0.03  -0.02  -0.06     0.09   0.13   0.13
  22   1     0.12  -0.22  -0.12     0.02   0.11   0.02    -0.06  -0.09   0.04
  23   1     0.15   0.24  -0.08     0.02   0.10  -0.02    -0.08  -0.15   0.04
  24   1     0.03  -0.16   0.25    -0.01  -0.01   0.07     0.05   0.10  -0.24
                     16                     17                     18
                        a                      a                      a 
 Frequencies --   887.2222               904.8225               929.5801
 Red. masses --     5.5120                 7.7538                 6.9758
 Frc consts  --     0.0000                 0.0000                 0.0000
 IR Inten    --     8.7377                 8.7917                25.5977
 Raman Activ --     0.0000                 0.0000                 0.0000
 Depolar     --     0.0000                 0.0000                 0.0000
 Atom AN      X      Y      Z        X      Y      Z        X      Y      Z
   1   7     0.04   0.04   0.14    -0.05   0.06  -0.03    -0.25  -0.03  -0.15
   2   6     0.03  -0.06   0.05     0.01  -0.05  -0.01     0.10   0.08  -0.06
   3   6     0.05   0.00  -0.18    -0.03  -0.30  -0.01     0.35  -0.02   0.13
   4   6    -0.13  -0.06   0.18    -0.15   0.19   0.24    -0.06  -0.22  -0.11
   5   6     0.02   0.15  -0.06     0.14   0.18  -0.23    -0.10   0.18   0.08
   6   6     0.32  -0.01  -0.30    -0.02  -0.27  -0.01     0.21   0.02   0.07
   7   6    -0.02  -0.12  -0.07    -0.12   0.12   0.26    -0.13  -0.20  -0.08
   8   6    -0.09   0.07   0.19     0.16   0.22  -0.21    -0.04   0.22   0.05
   9   1    -0.20  -0.18  -0.08     0.03  -0.05   0.02     0.13   0.01   0.07
  10   1     0.08   0.05  -0.09     0.16   0.06   0.02     0.15   0.04   0.08
  11   1     0.18   0.12  -0.08    -0.09  -0.12   0.01    -0.28  -0.30   0.06
  12   1     0.08   0.01   0.05     0.10   0.02   0.05     0.08   0.04   0.03
  13   1    -0.13  -0.07  -0.06    -0.01  -0.01  -0.01     0.04   0.05  -0.01
  14   1    -0.07   0.01  -0.10    -0.03  -0.29  -0.03     0.13   0.03   0.06
  15   1    -0.14   0.03   0.11     0.03   0.01   0.02     0.03   0.01  -0.04
  16   1    -0.09  -0.04  -0.03    -0.11   0.01   0.18    -0.13  -0.12  -0.00
  17   1    -0.04   0.08  -0.03     0.11  -0.01  -0.11    -0.16   0.16   0.06
  18   1    -0.11   0.08   0.05     0.04   0.04  -0.06     0.00  -0.03  -0.01
  19   1    -0.23   0.01   0.13     0.03  -0.02  -0.01     0.09  -0.03  -0.01
  20   1     0.37  -0.07   0.17    -0.05  -0.26  -0.05     0.03   0.06  -0.01
  21   1    -0.07  -0.07  -0.03    -0.13  -0.03   0.13    -0.14  -0.11   0.03
  22   1    -0.13  -0.06   0.04     0.01   0.04   0.05    -0.01  -0.04  -0.03
  23   1    -0.15  -0.04   0.10     0.01   0.03  -0.04     0.01  -0.07  -0.03
  24   1    -0.08   0.08  -0.04     0.11   0.02  -0.15    -0.17   0.19   0.05
                     19                     20                     21
                        a                      a                      a 
 Frequencies --   945.5807               970.6309               989.4201
 Red. masses --     4.2524                 7.3104                 8.6409
 Frc consts  --     0.0000                 0.0000                 0.0000
 IR Inten    --     7.7632                20.8761                 6.5629
 Raman Activ --     0.0000                 0.0000                 0.0000
 Depolar     --     0.0000                 0.0000                 0.0000
 Atom AN      X      Y      Z        X      Y      Z        X      Y      Z
   1   7    -0.05  -0.11   0.00     0.25   0.12  -0.05     0.18   0.38  -0.11
   2   6     0.05   0.13  -0.00    -0.33  -0.10   0.05    -0.30  -0.53  -0.01
   3   6     0.06  -0.02   0.01    -0.09   0.04   0.01     0.01  -0.08   0.01
   4   6     0.18  -0.13   0.16     0.07  -0.26  -0.05     0.13   0.12   0.01
   5   6    -0.17  -0.01  -0.15     0.17   0.27   0.07    -0.10  -0.12   0.01
   6   6     0.02   0.01  -0.00    -0.16  -0.03   0.06     0.03   0.08  -0.01
   7   6     0.12  -0.16   0.16     0.05  -0.23   0.05     0.06  -0.04  -0.05
   8   6    -0.17   0.06  -0.18     0.22   0.18  -0.03    -0.16   0.06   0.03
   9   1    -0.02   0.03  -0.00     0.11   0.13   0.01     0.16   0.04   0.04
  10   1    -0.12  -0.06  -0.00    -0.08  -0.02   0.01     0.29   0.15   0.05
  11   1     0.01   0.04   0.00     0.05   0.10   0.02    -0.08  -0.11   0.01
  12   1    -0.05   0.02  -0.08    -0.14  -0.03  -0.16     0.04  -0.11   0.20
  13   1     0.06  -0.01   0.02     0.06  -0.09   0.09    -0.16   0.00  -0.05
  14   1     0.02  -0.07   0.00     0.07  -0.03   0.06     0.01   0.03   0.01
  15   1    -0.00   0.26   0.09    -0.13   0.04   0.07     0.04   0.03  -0.00
  16   1    -0.07  -0.09  -0.21    -0.05  -0.10  -0.16     0.09   0.06  -0.02
  17   1     0.07  -0.15   0.15    -0.03   0.18  -0.20     0.05  -0.11   0.08
  18   1    -0.04   0.32   0.04    -0.15  -0.11   0.07    -0.01   0.10   0.03
  19   1     0.03   0.31   0.04     0.00  -0.03  -0.02     0.00   0.11   0.02
  20   1    -0.00  -0.10  -0.01    -0.09  -0.04  -0.02     0.03   0.08   0.02
  21   1    -0.15  -0.13  -0.19    -0.04  -0.08  -0.17    -0.04  -0.04  -0.03
  22   1     0.07   0.31   0.05    -0.14   0.07   0.10     0.07   0.07  -0.03
  23   1     0.03   0.24  -0.03    -0.11  -0.05   0.05     0.01   0.04  -0.01
  24   1     0.00  -0.07   0.16     0.02   0.11  -0.18    -0.07   0.01   0.10
                     22                     23                     24
                        a                      a                      a 
 Frequencies --  1015.7669              1025.4283              1068.9906
 Red. masses --     7.3650                 5.5008                 5.9345
 Frc consts  --     0.0000                 0.0000                 0.0000
 IR Inten    --     7.6182                19.9807                 2.5942
 Raman Activ --     0.0000                 0.0000                 0.0000
 Depolar     --     0.0000                 0.0000                 0.0000
 Atom AN      X      Y      Z        X      Y      Z        X      Y      Z
   1   7    -0.20  -0.05   0.05    -0.09  -0.03  -0.18    -0.03   0.03  -0.05
   2   6     0.38  -0.03   0.02     0.11   0.01   0.36     0.00  -0.05   0.04
   3   6    -0.32  -0.10   0.02    -0.01  -0.00  -0.32     0.17   0.25   0.02
   4   6     0.09  -0.03  -0.03    -0.03   0.13  -0.07    -0.31  -0.18   0.13
   5   6     0.18   0.04  -0.01     0.01  -0.09   0.13     0.19   0.02  -0.15
   6   6    -0.23   0.09   0.09     0.01   0.04  -0.19    -0.15  -0.14  -0.02
   7   6     0.22  -0.19  -0.13     0.04   0.03   0.12     0.21   0.16  -0.08
   8   6    -0.06   0.20   0.08    -0.09  -0.05  -0.07    -0.10  -0.09   0.10
   9   1    -0.08  -0.14  -0.00     0.20   0.12   0.08     0.04   0.02   0.02
  10   1     0.12   0.04  -0.00     0.01  -0.02   0.10     0.04   0.02   0.02
  11   1    -0.05  -0.10  -0.02    -0.21  -0.17   0.07    -0.05  -0.06   0.01
  12   1     0.19   0.00   0.27     0.07   0.02  -0.04    -0.01  -0.02   0.02
  13   1    -0.03   0.12  -0.07     0.27  -0.08   0.23    -0.01   0.01   0.01
  14   1    -0.22   0.03  -0.07     0.18  -0.02   0.03     0.04   0.22   0.02
  15   1    -0.06  -0.00   0.03    -0.15  -0.17   0.03    -0.26  -0.14   0.12
  16   1     0.09   0.03  -0.09     0.11   0.09   0.04    -0.14  -0.08   0.07
  17   1     0.09   0.01  -0.16     0.03  -0.02  -0.08     0.15  -0.06  -0.16
  18   1    -0.04  -0.08   0.01    -0.12  -0.02   0.09    -0.08   0.02   0.03
  19   1     0.03   0.03  -0.03    -0.16   0.00   0.06     0.01   0.10  -0.01
  20   1    -0.12   0.13  -0.03     0.14   0.01   0.08    -0.08  -0.27  -0.05
  21   1     0.05  -0.05  -0.21     0.03   0.02  -0.08     0.20   0.12  -0.06
  22   1    -0.02   0.11   0.02    -0.13   0.02   0.10     0.22   0.12  -0.09
  23   1    -0.13   0.04   0.07    -0.14   0.19   0.09     0.11  -0.06  -0.05
  24   1    -0.01   0.06  -0.06     0.08  -0.11   0.01    -0.16   0.07   0.17
                     25                     26                     27
                        a                      a                      a 
 Frequencies --  1078.8226              1094.9138              1147.7754
 Red. masses --     5.1551                 6.6012                 3.6430
 Frc consts  --     0.0000                 0.0000                 0.0000
 IR Inten    --     0.2213                 0.2507                 0.2490
 Raman Activ --     0.0000                 0.0000                 0.0000
 Depolar     --     0.0000                 0.0000                 0.0000
 Atom AN      X      Y      Z        X      Y      Z        X      Y      Z
   1   7    -0.06   0.03   0.02    -0.01   0.02  -0.01    -0.04   0.06   0.01
   2   6     0.15  -0.09  -0.00     0.01  -0.04   0.01     0.06  -0.13  -0.05
   3   6    -0.19   0.20   0.03    -0.00  -0.05  -0.01     0.04   0.25   0.12
   4   6     0.10  -0.03  -0.16     0.16   0.00  -0.06    -0.06  -0.08   0.09
   5   6    -0.16   0.17   0.15    -0.24   0.23   0.11     0.05  -0.03  -0.04
   6   6     0.07  -0.17  -0.03    -0.05  -0.42  -0.04    -0.02   0.06  -0.06
   7   6    -0.12   0.01   0.12     0.30   0.20  -0.08     0.00  -0.06   0.17
   8   6     0.21  -0.16  -0.14    -0.17   0.04   0.08    -0.00  -0.06  -0.25
   9   1    -0.02  -0.05  -0.00     0.01  -0.00   0.00    -0.02  -0.04   0.00
  10   1     0.07   0.04   0.00     0.01   0.01   0.01     0.08   0.04  -0.00
  11   1    -0.02  -0.04  -0.01    -0.01  -0.00  -0.00    -0.02  -0.04  -0.01
  12   1     0.04  -0.03   0.14    -0.01  -0.01   0.02    -0.03  -0.06   0.06
  13   1    -0.03   0.08  -0.04    -0.02   0.01  -0.01    -0.03   0.07  -0.05
  14   1    -0.06   0.25   0.01     0.02   0.22   0.02    -0.04  -0.19  -0.01
  15   1    -0.15  -0.09   0.04     0.20   0.16  -0.08     0.06   0.07  -0.01
  16   1     0.23   0.11  -0.15    -0.20  -0.13   0.04     0.13   0.06  -0.08
  17   1    -0.14   0.13   0.05    -0.10   0.08   0.06    -0.31   0.23   0.21
  18   1    -0.23   0.13   0.15    -0.03   0.03   0.00     0.18  -0.13  -0.12
  19   1     0.00   0.11   0.03    -0.03  -0.35  -0.05    -0.06  -0.10   0.00
  20   1     0.01  -0.27  -0.01    -0.01  -0.07  -0.01     0.00  -0.25  -0.01
  21   1    -0.16  -0.08   0.12     0.12   0.07  -0.04     0.33   0.18  -0.22
  22   1     0.11   0.04  -0.03     0.04   0.03  -0.01    -0.24  -0.04   0.16
  23   1     0.20  -0.13  -0.14    -0.16   0.18   0.13    -0.02   0.16  -0.01
  24   1     0.14  -0.10  -0.10     0.17  -0.15  -0.07    -0.07   0.00   0.13
                     28                     29                     30
                        a                      a                      a 
 Frequencies --  1154.7166              1158.6583              1215.4865
 Red. masses --     7.4586                 4.4702                 3.1150
 Frc consts  --     0.0000                 0.0000                 0.0000
 IR Inten    --     1.2215                 0.7805                23.9211
 Raman Activ --     0.0000                 0.0000                 0.0000
 Depolar     --     0.0000                 0.0000                 0.0000
 Atom AN      X      Y      Z        X      Y      Z        X      Y      Z
   1   7    -0.00   0.00  -0.08     0.05  -0.07   0.02     0.14  -0.13  -0.20
   2   6     0.00  -0.03   0.26    -0.08   0.14  -0.05    -0.07   0.13   0.22
   3   6    -0.14   0.08  -0.35    -0.00  -0.30   0.02     0.01   0.02   0.03
   4   6     0.12  -0.06   0.23     0.08   0.13  -0.19    -0.05  -0.01   0.05
   5   6    -0.13   0.05  -0.26    -0.07   0.06   0.16     0.07  -0.01  -0.00
   6   6     0.11  -0.05   0.25    -0.03  -0.13  -0.06    -0.08   0.04  -0.07
   7   6    -0.12   0.04  -0.23     0.12   0.08  -0.07     0.05  -0.04   0.04
   8   6     0.12  -0.03   0.19    -0.08   0.11   0.16    -0.02   0.00  -0.03
   9   1     0.08   0.05   0.03    -0.01   0.04  -0.01     0.15   0.17   0.01
  10   1     0.00  -0.01   0.04    -0.08  -0.04  -0.02    -0.18  -0.12   0.07
  11   1    -0.06  -0.04   0.02     0.04   0.04   0.00    -0.07   0.01   0.06
  12   1     0.04   0.01  -0.00     0.06   0.07  -0.05     0.42   0.20   0.06
  13   1     0.12  -0.08   0.14    -0.00  -0.07   0.00    -0.50  -0.32  -0.19
  14   1    -0.12  -0.05  -0.14     0.01  -0.38  -0.01    -0.13   0.13  -0.06
  15   1    -0.05   0.13   0.11     0.00  -0.09  -0.05     0.05   0.04  -0.01
  16   1     0.07   0.02  -0.17     0.28   0.17  -0.07     0.03   0.02  -0.00
  17   1    -0.10   0.02   0.18    -0.10   0.10   0.03    -0.09   0.08   0.08
  18   1     0.12   0.14  -0.11    -0.17   0.05   0.12     0.10  -0.11  -0.06
  19   1     0.19  -0.02  -0.05    -0.02   0.03   0.01    -0.06   0.01   0.00
  20   1    -0.13  -0.09  -0.08    -0.01  -0.26  -0.02     0.01  -0.02   0.01
  21   1     0.11   0.08   0.06     0.14   0.09  -0.04    -0.06  -0.05   0.01
  22   1     0.03  -0.15  -0.10     0.16   0.09  -0.08     0.03   0.07   0.01
  23   1    -0.08  -0.11   0.07     0.01  -0.10  -0.00     0.06  -0.01  -0.04
  24   1    -0.06   0.09  -0.07    -0.30   0.24   0.18     0.05  -0.04  -0.03
                     31                     32                     33
                        a                      a                      a 
 Frequencies --  1236.0675              1240.1156              1247.7615
 Red. masses --     3.5840                 3.2911                 3.5008
 Frc consts  --     0.0000                 0.0000                 0.0000
 IR Inten    --     0.9764                 0.3626                 3.5211
 Raman Activ --     0.0000                 0.0000                 0.0000
 Depolar     --     0.0000                 0.0000                 0.0000
 Atom AN      X      Y      Z        X      Y      Z        X      Y      Z
   1   7    -0.04   0.04   0.02     0.00   0.00  -0.01     0.01  -0.01  -0.02
   2   6     0.00  -0.05   0.07     0.01  -0.01   0.01     0.02  -0.01   0.11
   3   6    -0.06   0.04  -0.22     0.04   0.13   0.03    -0.25   0.04  -0.13
   4   6     0.03   0.00   0.08    -0.00  -0.11   0.04     0.11  -0.00  -0.09
   5   6     0.10  -0.04   0.10    -0.08   0.17  -0.19    -0.08   0.01   0.12
   6   6    -0.21   0.04  -0.24    -0.02  -0.15  -0.01     0.12  -0.02  -0.03
   7   6     0.11   0.01   0.10     0.12   0.10   0.19    -0.06  -0.01   0.19
   8   6     0.02  -0.04   0.10    -0.04  -0.10  -0.06     0.11   0.00  -0.14
   9   1    -0.01  -0.02   0.01     0.00   0.01   0.00     0.03   0.02   0.01
  10   1     0.05   0.03  -0.00     0.00   0.00  -0.01    -0.01  -0.01   0.01
  11   1    -0.00  -0.02  -0.01    -0.01  -0.02   0.00    -0.02  -0.02   0.01
  12   1    -0.12  -0.06  -0.03     0.01   0.00   0.01     0.07   0.02   0.04
  13   1     0.22   0.06   0.14    -0.03  -0.01  -0.01     0.01  -0.03   0.03
  14   1    -0.12  -0.02  -0.12    -0.04  -0.21  -0.03    -0.14   0.08  -0.08
  15   1     0.18   0.13  -0.06    -0.21  -0.07   0.11     0.23   0.15  -0.12
  16   1    -0.08  -0.05   0.02     0.20   0.09  -0.15    -0.29  -0.18   0.09
  17   1    -0.20   0.18   0.09     0.07  -0.04  -0.04     0.19  -0.15  -0.12
  18   1     0.23  -0.26  -0.14     0.01   0.10  -0.05    -0.12   0.06   0.09
  19   1    -0.18   0.01   0.02    -0.05  -0.50  -0.06    -0.01  -0.06   0.01
  20   1     0.05   0.01   0.03     0.05   0.48   0.06     0.07   0.03   0.03
  21   1    -0.25  -0.16   0.08    -0.11  -0.05   0.05     0.22   0.14  -0.10
  22   1     0.31   0.24  -0.09     0.02   0.08   0.06    -0.16  -0.04   0.11
  23   1     0.15  -0.17  -0.09     0.14  -0.05  -0.09     0.25  -0.18  -0.20
  24   1    -0.08   0.06   0.04    -0.12   0.04   0.14    -0.27   0.22   0.17
                     34                     35                     36
                        a                      a                      a 
 Frequencies --  1279.9208              1311.1947              1329.6279
 Red. masses --     4.0793                 4.0224                 3.7292
 Frc consts  --     0.0000                 0.0000                 0.0000
 IR Inten    --     3.3801                 7.0454                 0.0993
 Raman Activ --     0.0000                 0.0000                 0.0000
 Depolar     --     0.0000                 0.0000                 0.0000
 Atom AN      X      Y      Z        X      Y      Z        X      Y      Z
   1   7    -0.01   0.08  -0.08     0.03   0.13  -0.06     0.01   0.03  -0.00
   2   6     0.16  -0.04   0.18     0.22   0.06   0.20     0.05   0.01   0.03
   3   6     0.08   0.32   0.07     0.03  -0.29   0.02    -0.02  -0.13  -0.00
   4   6    -0.08  -0.10  -0.15     0.13   0.15  -0.02    -0.13  -0.09   0.09
   5   6     0.06   0.02   0.10    -0.01  -0.05  -0.06    -0.15   0.10   0.09
   6   6     0.01  -0.03   0.01    -0.01  -0.00   0.01     0.02   0.23   0.02
   7   6    -0.05   0.05  -0.08     0.04  -0.03   0.03     0.16   0.10  -0.07
   8   6     0.05  -0.15   0.03    -0.06   0.12  -0.01     0.15  -0.12  -0.13
   9   1     0.03  -0.02   0.01     0.00  -0.08  -0.01    -0.01  -0.02  -0.01
  10   1     0.01   0.01   0.04    -0.03   0.01   0.05    -0.00   0.00   0.00
  11   1    -0.08  -0.07   0.02    -0.08  -0.10   0.02    -0.02  -0.03   0.00
  12   1    -0.23  -0.10  -0.11    -0.52  -0.17  -0.31    -0.11  -0.04  -0.06
  13   1    -0.21  -0.07  -0.09    -0.26  -0.09  -0.12    -0.05  -0.01  -0.03
  14   1    -0.28  -0.44  -0.19    -0.15   0.19  -0.08     0.02   0.24   0.03
  15   1     0.22   0.06  -0.16    -0.21  -0.16   0.10     0.14   0.07  -0.06
  16   1    -0.05  -0.05   0.01    -0.04  -0.01   0.03     0.21   0.11  -0.12
  17   1     0.10  -0.05  -0.10    -0.10   0.05   0.10     0.22  -0.17  -0.13
  18   1    -0.19   0.05   0.14     0.04   0.00  -0.03     0.12  -0.10  -0.08
  19   1     0.02   0.08   0.01     0.00  -0.01  -0.00    -0.02  -0.20  -0.03
  20   1     0.00   0.01   0.00    -0.01   0.00  -0.00    -0.04  -0.34  -0.04
  21   1    -0.08  -0.03   0.09     0.05   0.02  -0.04    -0.27  -0.16   0.11
  22   1     0.10   0.01  -0.08    -0.10  -0.02   0.06    -0.12  -0.08   0.05
  23   1    -0.17   0.11   0.14     0.13  -0.07  -0.10    -0.17   0.11   0.11
  24   1     0.04  -0.06  -0.02    -0.01   0.03  -0.00    -0.22   0.15   0.17
                     37                     38                     39
                        a                      a                      a 
 Frequencies --  1338.2978              1347.6128              1348.4099
 Red. masses --     3.9540                 4.1326                 4.3077
 Frc consts  --     0.0000                 0.0000                 0.0000
 IR Inten    --     3.5908                 5.3935                 2.8801
 Raman Activ --     0.0000                 0.0000                 0.0000
 Depolar     --     0.0000                 0.0000                 0.0000
 Atom AN      X      Y      Z        X      Y      Z        X      Y      Z
   1   7    -0.01  -0.02   0.01    -0.01   0.02  -0.02     0.00   0.03  -0.01
   2   6    -0.18   0.00   0.01     0.11  -0.01   0.02     0.04   0.03   0.03
   3   6     0.32  -0.04   0.05    -0.09   0.13  -0.10     0.05  -0.15  -0.08
   4   6    -0.11  -0.04  -0.03     0.02  -0.10   0.03    -0.31  -0.11   0.15
   5   6    -0.02   0.04   0.04    -0.24   0.19   0.17     0.10   0.00  -0.05
   6   6     0.00   0.04   0.06     0.06   0.01  -0.05     0.04   0.03  -0.01
   7   6     0.16   0.01  -0.04    -0.01  -0.06  -0.02    -0.24  -0.18   0.12
   8   6    -0.24   0.12   0.05    -0.20   0.12   0.19     0.00   0.11   0.03
   9   1    -0.00   0.01   0.00     0.01  -0.03   0.00    -0.00  -0.03  -0.00
  10   1     0.01  -0.00   0.00    -0.00  -0.00   0.03    -0.01   0.00   0.01
  11   1     0.00   0.03   0.01    -0.01  -0.01  -0.00    -0.01  -0.02   0.00
  12   1     0.05   0.03   0.02    -0.06  -0.03  -0.04    -0.13  -0.04  -0.05
  13   1     0.25   0.01   0.17    -0.14   0.00  -0.09    -0.01  -0.03  -0.00
  14   1    -0.45   0.04  -0.31     0.28  -0.27   0.15     0.07   0.24   0.03
  15   1     0.08  -0.01  -0.06    -0.00   0.02   0.01     0.33   0.15  -0.16
  16   1     0.15   0.09  -0.06     0.08   0.02  -0.10     0.29   0.18  -0.13
  17   1     0.07  -0.04  -0.06     0.24  -0.18  -0.15     0.03   0.01  -0.06
  18   1    -0.03   0.01   0.02     0.27  -0.22  -0.18    -0.13   0.12   0.09
  19   1     0.04   0.01  -0.01     0.01   0.08   0.01    -0.00  -0.16  -0.02
  20   1    -0.02  -0.12  -0.01     0.04  -0.13   0.00     0.05   0.12   0.03
  21   1    -0.04  -0.04  -0.05     0.10   0.04  -0.07     0.26   0.14  -0.10
  22   1    -0.24  -0.14   0.11    -0.01  -0.01  -0.00     0.26   0.18  -0.10
  23   1     0.24  -0.09  -0.17     0.23  -0.17  -0.15     0.02  -0.01  -0.01
  24   1     0.18  -0.15  -0.10     0.19  -0.14  -0.15     0.10  -0.03  -0.11
                     40                     41                     42
                        a                      a                      a 
 Frequencies --  1356.6086              1359.4811              1386.5041
 Red. masses --     4.5627                 4.5246                 2.9900
 Frc consts  --     0.0000                 0.0000                 0.0000
 IR Inten    --     0.9539                 0.4268               212.1269
 Raman Activ --     0.0000                 0.0000                 0.0000
 Depolar     --     0.0000                 0.0000                 0.0000
 Atom AN      X      Y      Z        X      Y      Z        X      Y      Z
   1   7     0.02   0.02   0.00     0.01  -0.01   0.01    -0.29  -0.24  -0.05
   2   6    -0.00  -0.00   0.01    -0.10   0.01  -0.01     0.05   0.00   0.05
   3   6     0.02  -0.07  -0.01     0.14  -0.05   0.16     0.01  -0.04   0.01
   4   6    -0.10  -0.09   0.07     0.15   0.02  -0.09    -0.01   0.00   0.00
   5   6     0.00   0.16   0.08    -0.23   0.13   0.12    -0.00   0.01   0.00
   6   6    -0.04  -0.46  -0.06     0.08   0.01  -0.11     0.00  -0.02  -0.00
   7   6     0.02   0.16  -0.03    -0.27  -0.12   0.10    -0.00   0.00   0.00
   8   6     0.05  -0.06  -0.08     0.14  -0.01  -0.09     0.01   0.02  -0.02
   9   1    -0.02  -0.02  -0.01    -0.01   0.03  -0.01     0.32   0.30   0.18
  10   1    -0.03  -0.00  -0.01    -0.00  -0.00  -0.02     0.49   0.13   0.08
  11   1    -0.01  -0.04   0.00    -0.01  -0.00   0.01     0.27   0.48  -0.11
  12   1    -0.03  -0.01  -0.03     0.04   0.02   0.02    -0.07  -0.02  -0.12
  13   1     0.00   0.01   0.00     0.09  -0.00   0.06    -0.09   0.03  -0.05
  14   1    -0.02   0.13  -0.01    -0.33   0.09  -0.18    -0.03   0.02  -0.01
  15   1     0.09   0.07  -0.03    -0.23  -0.12   0.11     0.00  -0.01  -0.00
  16   1     0.18   0.10  -0.08    -0.02  -0.03  -0.00     0.02   0.01  -0.01
  17   1     0.00   0.05  -0.05     0.16  -0.13  -0.10     0.00  -0.00  -0.00
  18   1     0.14  -0.13  -0.09     0.24  -0.16  -0.17     0.00  -0.01  -0.00
  19   1     0.06   0.56   0.07    -0.04  -0.01   0.01     0.00   0.02   0.00
  20   1     0.04   0.36   0.04     0.07  -0.01   0.01     0.00   0.02   0.00
  21   1     0.03   0.05   0.04     0.20   0.13  -0.06     0.01   0.01   0.00
  22   1    -0.16  -0.12   0.06     0.29   0.16  -0.13    -0.01   0.00   0.01
  23   1    -0.05   0.07   0.03    -0.19   0.14   0.13    -0.02  -0.02   0.00
  24   1    -0.12   0.08   0.08    -0.00   0.03  -0.01    -0.01  -0.00   0.03
                     43                     44                     45
                        a                      a                      a 
 Frequencies --  1435.4877              1438.6152              1473.4119
 Red. masses --     1.6563                 1.6427                 1.8397
 Frc consts  --     0.0000                 0.0000                 0.0000
 IR Inten    --    78.2442                78.9416                13.4840
 Raman Activ --     0.0000                 0.0000                 0.0000
 Depolar     --     0.0000                 0.0000                 0.0000
 Atom AN      X      Y      Z        X      Y      Z        X      Y      Z
   1   7     0.10  -0.04  -0.19     0.11  -0.16   0.09     0.01   0.00   0.01
   2   6    -0.00  -0.00  -0.05     0.04  -0.03   0.04    -0.04  -0.20   0.18
   3   6    -0.00  -0.00   0.00    -0.02  -0.00  -0.02     0.00  -0.02  -0.01
   4   6     0.00   0.00  -0.00    -0.01   0.00   0.01    -0.00  -0.00  -0.00
   5   6     0.00  -0.00   0.00     0.00  -0.00  -0.00    -0.00  -0.02   0.01
   6   6     0.00  -0.00  -0.00    -0.00  -0.00   0.00    -0.00   0.01   0.00
   7   6    -0.00   0.00   0.00     0.00  -0.00  -0.00    -0.00  -0.04  -0.04
   8   6     0.01   0.01  -0.01    -0.01   0.01   0.01    -0.01  -0.01   0.01
   9   1    -0.28  -0.21  -0.18    -0.38   0.57  -0.23    -0.03  -0.06  -0.01
  10   1     0.14  -0.06   0.56     0.24   0.13  -0.43    -0.06  -0.03   0.03
  11   1    -0.29   0.45   0.40    -0.29  -0.02   0.28    -0.02  -0.02   0.01
  12   1    -0.01  -0.01   0.03    -0.04  -0.02  -0.04     0.31   0.15  -0.57
  13   1     0.04   0.00   0.01    -0.04   0.02  -0.02    -0.10   0.65  -0.07
  14   1     0.01  -0.00   0.01     0.01   0.01   0.00    -0.02   0.01  -0.01
  15   1    -0.00   0.00   0.00     0.02   0.00  -0.01    -0.00   0.01   0.00
  16   1    -0.00  -0.00   0.00    -0.00  -0.00  -0.01     0.02   0.01   0.01
  17   1    -0.00   0.00  -0.00    -0.00   0.00   0.00    -0.01   0.02  -0.04
  18   1     0.00   0.00  -0.00    -0.00   0.00   0.00     0.01   0.05   0.01
  19   1    -0.01   0.00   0.00     0.00   0.01  -0.00     0.00  -0.02  -0.01
  20   1     0.00   0.01  -0.00    -0.00   0.00  -0.00     0.00  -0.01   0.00
  21   1     0.00   0.00   0.00     0.00  -0.00  -0.00     0.04   0.02   0.11
  22   1     0.01   0.00  -0.00    -0.01  -0.01   0.00    -0.03   0.11   0.03
  23   1    -0.02  -0.02   0.01     0.01  -0.02  -0.01     0.02   0.03  -0.00
  24   1    -0.01  -0.00   0.04     0.02  -0.01  -0.00    -0.01   0.02  -0.03
                     46                     47                     48
                        a                      a                      a 
 Frequencies --  1498.3669              1504.2023              1512.0532
 Red. masses --     1.8983                 1.9329                 1.8883
 Frc consts  --     0.0000                 0.0000                 0.0000
 IR Inten    --     6.1147                 6.5428                 2.8939
 Raman Activ --     0.0000                 0.0000                 0.0000
 Depolar     --     0.0000                 0.0000                 0.0000
 Atom AN      X      Y      Z        X      Y      Z        X      Y      Z
   1   7     0.00   0.00   0.00    -0.00  -0.01  -0.00     0.00  -0.01  -0.01
   2   6    -0.01  -0.00  -0.01    -0.00   0.00  -0.01    -0.00  -0.00  -0.00
   3   6     0.00   0.03   0.02    -0.01  -0.01   0.01    -0.00  -0.01   0.02
   4   6    -0.00   0.16   0.19     0.02   0.05   0.03    -0.00   0.07   0.08
   5   6    -0.00  -0.02   0.02    -0.00   0.02  -0.02    -0.00  -0.05   0.04
   6   6    -0.05  -0.02  -0.01    -0.20   0.03  -0.02     0.17  -0.02   0.02
   7   6    -0.00  -0.01  -0.02    -0.01   0.01   0.01     0.01   0.05   0.07
   8   6     0.03   0.08  -0.07    -0.02  -0.16   0.10    -0.03  -0.13   0.09
   9   1     0.00  -0.01   0.00    -0.00   0.01  -0.00    -0.00   0.00  -0.00
  10   1    -0.02  -0.01  -0.00     0.03   0.00   0.02     0.02   0.00   0.01
  11   1     0.00  -0.01  -0.01    -0.00   0.03   0.01    -0.00   0.02   0.01
  12   1     0.04   0.02   0.01     0.00  -0.00   0.02     0.02   0.01  -0.01
  13   1     0.00   0.01   0.00     0.01  -0.01   0.00    -0.02   0.01  -0.01
  14   1     0.00  -0.00   0.01     0.00  -0.00   0.01     0.01  -0.00   0.01
  15   1     0.22  -0.53  -0.16     0.03  -0.12  -0.03     0.09  -0.22  -0.06
  16   1    -0.23  -0.11  -0.56    -0.06  -0.03  -0.11    -0.09  -0.05  -0.22
  17   1    -0.03   0.04  -0.07     0.01  -0.03   0.07    -0.04   0.07  -0.15
  18   1     0.05   0.06  -0.01    -0.04  -0.06   0.01     0.10   0.14  -0.01
  19   1     0.09   0.02  -0.05     0.40  -0.01  -0.26    -0.35   0.00   0.23
  20   1     0.08  -0.01   0.07     0.35  -0.08   0.32    -0.30   0.06  -0.27
  21   1     0.02   0.01   0.07    -0.02  -0.01  -0.01    -0.07  -0.03  -0.20
  22   1    -0.03   0.06   0.02     0.01  -0.02  -0.01     0.09  -0.18  -0.06
  23   1    -0.15  -0.21   0.02     0.24   0.38  -0.02     0.21   0.33  -0.02
  24   1     0.08  -0.12   0.22    -0.16   0.22  -0.37    -0.13   0.18  -0.32
                     49                     50                     51
                        a                      a                      a 
 Frequencies --  1515.0888              1522.2846              2856.0370
 Red. masses --     1.9478                 1.9739                 1.7497
 Frc consts  --     0.0000                 0.0000                 0.0000
 IR Inten    --     2.8612                 1.8221                40.7243
 Raman Activ --     0.0000                 0.0000                 0.0000
 Depolar     --     0.0000                 0.0000                 0.0000
 Atom AN      X      Y      Z        X      Y      Z        X      Y      Z
   1   7     0.00   0.00   0.00     0.00   0.00  -0.00    -0.00   0.00  -0.00
   2   6    -0.01  -0.03   0.03     0.00  -0.02   0.03     0.00  -0.00  -0.00
   3   6     0.00  -0.01  -0.00     0.00  -0.00  -0.00    -0.14  -0.01   0.22
   4   6    -0.01   0.03   0.03     0.00  -0.03  -0.03    -0.01  -0.01  -0.00
   5   6     0.05   0.17  -0.14    -0.03  -0.13   0.09     0.00   0.00  -0.00
   6   6     0.02  -0.00  -0.00    -0.10   0.01   0.00     0.00   0.00  -0.00
   7   6    -0.02   0.10   0.14    -0.01   0.13   0.16     0.00   0.00  -0.00
   8   6     0.01   0.04  -0.02     0.02   0.06  -0.03    -0.00   0.01  -0.00
   9   1    -0.01  -0.02  -0.00     0.00  -0.00   0.00     0.01   0.00  -0.00
  10   1    -0.01  -0.01   0.01    -0.01  -0.00  -0.00     0.00  -0.00   0.00
  11   1    -0.00  -0.01   0.00    -0.00  -0.01  -0.00     0.00  -0.00   0.00
  12   1     0.05   0.03  -0.09     0.02   0.01  -0.06    -0.00   0.01  -0.00
  13   1    -0.01   0.12  -0.01    -0.05   0.05  -0.03    -0.02   0.00   0.04
  14   1    -0.00   0.01  -0.00    -0.00   0.00  -0.00     0.51   0.04  -0.82
  15   1     0.04  -0.07  -0.03    -0.04   0.08   0.03     0.02  -0.00   0.03
  16   1    -0.02  -0.00  -0.08     0.03   0.01   0.09    -0.01   0.01  -0.00
  17   1     0.14  -0.22   0.46    -0.10   0.16  -0.32    -0.00  -0.00  -0.00
  18   1    -0.31  -0.42   0.05     0.21   0.31  -0.03     0.00  -0.00   0.01
  19   1    -0.03   0.00   0.02     0.17  -0.01  -0.11     0.00  -0.00   0.00
  20   1    -0.02   0.02  -0.02     0.15  -0.03   0.14    -0.01  -0.00   0.01
  21   1    -0.12  -0.05  -0.37    -0.16  -0.07  -0.46    -0.00   0.00   0.00
  22   1     0.18  -0.33  -0.12     0.21  -0.42  -0.15     0.00  -0.00   0.01
  23   1    -0.05  -0.07   0.01    -0.09  -0.12   0.02     0.01  -0.00   0.02
  24   1     0.03  -0.03   0.07     0.04  -0.06   0.13    -0.02  -0.02  -0.01
                     52                     53                     54
                        a                      a                      a 
 Frequencies --  2911.9314              2914.0037              2914.8291
 Red. masses --     1.9271                 1.9049                 1.9286
 Frc consts  --     0.0000                 0.0000                 0.0000
 IR Inten    --    32.8232                32.5554                32.5355
 Raman Activ --     0.0000                 0.0000                 0.0000
 Depolar     --     0.0000                 0.0000                 0.0000
 Atom AN      X      Y      Z        X      Y      Z        X      Y      Z
   1   7    -0.00   0.00   0.00     0.00  -0.00  -0.00     0.00  -0.00  -0.00
   2   6     0.00  -0.00   0.00    -0.00   0.00   0.00    -0.00  -0.00   0.00
   3   6     0.00   0.00   0.00    -0.01  -0.01  -0.00    -0.00  -0.00   0.00
   4   6    -0.01   0.01  -0.01     0.01  -0.01   0.00     0.02  -0.02   0.03
   5   6     0.02   0.01   0.02     0.08   0.05   0.06    -0.17  -0.10  -0.13
   6   6    -0.00  -0.00   0.04    -0.01   0.00   0.05    -0.03  -0.02   0.15
   7   6    -0.14   0.15  -0.11    -0.08   0.10  -0.05    -0.02   0.02  -0.01
   8   6     0.11   0.08   0.08    -0.15  -0.12  -0.09    -0.04  -0.03  -0.03
   9   1     0.00   0.00  -0.00    -0.00  -0.00   0.00    -0.00  -0.00   0.00
  10   1     0.00  -0.02  -0.00    -0.00   0.02   0.01     0.00   0.00   0.00
  11   1     0.00  -0.00   0.00    -0.00   0.00  -0.00    -0.00   0.00  -0.00
  12   1    -0.00   0.01   0.00     0.01  -0.02  -0.00    -0.00   0.00   0.00
  13   1     0.00  -0.00  -0.00     0.00  -0.00  -0.00     0.01  -0.00  -0.01
  14   1    -0.00   0.00   0.00     0.01   0.00  -0.01     0.00   0.00  -0.01
  15   1     0.02  -0.00   0.03    -0.00  -0.00  -0.01    -0.06   0.01  -0.12
  16   1     0.01  -0.01  -0.00    -0.03   0.05   0.00    -0.04   0.07   0.01
  17   1    -0.04  -0.04  -0.01    -0.21  -0.23  -0.05     0.40   0.45   0.09
  18   1    -0.02   0.01  -0.05    -0.07   0.05  -0.16     0.19  -0.11   0.41
  19   1    -0.07   0.02  -0.10    -0.05   0.01  -0.08    -0.18   0.05  -0.26
  20   1     0.07   0.00  -0.07     0.08   0.00  -0.09     0.26   0.01  -0.28
  21   1     0.28  -0.51  -0.03     0.20  -0.36  -0.01     0.05  -0.09  -0.00
  22   1     0.22  -0.04   0.46     0.08  -0.01   0.18     0.03  -0.00   0.07
  23   1    -0.11   0.07  -0.24     0.09  -0.07   0.21     0.03  -0.02   0.07
  24   1    -0.30  -0.35  -0.07     0.46   0.52   0.12     0.12   0.13   0.03
                     55                     56                     57
                        a                      a                      a 
 Frequencies --  2918.0696              2924.3218              2948.9004
 Red. masses --     1.8919                 1.8981                 1.5080
 Frc consts  --     0.0000                 0.0000                 0.0000
 IR Inten    --    20.5860                24.9055                33.1494
 Raman Activ --     0.0000                 0.0000                 0.0000
 Depolar     --     0.0000                 0.0000                 0.0000
 Atom AN      X      Y      Z        X      Y      Z        X      Y      Z
   1   7     0.00  -0.00   0.00     0.00  -0.00  -0.00     0.00  -0.00  -0.00
   2   6    -0.00   0.00   0.00     0.00  -0.01   0.00    -0.01   0.01   0.01
   3   6     0.00  -0.00   0.00    -0.01   0.01  -0.00    -0.00   0.00   0.00
   4   6     0.04  -0.04   0.04    -0.16   0.20  -0.10     0.01   0.01   0.02
   5   6    -0.08  -0.06  -0.05    -0.04  -0.04  -0.00     0.00   0.00   0.00
   6   6     0.08   0.02  -0.22     0.02  -0.00  -0.01     0.08  -0.01   0.00
   7   6    -0.05   0.08  -0.02    -0.01   0.02  -0.00    -0.01  -0.10  -0.16
   8   6    -0.03  -0.02  -0.01    -0.02  -0.02  -0.01    -0.01  -0.04   0.01
   9   1     0.00  -0.00  -0.00    -0.00   0.00   0.00    -0.00  -0.00  -0.00
  10   1     0.00   0.00   0.00    -0.00   0.00   0.00    -0.00   0.01   0.00
  11   1    -0.00   0.00  -0.00    -0.00   0.00  -0.00     0.00  -0.00   0.00
  12   1     0.00  -0.01  -0.00    -0.01   0.03   0.00     0.02  -0.05  -0.00
  13   1     0.00  -0.00  -0.00     0.00  -0.00  -0.00     0.01  -0.00  -0.02
  14   1    -0.00  -0.00   0.00     0.00   0.00  -0.00     0.00  -0.00  -0.00
  15   1    -0.07   0.01  -0.13     0.19  -0.01   0.39    -0.05   0.01  -0.08
  16   1    -0.07   0.13   0.01     0.39  -0.70  -0.02     0.02  -0.04   0.00
  17   1     0.24   0.26   0.06     0.16   0.17   0.04    -0.01  -0.01  -0.00
  18   1     0.05  -0.04   0.11    -0.03   0.00  -0.05    -0.00   0.00  -0.01
  19   1     0.17  -0.05   0.23    -0.01   0.00  -0.02    -0.12   0.04  -0.21
  20   1    -0.48  -0.01   0.54    -0.06  -0.00   0.08    -0.16  -0.01   0.20
  21   1     0.16  -0.28  -0.01     0.04  -0.07  -0.00    -0.28   0.47  -0.02
  22   1     0.02   0.01   0.04     0.00   0.00   0.01     0.32  -0.10   0.61
  23   1     0.00  -0.01   0.01     0.00  -0.01   0.01    -0.04   0.01  -0.08
  24   1     0.09   0.10   0.02     0.09   0.10   0.02     0.10   0.11   0.03
                     58                     59                     60
                        a                      a                      a 
 Frequencies --  2950.4944              2954.4847              2956.8350
 Red. masses --     1.5176                 1.5743                 1.5700
 Frc consts  --     0.0000                 0.0000                 0.0000
 IR Inten    --    28.7554                37.5626                22.0636
 Raman Activ --     0.0000                 0.0000                 0.0000
 Depolar     --     0.0000                 0.0000                 0.0000
 Atom AN      X      Y      Z        X      Y      Z        X      Y      Z
   1   7    -0.00   0.00   0.00    -0.00   0.00   0.00    -0.00   0.00   0.00
   2   6    -0.00  -0.00   0.00     0.00  -0.00  -0.00     0.01  -0.01  -0.00
   3   6     0.00   0.00  -0.00     0.00   0.00  -0.01     0.00   0.00  -0.00
   4   6    -0.01   0.04   0.01    -0.00  -0.05  -0.06     0.03   0.07   0.14
   5   6     0.01   0.13  -0.13     0.02  -0.04   0.07     0.01   0.00   0.02
   6   6     0.09  -0.01   0.02     0.14  -0.03   0.09    -0.01   0.00  -0.00
   7   6     0.01   0.02   0.04     0.02   0.01   0.04    -0.01   0.01  -0.02
   8   6     0.01   0.00   0.01    -0.01   0.05  -0.07    -0.03   0.09  -0.13
   9   1    -0.00  -0.00  -0.00    -0.00   0.00   0.00    -0.00   0.00  -0.00
  10   1    -0.00  -0.00  -0.00     0.00  -0.01  -0.00     0.00  -0.01  -0.00
  11   1     0.00  -0.00   0.00    -0.00   0.00  -0.00     0.00   0.00   0.00
  12   1    -0.00   0.01   0.00    -0.00   0.01  -0.00    -0.02   0.04   0.00
  13   1     0.01  -0.00  -0.01    -0.01   0.00   0.01    -0.01  -0.00   0.01
  14   1    -0.00   0.00   0.00    -0.01  -0.00   0.02    -0.00   0.00   0.00
  15   1    -0.02   0.01  -0.04     0.13  -0.04   0.24    -0.28   0.07  -0.51
  16   1     0.08  -0.14   0.00    -0.12   0.21  -0.01     0.18  -0.31   0.02
  17   1    -0.33  -0.35  -0.11     0.09   0.09   0.03    -0.02  -0.02  -0.00
  18   1     0.30  -0.12   0.58    -0.14   0.06  -0.28    -0.03   0.01  -0.06
  19   1    -0.18   0.06  -0.31    -0.32   0.10  -0.55     0.01  -0.00   0.02
  20   1    -0.17  -0.01   0.22    -0.17  -0.01   0.24     0.01   0.00  -0.01
  21   1     0.05  -0.08   0.01     0.03  -0.04   0.01     0.02  -0.03  -0.00
  22   1    -0.08   0.02  -0.15    -0.08   0.02  -0.15     0.03  -0.01   0.06
  23   1    -0.02   0.01  -0.05     0.16  -0.06   0.30     0.29  -0.12   0.54
  24   1    -0.01  -0.01  -0.00    -0.12  -0.13  -0.04    -0.19  -0.19  -0.07
                     61                     62                     63
                        a                      a                      a 
 Frequencies --  2960.4163              2964.1636              2997.4186
 Red. masses --     1.6503                 1.9175                 1.5788
 Frc consts  --     0.0000                 0.0000                 0.0000
 IR Inten    --    88.9299                 4.7963                 5.8977
 Raman Activ --     0.0000                 0.0000                 0.0000
 Depolar     --     0.0000                 0.0000                 0.0000
 Atom AN      X      Y      Z        X      Y      Z        X      Y      Z
   1   7    -0.00   0.00   0.00    -0.00   0.00  -0.00     0.00  -0.00   0.00
   2   6    -0.00  -0.01   0.01     0.14  -0.22  -0.12     0.08   0.08  -0.20
   3   6     0.00   0.00  -0.01     0.01  -0.01  -0.01     0.00   0.00  -0.01
   4   6    -0.04  -0.03  -0.13     0.01  -0.01   0.00    -0.01   0.00  -0.01
   5   6    -0.02   0.04  -0.08     0.00   0.00   0.00    -0.00   0.00  -0.01
   6   6    -0.06   0.01  -0.07     0.00  -0.00   0.00    -0.00   0.00  -0.00
   7   6    -0.03  -0.01  -0.07     0.00  -0.01  -0.01    -0.00   0.00  -0.00
   8   6    -0.04   0.06  -0.12    -0.00  -0.01   0.01    -0.00   0.00  -0.01
   9   1    -0.00   0.00   0.00     0.00   0.00  -0.01     0.01  -0.00  -0.02
  10   1     0.00  -0.01  -0.00     0.01  -0.02  -0.00    -0.00   0.01   0.00
  11   1    -0.00   0.00  -0.00     0.00  -0.00   0.00    -0.00   0.00  -0.00
  12   1    -0.02   0.05   0.01    -0.31   0.81   0.07     0.15  -0.37  -0.06
  13   1     0.02  -0.00  -0.03    -0.18  -0.01   0.34    -0.43   0.06   0.77
  14   1    -0.02  -0.00   0.04    -0.01  -0.00   0.02    -0.02  -0.00   0.03
  15   1     0.25  -0.06   0.46    -0.01   0.00  -0.01     0.01  -0.00   0.03
  16   1    -0.11   0.18  -0.02    -0.01   0.03   0.00     0.00  -0.01  -0.00
  17   1    -0.06  -0.06  -0.03    -0.00  -0.00  -0.00    -0.00  -0.00  -0.00
  18   1     0.15  -0.06   0.30     0.00   0.00  -0.00     0.02  -0.01   0.04
  19   1     0.17  -0.05   0.28    -0.01   0.00  -0.01     0.01  -0.00   0.01
  20   1     0.03   0.00  -0.05    -0.01  -0.00   0.01     0.00  -0.00  -0.00
  21   1    -0.04   0.06  -0.01    -0.02   0.03  -0.00     0.00  -0.00  -0.00
  22   1     0.13  -0.03   0.24     0.01  -0.00   0.03     0.01  -0.00   0.02
  23   1     0.24  -0.10   0.45    -0.02   0.01  -0.05     0.01  -0.01   0.02
  24   1    -0.11  -0.11  -0.05     0.03   0.03   0.01    -0.01  -0.01  -0.00
                     64                     65                     66
                        a                      a                      a 
 Frequencies --  3204.2096              3208.7160              3229.7992
 Red. masses --     2.0321                 2.0425                 1.2735
 Frc consts  --     0.0000                 0.0000                 0.0000
 IR Inten    --    92.6414                77.0585                20.3069
 Raman Activ --     0.0000                 0.0000                 0.0000
 Depolar     --     0.0000                 0.0000                 0.0000
 Atom AN      X      Y      Z        X      Y      Z        X      Y      Z
   1   7     0.15  -0.17   0.16     0.10  -0.13  -0.23     0.11   0.09  -0.01
   2   6     0.00  -0.01   0.00     0.01  -0.00  -0.01     0.01   0.01  -0.00
   3   6    -0.00   0.00  -0.00    -0.00  -0.00   0.00    -0.00  -0.00   0.00
   4   6     0.00  -0.00   0.00    -0.00  -0.00  -0.00    -0.00   0.00   0.00
   5   6     0.00   0.00   0.00    -0.00   0.00  -0.00     0.00   0.00   0.00
   6   6     0.00  -0.00   0.00     0.00   0.00  -0.00     0.00  -0.00   0.00
   7   6    -0.00   0.00  -0.00    -0.00   0.00  -0.00     0.00  -0.00   0.00
   8   6     0.00   0.00   0.00     0.00   0.00   0.00    -0.00  -0.00   0.00
   9   1     0.10  -0.02  -0.14    -0.36   0.02   0.64    -0.29   0.03   0.53
  10   1    -0.15   0.49   0.10    -0.17   0.54   0.07     0.19  -0.54  -0.10
  11   1    -0.50   0.19  -0.58     0.15  -0.07   0.14    -0.33   0.14  -0.39
  12   1    -0.01   0.02   0.00    -0.00   0.01   0.00     0.00  -0.01  -0.00
  13   1     0.00  -0.00  -0.01    -0.01   0.00   0.02    -0.01   0.00   0.01
  14   1     0.00  -0.00  -0.00     0.00   0.00  -0.00     0.00   0.00  -0.00
  15   1    -0.00   0.00  -0.00    -0.00   0.00   0.00    -0.00  -0.00  -0.00
  16   1     0.00  -0.00  -0.00    -0.00   0.00   0.00     0.00  -0.00   0.00
  17   1    -0.00  -0.00  -0.00     0.00   0.00   0.00    -0.00  -0.00  -0.00
  18   1     0.00   0.00  -0.00     0.00  -0.00   0.00     0.00   0.00  -0.00
  19   1    -0.00   0.00  -0.00     0.00   0.00   0.00    -0.00   0.00  -0.00
  20   1    -0.00   0.00  -0.00    -0.00   0.00   0.00    -0.00  -0.00   0.00
  21   1     0.00  -0.00  -0.00     0.00  -0.00   0.00    -0.00   0.00   0.00
  22   1     0.00   0.00   0.00     0.00   0.00   0.00     0.00  -0.00  -0.00
  23   1     0.00   0.00   0.00     0.00  -0.00   0.00    -0.00   0.00  -0.00
  24   1    -0.01  -0.01  -0.00    -0.01  -0.01  -0.00     0.01   0.01   0.00
