24
 energy: -28.995435712408 gnorm: 0.000226594290 xtb: 6.5.1 (fef0646)
N            0.94002113057222       -2.27228750112124       -0.49880180711234
C            2.42268205161291       -2.31324676501527       -0.50690364653384
C            2.99324966630021       -1.00784974063780       -1.04921005517800
C            4.52483337733671       -1.06593220615138       -1.09962888685681
C            5.01718327501271       -2.13451102978900       -2.03806505259619
C            4.82673064625381       -2.00522128135521       -3.40962654717769
C            5.26260849649823       -2.98790897885441       -4.27989212877154
C            5.90026216654158       -4.11637348150410       -3.79055934487248
C            6.09982935751491       -4.25315674596991       -2.42748546307835
C            5.65730348678958       -3.27017346288257       -1.55850368989492
H            0.55329448775983       -3.15525207897192       -0.14655566364294
H            0.58743549731172       -2.11477981900570       -1.45026127641016
H            0.60988044758469       -1.50497179763100        0.09863921502546
H            2.75783884254627       -3.14188912406491       -1.13129611656917
H            2.78236861221106       -2.47911078000667        0.50837572262978
H            2.70143797053201       -0.17202170744806       -0.41293538453250
H            2.61940088874116       -0.82544621632009       -2.05697174632236
H            4.91998994252481       -1.24998738026600       -0.09999397384732
H            4.90309113742820       -0.09868466607906       -1.43537113537776
H            4.34712945880303       -1.12159110951082       -3.80464564480979
H            5.11215722458350       -2.87368247430067       -5.34351853461330
H            6.24665458698676       -4.88158971869462       -4.46975359214904
H            6.60424768834784       -5.12719651351090       -2.04190787017261
H            5.82389956020613       -3.38547542090897       -0.49736737713596
