      -----------------------------------------------------------      
     |                   =====================                   |     
     |                           x T B                           |     
     |                   =====================                   |     
     |                         S. Grimme                         |     
     |          Mulliken Center for Theoretical Chemistry        |     
     |                    University of Bonn                     |     
      -----------------------------------------------------------      

   * xtb version 6.5.1 (fef0646) compiled by 'conda@b96dff2e9fd6' on 2023-01-04

   xtb is free software: you can redistribute it and/or modify it under
   the terms of the GNU Lesser General Public License as published by
   the Free Software Foundation, either version 3 of the License, or
   (at your option) any later version.
   
   xtb is distributed in the hope that it will be useful,
   but WITHOUT ANY WARRANTY; without even the implied warranty of
   MERCHANTABILITY or FITNESS FOR A PARTICULAR PURPOSE.  See the
   GNU Lesser General Public License for more details.
   
   Cite this work as:
   * C. Bannwarth, E. Caldeweyher, S. Ehlert, A. Hansen, P. Pracht,
     J. Seibert, S. Spicher, S. Grimme, WIREs Comput. Mol. Sci., 2020, 11,
     e01493. DOI: 10.1002/wcms.1493
   
   for GFN2-xTB:
   * C. Bannwarth, S. Ehlert and S. Grimme., J. Chem. Theory Comput., 2019,
     15, 1652-1671. DOI: 10.1021/acs.jctc.8b01176
   for GFN1-xTB:
   * S. Grimme, C. Bannwarth, P. Shushkov, J. Chem. Theory Comput., 2017,
     13, 1989-2009. DOI: 10.1021/acs.jctc.7b00118
   for GFN0-xTB:
   * P. Pracht, E. Caldeweyher, S. Ehlert, S. Grimme, ChemRxiv, 2019, preprint.
     DOI: 10.26434/chemrxiv.8326202.v1
   for GFN-FF:
   * S. Spicher and S. Grimme, Angew. Chem. Int. Ed., 2020, 59, 15665-15673.
     DOI: 10.1002/anie.202004239
   
   for ALPB and GBSA implicit solvation:
   * S. Ehlert, M. Stahn, S. Spicher, S. Grimme, J. Chem. Theory Comput.,
     2021, 17, 4250-4261. DOI: 10.1021/acs.jctc.1c00471
   
   for DFT-D4:
   * E. Caldeweyher, C. Bannwarth and S. Grimme, J. Chem. Phys., 2017,
     147, 034112. DOI: 10.1063/1.4993215
   * E. Caldeweyher, S. Ehlert, A. Hansen, H. Neugebauer, S. Spicher,
     C. Bannwarth and S. Grimme, J. Chem. Phys., 2019, 150, 154122.
     DOI: 10.1063/1.5090222
   * E. Caldeweyher, J.-M. Mewes, S. Ehlert and S. Grimme, Phys. Chem. Chem. Phys.
     2020, 22, 8499-8512. DOI: 10.1039/D0CP00502A
   
   for sTDA-xTB:
   * S. Grimme and C. Bannwarth, J. Chem. Phys., 2016, 145, 054103.
     DOI: 10.1063/1.4959605
   
   in the mass-spec context:
   * V. Asgeirsson, C. Bauer and S. Grimme, Chem. Sci., 2017, 8, 4879.
     DOI: 10.1039/c7sc00601b
   * J. Koopman and S. Grimme, ACS Omega 2019, 4, 12, 15120-15133.
     DOI: 10.1021/acsomega.9b02011
   
   for metadynamics refer to:
   * S. Grimme, J. Chem. Theory Comput., 2019, 155, 2847-2862
     DOI: 10.1021/acs.jctc.9b00143
   
   for SPH calculations refer to:
   * S. Spicher and S. Grimme, J. Chem. Theory Comput., 2021, 17, 1701-1714
     DOI: 10.1021/acs.jctc.0c01306
   
   with help from (in alphabetical order)
   P. Atkinson, C. Bannwarth, F. Bohle, G. Brandenburg, E. Caldeweyher
   M. Checinski, S. Dohm, S. Ehlert, S. Ehrlich, I. Gerasimov, C. Hölzer
   A. Katbashev, J. Koopman, C. Lavigne, S. Lehtola, F. März, M. Müller,
   F. Musil, H. Neugebauer, J. Pisarek, C. Plett, P. Pracht, F. Pultar,
   J. Seibert, P. Shushkov, S. Spicher, M. Stahn, M. Steiner, T. Strunk,
   J. Stückrath, T. Rose, and J. Unsleber
   
 * started run on 2023/01/24 at 14:58:14.845     

           -------------------------------------------------
          |                Calculation Setup                |
           -------------------------------------------------

          program call               : xtb init.xyz --opt -c 1 -u 0 -P 16 --alpb water
          hostname                   : gpg-woodward
          coordinate file            : init.xyz
          omp threads                :                    16

   ID    Z sym.   atoms
    1    7 N      1
    2    6 C      2-13
    3    1 H      14-27

           -------------------------------------------------
          |                 G F N 2 - x T B                 |
           -------------------------------------------------

        Reference                      10.1021/acs.jctc.8b01176
      * Hamiltonian:
        H0-scaling (s, p, d)           1.850000    2.230000    2.230000
        zeta-weighting                 0.500000
      * Dispersion:
        s8                             2.700000
        a1                             0.520000
        a2                             5.000000
        s9                             5.000000
      * Repulsion:
        kExp                           1.500000    1.000000
        rExp                           1.000000
      * Coulomb:
        alpha                          2.000000
        third order                    shell-resolved
        anisotropic                    true
        a3                             3.000000
        a5                             4.000000
        cn-shift                       1.200000
        cn-exp                         4.000000
        max-rad                        5.000000

      * Solvation model:               ALPB
        Solvent                        water
        Parameter file                 internal GFN2-xTB/ALPB
        Dielectric constant                8.0200E+01
        Reference state                gsolv [1 M gas/solution]
        Free energy shift                  1.0808E-03 Eh       6.7819E-01 kcal/mol
        Temperature                        2.9815E+02 K
        Density                            1.0000E+00 kg/L
        Solvent mass                       1.8000E+01 g/mol
        Interaction kernel             P16
        Born radius scaling (c1)           1.4744E+00
        Born radii integrator          GBOBC
        Born offset                        0.0000E+00 a0       0.0000E+00 AA
        H-bond correction              true
        Ion screening                  false
        Surface tension                    1.0000E-05 Eh       1.5569E+01 dyn/cm
        Grid points                               230 per atom

          ...................................................
          :                      SETUP                      :
          :.................................................:
          :  # basis functions                  66          :
          :  # atomic orbitals                  66          :
          :  # shells                           40          :
          :  # electrons                        66          :
          :  max. iterations                   250          :
          :  Hamiltonian                  GFN2-xTB          :
          :  restarted?                      false          :
          :  GBSA solvation                   true          :
          :  PC potential                    false          :
          :  electronic temp.          300.0000000     K    :
          :  accuracy                    1.0000000          :
          :  -> integral cutoff          0.2500000E+02      :
          :  -> integral neglect         0.1000000E-07      :
          :  -> SCF convergence          0.1000000E-05 Eh   :
          :  -> wf. convergence          0.1000000E-03 e    :
          :  Broyden damping             0.4000000          :
          ...................................................

 iter      E             dE          RMSdq      gap      omega  full diag
   1    -35.9524288 -0.359524E+02  0.414E+00    2.93       0.0  T
   2    -36.0318436 -0.794149E-01  0.237E+00    2.93       1.0  T
   3    -36.0332108 -0.136712E-02  0.101E+00    2.91       1.0  T
   4    -36.0318514  0.135940E-02  0.372E-01    2.91       1.0  T
   5    -36.0352403 -0.338893E-02  0.745E-02    2.90       1.0  T
   6    -36.0352463 -0.602905E-05  0.446E-02    2.91       1.0  T
   7    -36.0352559 -0.958285E-05  0.194E-02    2.91       1.0  T
   8    -36.0352601 -0.418378E-05  0.967E-03    2.91       2.0  T
   9    -36.0352606 -0.535542E-06  0.568E-03    2.91       3.4  T
  10    -36.0352608 -0.178444E-06  0.154E-03    2.91      12.5  T
  11    -36.0352608 -0.148284E-07  0.676E-04    2.91      28.5  T
  12    -36.0352608 -0.503582E-08  0.210E-04    2.91      91.7  T

   *** convergence criteria satisfied after 12 iterations ***

         #    Occupation            Energy/Eh            Energy/eV
      -------------------------------------------------------------
         1        2.0000           -0.6973047             -18.9746
       ...           ...                  ...                  ...
        27        2.0000           -0.4484725             -12.2036
        28        2.0000           -0.4430679             -12.0565
        29        2.0000           -0.4278789             -11.6432
        30        2.0000           -0.4217799             -11.4772
        31        2.0000           -0.4177313             -11.3670
        32        2.0000           -0.4063633             -11.0577
        33        2.0000           -0.3780572             -10.2875 (HOMO)
        34                         -0.2712797              -7.3819 (LUMO)
        35                         -0.2342156              -6.3733
        36                         -0.1969863              -5.3603
        37                         -0.1602942              -4.3618
        38                         -0.0671992              -1.8286
       ...                                ...                  ...
        66                          0.6849315              18.6379
      -------------------------------------------------------------
                  HL-Gap            0.1067775 Eh            2.9056 eV
             Fermi-level           -0.3246684 Eh           -8.8347 eV

 SCC (total)                   0 d,  0 h,  0 min,  0.047 sec
 SCC setup                      ...        0 min,  0.000 sec (  0.990%)
 Dispersion                     ...        0 min,  0.001 sec (  1.497%)
 classical contributions        ...        0 min,  0.000 sec (  0.149%)
 integral evaluation            ...        0 min,  0.001 sec (  3.054%)
 iterations                     ...        0 min,  0.040 sec ( 85.097%)
 molecular gradient             ...        0 min,  0.003 sec (  7.326%)
 printout                       ...        0 min,  0.001 sec (  1.160%)

         :::::::::::::::::::::::::::::::::::::::::::::::::::::
         ::                     SUMMARY                     ::
         :::::::::::::::::::::::::::::::::::::::::::::::::::::
         :: total energy             -35.421353038681 Eh    ::
         :: total w/o Gsasa/hb       -35.410536698685 Eh    ::
         :: gradient norm              0.076581934050 Eh/a0 ::
         :: HOMO-LUMO gap              2.905563625293 eV    ::
         ::.................................................::
         :: SCC energy               -36.035260814055 Eh    ::
         :: -> isotropic ES            0.121525795103 Eh    ::
         :: -> anisotropic ES         -0.015058514681 Eh    ::
         :: -> anisotropic XC          0.025497709479 Eh    ::
         :: -> dispersion             -0.023816539831 Eh    ::
         :: -> Gsolv                  -0.113427614971 Eh    ::
         ::    -> Gelec               -0.102611274976 Eh    ::
         ::    -> Gsasa               -0.002153524019 Eh    ::
         ::    -> Ghb                 -0.009743575675 Eh    ::
         ::    -> Gshift               0.001080759698 Eh    ::
         :: repulsion energy           0.613850115119 Eh    ::
         :: add. restraining           0.000000000000 Eh    ::
         :: total charge               1.000000000000 e     ::
         :::::::::::::::::::::::::::::::::::::::::::::::::::::

      ----------------------------------------------------------- 
     |                   =====================                   |
     |                        A N C O P T                        |
     |                   =====================                   |
     |               Approximate Normal Coordinate               |
     |                Rational Function Optimizer                |
      ----------------------------------------------------------- 

          ...................................................
          :                      SETUP                      :
          :.................................................:
          :   optimization level            normal          :
          :   max. optcycles                   200          :
          :   ANC micro-cycles                  20          :
          :   degrees of freedom                75          :
          :.................................................:
          :   RF solver                   davidson          :
          :   write xtbopt.log                true          :
          :   linear?                        false          :
          :   energy convergence         0.5000000E-05 Eh   :
          :   grad. convergence          0.1000000E-02 Eh/α :
          :   maximium RF displ.         1.0000000          :
          :   Hlow (freq-cutoff)         0.1000000E-01      :
          :   Hmax (freq-cutoff)         5.0000000          :
          :   S6 in model hess.         20.0000000          :
          ...................................................

generating ANC from model Hessian ...
Using Lindh-Hessian (1995)
 Shifting diagonal of input Hessian by    8.7962570420063411E-003
 Lowest  eigenvalues of input Hessian
    0.000000    0.000000    0.000000    0.000000    0.000000    0.000000
    0.010000    0.010216    0.012870    0.014751    0.015677    0.018535
    0.019715    0.021541    0.022010    0.024404    0.028387    0.029612
 Highest eigenvalues
    1.755042    1.782088    1.794561    1.898321    2.003629    2.082459


........................................................................
.............................. CYCLE    1 ..............................
........................................................................
   1    -36.0352608 -0.360353E+02  0.109E-04    2.91       0.0  T
   2    -36.0352608 -0.208971E-10  0.688E-05    2.91     279.9  T
   3    -36.0352608  0.250822E-11  0.393E-05    2.91     489.6  T
     SCC iter.                  ...        0 min,  0.010 sec
     gradient                   ...        0 min,  0.003 sec
 * total energy  :   -35.4213530 Eh     change       -0.2656222E-09 Eh
   gradient norm :     0.0765819 Eh/α   predicted     0.0000000E+00 (-100.00%)
   displ. norm   :     0.1754385 α      lambda       -0.5869909E-02
   maximum displ.:     0.0816751 α      in ANC's #14, #7, #6, ...

........................................................................
.............................. CYCLE    2 ..............................
........................................................................
   1    -36.0604934 -0.360605E+02  0.111E-01    3.10       0.0  T
   2    -36.0605105 -0.171484E-04  0.719E-02    3.10       1.0  T
   3    -36.0605021  0.841909E-05  0.230E-02    3.10       1.0  T
   4    -36.0605155 -0.133819E-04  0.379E-03    3.10       5.1  T
   5    -36.0605156 -0.153336E-06  0.206E-03    3.10       9.3  T
   6    -36.0605156 -0.183155E-07  0.685E-04    3.10      28.1  T
   7    -36.0605156 -0.132522E-08  0.204E-04    3.10      94.4  T
     SCC iter.                  ...        0 min,  0.022 sec
     gradient                   ...        0 min,  0.003 sec
 * total energy  :   -35.4252979 Eh     change       -0.3944851E-02 Eh
   gradient norm :     0.0300920 Eh/α   predicted    -0.3025569E-02 ( -23.30%)
   displ. norm   :     0.1154778 α      lambda       -0.1255232E-02
   maximum displ.:     0.0495894 α      in ANC's #14, #6, #7, ...

........................................................................
.............................. CYCLE    3 ..............................
........................................................................
   1    -36.0710591 -0.360711E+02  0.622E-02    3.22       0.0  T
   2    -36.0710647 -0.557010E-05  0.389E-02    3.22       1.0  T
   3    -36.0710629  0.180029E-05  0.128E-02    3.22       1.5  T
   4    -36.0710662 -0.325887E-05  0.195E-03    3.22       9.9  T
   5    -36.0710662 -0.254966E-07  0.107E-03    3.22      18.0  T
   6    -36.0710662 -0.539032E-08  0.366E-04    3.22      52.5  T
   7    -36.0710662 -0.871175E-09  0.118E-04    3.22     163.6  T
     SCC iter.                  ...        0 min,  0.021 sec
     gradient                   ...        0 min,  0.003 sec
 * total energy  :   -35.4259689 Eh     change       -0.6709913E-03 Eh
   gradient norm :     0.0051032 Eh/α   predicted    -0.6360898E-03 (  -5.20%)
   displ. norm   :     0.0481846 α      lambda       -0.8961491E-04
   maximum displ.:     0.0261864 α      in ANC's #6, #2, #28, ...

........................................................................
.............................. CYCLE    4 ..............................
........................................................................
   1    -36.0702172 -0.360702E+02  0.220E-02    3.22       0.0  T
   2    -36.0702173 -0.937327E-07  0.128E-02    3.22       1.5  T
   3    -36.0702172  0.612066E-07  0.212E-03    3.22       9.1  T
   4    -36.0702173 -0.102475E-06  0.492E-04    3.22      39.1  T
   5    -36.0702173 -0.368360E-09  0.220E-04    3.22      87.4  T
     SCC iter.                  ...        0 min,  0.015 sec
     gradient                   ...        0 min,  0.003 sec
 * total energy  :   -35.4260358 Eh     change       -0.6688096E-04 Eh
   gradient norm :     0.0027061 Eh/α   predicted    -0.4492242E-04 ( -32.83%)
   displ. norm   :     0.0722622 α      lambda       -0.6172209E-04
   maximum displ.:     0.0423914 α      in ANC's #6, #2, #1, ...

........................................................................
.............................. CYCLE    5 ..............................
........................................................................
   1    -36.0691020 -0.360691E+02  0.267E-02    3.22       0.0  T
   2    -36.0691022 -0.124958E-06  0.157E-02    3.22       1.2  T
   3    -36.0691021  0.970390E-07  0.224E-03    3.22       8.6  T
   4    -36.0691022 -0.152029E-06  0.556E-04    3.22      34.6  T
   5    -36.0691022 -0.709079E-09  0.263E-04    3.22      73.3  T
     SCC iter.                  ...        0 min,  0.015 sec
     gradient                   ...        0 min,  0.003 sec
 * total energy  :   -35.4260728 Eh     change       -0.3702740E-04 Eh
   gradient norm :     0.0012884 Eh/α   predicted    -0.3102418E-04 ( -16.21%)
   displ. norm   :     0.0709157 α      lambda       -0.1526522E-04
   maximum displ.:     0.0472401 α      in ANC's #2, #6, #1, ...

........................................................................
.............................. CYCLE    6 ..............................
........................................................................
   1    -36.0689191 -0.360689E+02  0.204E-02    3.22       0.0  T
   2    -36.0689192 -0.494616E-07  0.120E-02    3.22       1.6  T
   3    -36.0689192  0.140595E-07  0.116E-03    3.22      16.6  T
   4    -36.0689192 -0.333521E-07  0.360E-04    3.22      53.5  T
   5    -36.0689192  0.105310E-09  0.185E-04    3.22     103.9  T
     SCC iter.                  ...        0 min,  0.015 sec
     gradient                   ...        0 min,  0.003 sec
 * total energy  :   -35.4260909 Eh     change       -0.1813668E-04 Eh
   gradient norm :     0.0017356 Eh/α   predicted    -0.7652417E-05 ( -57.81%)
   displ. norm   :     0.1181729 α      lambda       -0.2563011E-04
   maximum displ.:     0.0813311 α      in ANC's #2, #6, #1, ...

........................................................................
.............................. CYCLE    7 ..............................
........................................................................
   1    -36.0691734 -0.360692E+02  0.334E-02    3.22       0.0  T
   2    -36.0691735 -0.112562E-06  0.196E-02    3.22       1.0  T
   3    -36.0691734  0.110681E-06  0.267E-03    3.22       7.2  T
   4    -36.0691736 -0.164672E-06  0.592E-04    3.22      32.5  T
   5    -36.0691736  0.668123E-10  0.292E-04    3.22      65.9  T
     SCC iter.                  ...        0 min,  0.015 sec
     gradient                   ...        0 min,  0.002 sec
 * total energy  :   -35.4261213 Eh     change       -0.3033599E-04 Eh
   gradient norm :     0.0016913 Eh/α   predicted    -0.1289775E-04 ( -57.48%)
   displ. norm   :     0.1352204 α      lambda       -0.2165354E-04
   maximum displ.:     0.1022554 α      in ANC's #2, #6, #1, ...

........................................................................
.............................. CYCLE    8 ..............................
........................................................................
   1    -36.0693594 -0.360694E+02  0.396E-02    3.22       0.0  T
   2    -36.0693596 -0.144632E-06  0.232E-02    3.22       1.0  T
   3    -36.0693594  0.141797E-06  0.296E-03    3.22       6.5  T
   4    -36.0693596 -0.214968E-06  0.672E-04    3.22      28.6  T
   5    -36.0693596 -0.246700E-10  0.254E-04    3.22      75.8  T
     SCC iter.                  ...        0 min,  0.013 sec
     gradient                   ...        0 min,  0.002 sec
 * total energy  :   -35.4261463 Eh     change       -0.2500026E-04 Eh
   gradient norm :     0.0010173 Eh/α   predicted    -0.1091546E-04 ( -56.34%)
   displ. norm   :     0.0852477 α      lambda       -0.1145868E-04
   maximum displ.:     0.0733615 α      in ANC's #2, #1, #6, ...

........................................................................
.............................. CYCLE    9 ..............................
........................................................................
   1    -36.0696462 -0.360696E+02  0.266E-02    3.22       0.0  T
   2    -36.0696462 -0.660139E-07  0.155E-02    3.22       1.2  T
   3    -36.0696462  0.417964E-07  0.171E-03    3.22      11.3  T
   4    -36.0696463 -0.702119E-07  0.423E-04    3.22      45.5  T
   5    -36.0696463 -0.332548E-09  0.199E-04    3.22      96.8  T
     SCC iter.                  ...        0 min,  0.013 sec
     gradient                   ...        0 min,  0.002 sec
 * total energy  :   -35.4261610 Eh     change       -0.1476493E-04 Eh
   gradient norm :     0.0006296 Eh/α   predicted    -0.5751129E-05 ( -61.05%)
   displ. norm   :     0.0526222 α      lambda       -0.8366346E-05
   maximum displ.:     0.0488626 α      in ANC's #2, #1, #4, ...

........................................................................
.............................. CYCLE   10 ..............................
........................................................................
   1    -36.0698189 -0.360698E+02  0.165E-02    3.22       0.0  T
   2    -36.0698189 -0.221386E-07  0.967E-03    3.22       2.0  T
   3    -36.0698189  0.810101E-08  0.850E-04    3.22      22.6  T
   4    -36.0698189 -0.172420E-07  0.248E-04    3.22      77.7  T
     SCC iter.                  ...        0 min,  0.010 sec
     gradient                   ...        0 min,  0.002 sec
 * total energy  :   -35.4261729 Eh     change       -0.1190389E-04 Eh
   gradient norm :     0.0008227 Eh/α   predicted    -0.4194115E-05 ( -64.77%)
   displ. norm   :     0.0556146 α      lambda       -0.1058603E-04
   maximum displ.:     0.0486537 α      in ANC's #2, #6, #5, ...

........................................................................
.............................. CYCLE   11 ..............................
........................................................................
   1    -36.0698688 -0.360699E+02  0.162E-02    3.22       0.0  T
   2    -36.0698688 -0.180545E-07  0.951E-03    3.22       2.0  T
   3    -36.0698688  0.926126E-08  0.880E-04    3.22      21.9  T
   4    -36.0698688 -0.171885E-07  0.250E-04    3.22      77.1  T
     SCC iter.                  ...        0 min,  0.011 sec
     gradient                   ...        0 min,  0.002 sec
 * total energy  :   -35.4261880 Eh     change       -0.1502367E-04 Eh
   gradient norm :     0.0010800 Eh/α   predicted    -0.5304178E-05 ( -64.69%)
   displ. norm   :     0.0857670 α      lambda       -0.1617799E-04
   maximum displ.:     0.0708087 α      in ANC's #2, #6, #5, ...

........................................................................
.............................. CYCLE   12 ..............................
........................................................................
   1    -36.0697308 -0.360697E+02  0.234E-02    3.22       0.0  T
   2    -36.0697308 -0.390768E-07  0.138E-02    3.22       1.4  T
   3    -36.0697308  0.165388E-07  0.127E-03    3.22      15.1  T
   4    -36.0697308 -0.335893E-07  0.389E-04    3.22      49.4  T
   5    -36.0697308 -0.363755E-09  0.196E-04    3.22      98.2  T
     SCC iter.                  ...        0 min,  0.014 sec
     gradient                   ...        0 min,  0.002 sec
 * total energy  :   -35.4262103 Eh     change       -0.2232938E-04 Eh
   gradient norm :     0.0010549 Eh/α   predicted    -0.8119104E-05 ( -63.64%)
   displ. norm   :     0.1112751 α      lambda       -0.1900895E-04
   maximum displ.:     0.0926240 α      in ANC's #2, #6, #5, ...

........................................................................
.............................. CYCLE   13 ..............................
........................................................................
   1    -36.0695582 -0.360696E+02  0.302E-02    3.22       0.0  T
   2    -36.0695583 -0.779528E-07  0.177E-02    3.22       1.1  T
   3    -36.0695582  0.414843E-07  0.182E-03    3.22      10.6  T
   4    -36.0695583 -0.731509E-07  0.507E-04    3.22      38.0  T
   5    -36.0695583 -0.590795E-09  0.264E-04    3.22      72.9  T
     SCC iter.                  ...        0 min,  0.014 sec
     gradient                   ...        0 min,  0.002 sec
 * total energy  :   -35.4262359 Eh     change       -0.2559225E-04 Eh
   gradient norm :     0.0009154 Eh/α   predicted    -0.9557473E-05 ( -62.65%)
   displ. norm   :     0.0977347 α      lambda       -0.1551187E-04
   maximum displ.:     0.0849260 α      in ANC's #2, #6, #5, ...

........................................................................
.............................. CYCLE   14 ..............................
........................................................................
   1    -36.0694127 -0.360694E+02  0.269E-02    3.22       0.0  T
   2    -36.0694128 -0.673996E-07  0.158E-02    3.22       1.2  T
   3    -36.0694127  0.536717E-07  0.193E-03    3.21      10.0  T
   4    -36.0694128 -0.839975E-07  0.457E-04    3.22      42.1  T
   5    -36.0694128 -0.115939E-09  0.250E-04    3.22      77.1  T
     SCC iter.                  ...        0 min,  0.014 sec
     gradient                   ...        0 min,  0.002 sec
 * total energy  :   -35.4262578 Eh     change       -0.2188827E-04 Eh
   gradient norm :     0.0007737 Eh/α   predicted    -0.7789624E-05 ( -64.41%)
   displ. norm   :     0.0768788 α      lambda       -0.1348706E-04
   maximum displ.:     0.0704174 α      in ANC's #2, #6, #3, ...

........................................................................
.............................. CYCLE   15 ..............................
........................................................................
   1    -36.0694600 -0.360695E+02  0.217E-02    3.21       0.0  T
   2    -36.0694600 -0.485556E-07  0.127E-02    3.22       1.5  T
   3    -36.0694600  0.415688E-07  0.167E-03    3.21      11.5  T
   4    -36.0694600 -0.636908E-07  0.371E-04    3.22      51.9  T
   5    -36.0694600 -0.348450E-10  0.205E-04    3.22      94.1  T
     SCC iter.                  ...        0 min,  0.014 sec
     gradient                   ...        0 min,  0.002 sec
 * total energy  :   -35.4262776 Eh     change       -0.1981926E-04 Eh
   gradient norm :     0.0006936 Eh/α   predicted    -0.6763579E-05 ( -65.87%)
   displ. norm   :     0.0680466 α      lambda       -0.1381393E-04
   maximum displ.:     0.0638022 α      in ANC's #2, #3, #1, ...

........................................................................
.............................. CYCLE   16 ..............................
........................................................................
   1    -36.0695700 -0.360696E+02  0.195E-02    3.21       0.0  T
   2    -36.0695700 -0.457690E-07  0.114E-02    3.21       1.7  T
   3    -36.0695700  0.460697E-07  0.171E-03    3.21      11.2  T
   4    -36.0695700 -0.673356E-07  0.341E-04    3.21      56.4  T
   5    -36.0695700 -0.767528E-10  0.196E-04    3.21      98.0  T
     SCC iter.                  ...        0 min,  0.014 sec
     gradient                   ...        0 min,  0.002 sec
 * total energy  :   -35.4262978 Eh     change       -0.2024435E-04 Eh
   gradient norm :     0.0007153 Eh/α   predicted    -0.6923171E-05 ( -65.80%)
   displ. norm   :     0.0742939 α      lambda       -0.1593120E-04
   maximum displ.:     0.0694924 α      in ANC's #2, #3, #1, ...

........................................................................
.............................. CYCLE   17 ..............................
........................................................................
   1    -36.0696596 -0.360697E+02  0.213E-02    3.21       0.0  T
   2    -36.0696596 -0.508765E-07  0.124E-02    3.21       1.6  T
   3    -36.0696596  0.483264E-07  0.178E-03    3.21      10.8  T
   4    -36.0696597 -0.727053E-07  0.371E-04    3.21      51.8  T
   5    -36.0696597 -0.107292E-10  0.210E-04    3.21      91.6  T
     SCC iter.                  ...        0 min,  0.015 sec
     gradient                   ...        0 min,  0.002 sec
 * total energy  :   -35.4263211 Eh     change       -0.2327228E-04 Eh
   gradient norm :     0.0007840 Eh/α   predicted    -0.7985805E-05 ( -65.69%)
   displ. norm   :     0.0804642 α      lambda       -0.1710425E-04
   maximum displ.:     0.0749529 α      in ANC's #2, #1, #4, ...

........................................................................
.............................. CYCLE   18 ..............................
........................................................................
   1    -36.0697651 -0.360698E+02  0.229E-02    3.21       0.0  T
   2    -36.0697651 -0.567683E-07  0.133E-02    3.21       1.4  T
   3    -36.0697651  0.532548E-07  0.187E-03    3.21      10.3  T
   4    -36.0697652 -0.808373E-07  0.396E-04    3.21      48.5  T
   5    -36.0697652 -0.260840E-10  0.222E-04    3.21      86.5  T
     SCC iter.                  ...        0 min,  0.017 sec
     gradient                   ...        0 min,  0.002 sec
 * total energy  :   -35.4263457 Eh     change       -0.2462329E-04 Eh
   gradient norm :     0.0007850 Eh/α   predicted    -0.8577345E-05 ( -65.17%)
   displ. norm   :     0.0816693 α      lambda       -0.1662549E-04
   maximum displ.:     0.0766906 α      in ANC's #2, #1, #4, ...

........................................................................
.............................. CYCLE   19 ..............................
........................................................................
   1    -36.0698036 -0.360698E+02  0.234E-02    3.21       0.0  T
   2    -36.0698037 -0.526738E-07  0.136E-02    3.21       1.4  T
   3    -36.0698036  0.507138E-07  0.183E-03    3.21      10.5  T
   4    -36.0698037 -0.770702E-07  0.400E-04    3.21      48.1  T
   5    -36.0698037 -0.313989E-10  0.220E-04    3.21      87.3  T
     SCC iter.                  ...        0 min,  0.015 sec
     gradient                   ...        0 min,  0.003 sec
 * total energy  :   -35.4263696 Eh     change       -0.2385218E-04 Eh
   gradient norm :     0.0007099 Eh/α   predicted    -0.8337848E-05 ( -65.04%)
   displ. norm   :     0.0755440 α      lambda       -0.1459961E-04
   maximum displ.:     0.0718636 α      in ANC's #2, #1, #4, ...

........................................................................
.............................. CYCLE   20 ..............................
........................................................................
   1    -36.0698960 -0.360699E+02  0.215E-02    3.21       0.0  T
   2    -36.0698960 -0.412312E-07  0.125E-02    3.21       1.5  T
   3    -36.0698960  0.325789E-07  0.151E-03    3.21      12.7  T
   4    -36.0698961 -0.524831E-07  0.355E-04    3.21      54.3  T
   5    -36.0698961 -0.728875E-10  0.190E-04    3.21     101.5  T
     SCC iter.                  ...        0 min,  0.015 sec
     gradient                   ...        0 min,  0.003 sec
 * total energy  :   -35.4263905 Eh     change       -0.2087642E-04 Eh
   gradient norm :     0.0005757 Eh/α   predicted    -0.7323251E-05 ( -64.92%)
   displ. norm   :     0.0652526 α      lambda       -0.1227718E-04
   maximum displ.:     0.0630001 α      in ANC's #2, #1, #4, ...
 * RMSD in coord.:     0.2582360 α      energy gain  -0.5037414E-02 Eh

generating ANC from model Hessian ...
Using Lindh-Hessian (1995)
 Shifting diagonal of input Hessian by    8.7667073285177723E-003
 Lowest  eigenvalues of input Hessian
    0.000000    0.000000    0.000000    0.000000    0.000000    0.000000
    0.010000    0.010264    0.013161    0.014779    0.015992    0.019044
    0.019589    0.021485    0.022615    0.025489    0.029502    0.031215
 Highest eigenvalues
    1.780138    1.821833    1.887688    1.968417    2.030041    2.120591


........................................................................
.............................. CYCLE   21 ..............................
........................................................................
   1    -36.0699339 -0.360699E+02  0.189E-02    3.21       0.0  T
   2    -36.0699339 -0.293792E-07  0.110E-02    3.21       1.7  T
   3    -36.0699339  0.351578E-07  0.148E-03    3.21      13.0  T
   4    -36.0699339 -0.506301E-07  0.303E-04    3.21      63.6  T
   5    -36.0699339 -0.112266E-11  0.163E-04    3.21     117.7  T
     SCC iter.                  ...        0 min,  0.015 sec
     gradient                   ...        0 min,  0.003 sec
 * total energy  :   -35.4264082 Eh     change       -0.1772379E-04 Eh
   gradient norm :     0.0004852 Eh/α   predicted     0.0000000E+00 (-100.00%)
   displ. norm   :     0.0424295 α      lambda       -0.2787142E-06
   maximum displ.:     0.0407366 α      in ANC's #2, #1, #8, ...

........................................................................
.............................. CYCLE   22 ..............................
........................................................................
   1    -36.0698935 -0.360699E+02  0.130E-02    3.21       0.0  T
   2    -36.0698935 -0.105835E-07  0.760E-03    3.21       2.5  T
   3    -36.0698935 -0.182779E-08  0.417E-04    3.21      46.2  T
   4    -36.0698935 -0.262516E-08  0.194E-04    3.21      99.3  T
     SCC iter.                  ...        0 min,  0.014 sec
     gradient                   ...        0 min,  0.003 sec
 * total energy  :   -35.4264208 Eh     change       -0.1264569E-04 Eh
   gradient norm :     0.0003342 Eh/α   predicted    -0.4389348E-05 ( -65.29%)
   displ. norm   :     0.0555468 α      lambda       -0.1092053E-04
   maximum displ.:     0.0499143 α      in ANC's #2, #1, #6, ...

........................................................................
.............................. CYCLE   23 ..............................
........................................................................
   1    -36.0698647 -0.360699E+02  0.168E-02    3.21       0.0  T
   2    -36.0698647 -0.190212E-07  0.985E-03    3.21       2.0  T
   3    -36.0698647  0.194018E-07  0.113E-03    3.21      17.0  T
   4    -36.0698647 -0.291619E-07  0.250E-04    3.21      77.1  T
   5    -36.0698647 -0.588543E-10  0.129E-04    3.21     149.2  T
     SCC iter.                  ...        0 min,  0.018 sec
     gradient                   ...        0 min,  0.003 sec
 * total energy  :   -35.4264364 Eh     change       -0.1561491E-04 Eh
   gradient norm :     0.0003976 Eh/α   predicted    -0.5467966E-05 ( -64.98%)
   displ. norm   :     0.0724286 α      lambda       -0.1311610E-04
   maximum displ.:     0.0627444 α      in ANC's #2, #1, #6, ...

........................................................................
.............................. CYCLE   24 ..............................
........................................................................
   1    -36.0698532 -0.360699E+02  0.218E-02    3.21       0.0  T
   2    -36.0698533 -0.342364E-07  0.127E-02    3.21       1.5  T
   3    -36.0698532  0.345310E-07  0.149E-03    3.21      12.9  T
   4    -36.0698533 -0.519417E-07  0.331E-04    3.21      58.1  T
   5    -36.0698533  0.931522E-11  0.175E-04    3.21     109.7  T
     SCC iter.                  ...        0 min,  0.018 sec
     gradient                   ...        0 min,  0.003 sec
 * total energy  :   -35.4264552 Eh     change       -0.1875490E-04 Eh
   gradient norm :     0.0004040 Eh/α   predicted    -0.6575069E-05 ( -64.94%)
   displ. norm   :     0.0838443 α      lambda       -0.1414339E-04
   maximum displ.:     0.0719670 α      in ANC's #2, #1, #6, ...

........................................................................
.............................. CYCLE   25 ..............................
........................................................................
   1    -36.0698313 -0.360698E+02  0.251E-02    3.21       0.0  T
   2    -36.0698313 -0.504470E-07  0.147E-02    3.21       1.3  T
   3    -36.0698312  0.581725E-07  0.190E-03    3.21      10.1  T
   4    -36.0698313 -0.841200E-07  0.389E-04    3.21      49.5  T
   5    -36.0698313  0.130044E-09  0.210E-04    3.21      91.5  T
     SCC iter.                  ...        0 min,  0.018 sec
     gradient                   ...        0 min,  0.003 sec
 * total energy  :   -35.4264754 Eh     change       -0.2017860E-04 Eh
   gradient norm :     0.0004133 Eh/α   predicted    -0.7094995E-05 ( -64.84%)
   displ. norm   :     0.0858318 α      lambda       -0.1373358E-04
   maximum displ.:     0.0744905 α      in ANC's #2, #1, #6, ...

........................................................................
.............................. CYCLE   26 ..............................
........................................................................
   1    -36.0698735 -0.360699E+02  0.258E-02    3.21       0.0  T
   2    -36.0698736 -0.593072E-07  0.151E-02    3.21       1.3  T
   3    -36.0698735  0.855706E-07  0.224E-03    3.21       8.6  T
   4    -36.0698736 -0.117258E-06  0.414E-04    3.21      46.5  T
   5    -36.0698736  0.190568E-09  0.234E-04    3.21      82.4  T
     SCC iter.                  ...        0 min,  0.018 sec
     gradient                   ...        0 min,  0.003 sec
 * total energy  :   -35.4264951 Eh     change       -0.1973881E-04 Eh
   gradient norm :     0.0003879 Eh/α   predicted    -0.6890790E-05 ( -65.09%)
   displ. norm   :     0.0799256 α      lambda       -0.1259722E-04
   maximum displ.:     0.0709934 α      in ANC's #2, #1, #3, ...

........................................................................
.............................. CYCLE   27 ..............................
........................................................................
   1    -36.0699423 -0.360699E+02  0.238E-02    3.21       0.0  T
   2    -36.0699423 -0.555328E-07  0.139E-02    3.21       1.4  T
   3    -36.0699422  0.812331E-07  0.218E-03    3.21       8.8  T
   4    -36.0699423 -0.110740E-06  0.397E-04    3.21      48.5  T
   5    -36.0699423  0.130193E-09  0.228E-04    3.21      84.5  T
     SCC iter.                  ...        0 min,  0.018 sec
     gradient                   ...        0 min,  0.003 sec
 * total energy  :   -35.4265138 Eh     change       -0.1866385E-04 Eh
   gradient norm :     0.0003551 Eh/α   predicted    -0.6317054E-05 ( -66.15%)
   displ. norm   :     0.1222442 α      lambda       -0.1979451E-04
   maximum displ.:     0.1093295 α      in ANC's #2, #1, #3, ...

........................................................................
.............................. CYCLE   28 ..............................
........................................................................
   1    -36.0699797 -0.360700E+02  0.365E-02    3.21       0.0  T
   2    -36.0699799 -0.137651E-06  0.213E-02    3.21       1.0  T
   3    -36.0699797  0.206528E-06  0.347E-03    3.21       5.5  T
   4    -36.0699799 -0.279593E-06  0.621E-04    3.21      31.0  T
   5    -36.0699799  0.165102E-09  0.360E-04    3.21      53.5  T
     SCC iter.                  ...        0 min,  0.018 sec
     gradient                   ...        0 min,  0.003 sec
 * total energy  :   -35.4265441 Eh     change       -0.3029388E-04 Eh
   gradient norm :     0.0004522 Eh/α   predicted    -0.9964373E-05 ( -67.11%)
   displ. norm   :     0.1260689 α      lambda       -0.2137486E-04
   maximum displ.:     0.1130177 α      in ANC's #2, #1, #3, ...

........................................................................
.............................. CYCLE   29 ..............................
........................................................................
   1    -36.0698803 -0.360699E+02  0.380E-02    3.21       0.0  T
   2    -36.0698804 -0.146077E-06  0.221E-02    3.21       1.0  T
   3    -36.0698802  0.214561E-06  0.356E-03    3.21       5.4  T
   4    -36.0698805 -0.291555E-06  0.642E-04    3.21      30.0  T
   5    -36.0698805  0.121126E-09  0.370E-04    3.21      52.0  T
     SCC iter.                  ...        0 min,  0.018 sec
     gradient                   ...        0 min,  0.003 sec
 * total energy  :   -35.4265765 Eh     change       -0.3241334E-04 Eh
   gradient norm :     0.0006561 Eh/α   predicted    -0.1076347E-04 ( -66.79%)
   displ. norm   :     0.1254198 α      lambda       -0.2221159E-04
   maximum displ.:     0.1130588 α      in ANC's #2, #1, #3, ...

........................................................................
.............................. CYCLE   30 ..............................
........................................................................
   1    -36.0698142 -0.360698E+02  0.378E-02    3.21       0.0  T
   2    -36.0698143 -0.142871E-06  0.221E-02    3.21       1.0  T
   3    -36.0698141  0.216781E-06  0.357E-03    3.21       5.4  T
   4    -36.0698144 -0.292848E-06  0.637E-04    3.21      30.2  T
   5    -36.0698144  0.977209E-10  0.368E-04    3.21      52.3  T
     SCC iter.                  ...        0 min,  0.017 sec
     gradient                   ...        0 min,  0.003 sec
 * total energy  :   -35.4266098 Eh     change       -0.3333641E-04 Eh
   gradient norm :     0.0008524 Eh/α   predicted    -0.1118451E-04 ( -66.45%)
   displ. norm   :     0.1100824 α      lambda       -0.2173569E-04
   maximum displ.:     0.1004556 α      in ANC's #2, #1, #3, ...

........................................................................
.............................. CYCLE   31 ..............................
........................................................................
   1    -36.0701516 -0.360702E+02  0.335E-02    3.21       0.0  T
   2    -36.0701517 -0.118233E-06  0.195E-02    3.21       1.0  T
   3    -36.0701515  0.195397E-06  0.337E-03    3.21       5.7  T
   4    -36.0701518 -0.259622E-06  0.576E-04    3.21      33.4  T
   5    -36.0701518 -0.516209E-10  0.335E-04    3.21      57.4  T
     SCC iter.                  ...        0 min,  0.018 sec
     gradient                   ...        0 min,  0.003 sec
 * total energy  :   -35.4266408 Eh     change       -0.3098211E-04 Eh
   gradient norm :     0.0008045 Eh/α   predicted    -0.1092923E-04 ( -64.72%)
   displ. norm   :     0.0892606 α      lambda       -0.1812727E-04
   maximum displ.:     0.0843764 α      in ANC's #2, #4, #1, ...

........................................................................
.............................. CYCLE   32 ..............................
........................................................................
   1    -36.0702928 -0.360703E+02  0.268E-02    3.21       0.0  T
   2    -36.0702929 -0.766761E-07  0.156E-02    3.21       1.2  T
   3    -36.0702928  0.138139E-06  0.284E-03    3.21       6.8  T
   4    -36.0702930 -0.180866E-06  0.470E-04    3.21      40.9  T
   5    -36.0702930 -0.114525E-09  0.274E-04    3.21      70.2  T
     SCC iter.                  ...        0 min,  0.017 sec
     gradient                   ...        0 min,  0.003 sec
 * total energy  :   -35.4266672 Eh     change       -0.2635348E-04 Eh
   gradient norm :     0.0006851 Eh/α   predicted    -0.9096970E-05 ( -65.48%)
   displ. norm   :     0.0714225 α      lambda       -0.1566204E-04
   maximum displ.:     0.0693406 α      in ANC's #2, #4, #8, ...

........................................................................
.............................. CYCLE   33 ..............................
........................................................................
   1    -36.0703958 -0.360704E+02  0.207E-02    3.21       0.0  T
   2    -36.0703958 -0.410394E-07  0.121E-02    3.21       1.6  T
   3    -36.0703958  0.626843E-07  0.194E-03    3.21       9.9  T
   4    -36.0703958 -0.851648E-07  0.356E-04    3.21      54.1  T
   5    -36.0703958  0.107150E-10  0.200E-04    3.21      96.2  T
     SCC iter.                  ...        0 min,  0.016 sec
     gradient                   ...        0 min,  0.002 sec
 * total energy  :   -35.4266901 Eh     change       -0.2290183E-04 Eh
   gradient norm :     0.0006300 Eh/α   predicted    -0.7852804E-05 ( -65.71%)
   displ. norm   :     0.0680705 α      lambda       -0.1556404E-04
   maximum displ.:     0.0658995 α      in ANC's #2, #8, #4, ...

........................................................................
.............................. CYCLE   34 ..............................
........................................................................
   1    -36.0704317 -0.360704E+02  0.195E-02    3.21       0.0  T
   2    -36.0704317 -0.350037E-07  0.113E-02    3.21       1.7  T
   3    -36.0704317  0.498470E-07  0.176E-03    3.21      11.0  T
   4    -36.0704317 -0.683651E-07  0.330E-04    3.21      58.4  T
   5    -36.0704317 -0.631886E-10  0.179E-04    3.21     107.3  T
     SCC iter.                  ...        0 min,  0.015 sec
     gradient                   ...        0 min,  0.002 sec
 * total energy  :   -35.4267129 Eh     change       -0.2281760E-04 Eh
   gradient norm :     0.0005451 Eh/α   predicted    -0.7800495E-05 ( -65.81%)
   displ. norm   :     0.0734571 α      lambda       -0.1662300E-04
   maximum displ.:     0.0695367 α      in ANC's #2, #8, #1, ...

........................................................................
.............................. CYCLE   35 ..............................
........................................................................
   1    -36.0703957 -0.360704E+02  0.208E-02    3.21       0.0  T
   2    -36.0703957 -0.337355E-07  0.121E-02    3.21       1.6  T
   3    -36.0703957  0.351947E-07  0.154E-03    3.21      12.5  T
   4    -36.0703957 -0.525913E-07  0.337E-04    3.21      57.2  T
   5    -36.0703957 -0.216218E-10  0.170E-04    3.21     113.3  T
     SCC iter.                  ...        0 min,  0.015 sec
     gradient                   ...        0 min,  0.002 sec
 * total energy  :   -35.4267368 Eh     change       -0.2396827E-04 Eh
   gradient norm :     0.0004592 Eh/α   predicted    -0.8332265E-05 ( -65.24%)
   displ. norm   :     0.0830198 α      lambda       -0.1749550E-04
   maximum displ.:     0.0770851 α      in ANC's #2, #1, #8, ...

........................................................................
.............................. CYCLE   36 ..............................
........................................................................
   1    -36.0703412 -0.360703E+02  0.240E-02    3.21       0.0  T
   2    -36.0703413 -0.456859E-07  0.140E-02    3.21       1.4  T
   3    -36.0703412  0.476858E-07  0.180E-03    3.21      10.7  T
   4    -36.0703413 -0.711553E-07  0.389E-04    3.21      49.5  T
   5    -36.0703413 -0.131877E-10  0.195E-04    3.21      98.6  T
     SCC iter.                  ...        0 min,  0.015 sec
     gradient                   ...        0 min,  0.002 sec
 * total energy  :   -35.4267617 Eh     change       -0.2483306E-04 Eh
   gradient norm :     0.0003797 Eh/α   predicted    -0.8775831E-05 ( -64.66%)
   displ. norm   :     0.0876236 α      lambda       -0.1670623E-04
   maximum displ.:     0.0810182 α      in ANC's #2, #1, #8, ...

........................................................................
.............................. CYCLE   37 ..............................
........................................................................
   1    -36.0702929 -0.360703E+02  0.250E-02    3.21       0.0  T
   2    -36.0702929 -0.514907E-07  0.146E-02    3.21       1.3  T
   3    -36.0702928  0.564641E-07  0.194E-03    3.21       9.9  T
   4    -36.0702929 -0.822439E-07  0.409E-04    3.21      47.0  T
   5    -36.0702929 -0.182908E-09  0.207E-04    3.21      93.0  T
     SCC iter.                  ...        0 min,  0.015 sec
     gradient                   ...        0 min,  0.002 sec
 * total energy  :   -35.4267852 Eh     change       -0.2353590E-04 Eh
   gradient norm :     0.0003487 Eh/α   predicted    -0.8382998E-05 ( -64.38%)
   displ. norm   :     0.0882596 α      lambda       -0.1516703E-04
   maximum displ.:     0.0817856 α      in ANC's #2, #1, #8, ...

........................................................................
.............................. CYCLE   38 ..............................
........................................................................
   1    -36.0702701 -0.360703E+02  0.250E-02    3.21       0.0  T
   2    -36.0702701 -0.510285E-07  0.146E-02    3.21       1.3  T
   3    -36.0702701  0.613221E-07  0.200E-03    3.21       9.6  T
   4    -36.0702702 -0.886758E-07  0.411E-04    3.21      46.8  T
   5    -36.0702702  0.895781E-10  0.214E-04    3.21      89.8  T
     SCC iter.                  ...        0 min,  0.015 sec
     gradient                   ...        0 min,  0.002 sec
 * total energy  :   -35.4268068 Eh     change       -0.2162691E-04 Eh
   gradient norm :     0.0003858 Eh/α   predicted    -0.7614773E-05 ( -64.79%)
   displ. norm   :     0.0845239 α      lambda       -0.1345795E-04
   maximum displ.:     0.0788711 α      in ANC's #2, #1, #8, ...

........................................................................
.............................. CYCLE   39 ..............................
........................................................................
   1    -36.0702559 -0.360703E+02  0.237E-02    3.21       0.0  T
   2    -36.0702560 -0.515786E-07  0.138E-02    3.21       1.4  T
   3    -36.0702559  0.697685E-07  0.210E-03    3.21       9.2  T
   4    -36.0702560 -0.968417E-07  0.405E-04    3.21      47.5  T
   5    -36.0702560 -0.108599E-09  0.214E-04    3.21      89.9  T
     SCC iter.                  ...        0 min,  0.015 sec
     gradient                   ...        0 min,  0.002 sec
 * total energy  :   -35.4268260 Eh     change       -0.1918229E-04 Eh
   gradient norm :     0.0004422 Eh/α   predicted    -0.6751020E-05 ( -64.81%)
   displ. norm   :     0.0806247 α      lambda       -0.1212128E-04
   maximum displ.:     0.0760752 α      in ANC's #2, #1, #8, ...

........................................................................
.............................. CYCLE   40 ..............................
........................................................................
   1    -36.0702713 -0.360703E+02  0.225E-02    3.21       0.0  T
   2    -36.0702714 -0.468194E-07  0.131E-02    3.21       1.5  T
   3    -36.0702713  0.712400E-07  0.208E-03    3.21       9.2  T
   4    -36.0702714 -0.969670E-07  0.386E-04    3.21      49.8  T
   5    -36.0702714  0.499298E-10  0.214E-04    3.21      89.9  T
     SCC iter.                  ...        0 min,  0.014 sec
     gradient                   ...        0 min,  0.002 sec
 * total energy  :   -35.4268434 Eh     change       -0.1741675E-04 Eh
   gradient norm :     0.0004772 Eh/α   predicted    -0.6078890E-05 ( -65.10%)
   displ. norm   :     0.0804255 α      lambda       -0.1171934E-04
   maximum displ.:     0.0764346 α      in ANC's #2, #8, #4, ...

........................................................................
.............................. CYCLE   41 ..............................
........................................................................
   1    -36.0702960 -0.360703E+02  0.227E-02    3.21       0.0  T
   2    -36.0702960 -0.490592E-07  0.132E-02    3.21       1.5  T
   3    -36.0702960  0.741336E-07  0.213E-03    3.21       9.1  T
   4    -36.0702961 -0.100674E-06  0.393E-04    3.21      49.0  T
   5    -36.0702961 -0.102958E-10  0.217E-04    3.21      88.6  T
     SCC iter.                  ...        0 min,  0.014 sec
     gradient                   ...        0 min,  0.003 sec
 * total energy  :   -35.4268603 Eh     change       -0.1687089E-04 Eh
   gradient norm :     0.0004909 Eh/α   predicted    -0.5877276E-05 ( -65.16%)
   displ. norm   :     0.0843999 α      lambda       -0.1202941E-04
   maximum displ.:     0.0806288 α      in ANC's #2, #8, #4, ...

........................................................................
.............................. CYCLE   42 ..............................
........................................................................
   1    -36.0703248 -0.360703E+02  0.239E-02    3.21       0.0  T
   2    -36.0703249 -0.565403E-07  0.139E-02    3.21       1.4  T
   3    -36.0703248  0.991591E-07  0.241E-03    3.21       8.0  T
   4    -36.0703249 -0.130830E-06  0.417E-04    3.21      46.1  T
   5    -36.0703249  0.657394E-10  0.240E-04    3.21      80.1  T
     SCC iter.                  ...        0 min,  0.014 sec
     gradient                   ...        0 min,  0.002 sec
 * total energy  :   -35.4268776 Eh     change       -0.1727315E-04 Eh
   gradient norm :     0.0004905 Eh/α   predicted    -0.6038268E-05 ( -65.04%)
   displ. norm   :     0.0941021 α      lambda       -0.1300272E-04
   maximum displ.:     0.0897948 α      in ANC's #2, #8, #4, ...
 * RMSD in coord.:     0.3437495 α      energy gain  -0.4871264E-03 Eh

generating ANC from model Hessian ...
Using Lindh-Hessian (1995)
 Shifting diagonal of input Hessian by    8.7843557443860257E-003
 Lowest  eigenvalues of input Hessian
    0.000000    0.000000    0.000000    0.000000    0.000000    0.000000
    0.010000    0.010326    0.013318    0.014732    0.016033    0.019002
    0.019535    0.021532    0.022734    0.025493    0.029562    0.031246
 Highest eigenvalues
    1.781102    1.821173    1.887364    1.968933    2.029920    2.120498


........................................................................
.............................. CYCLE   43 ..............................
........................................................................
   1    -36.0703718 -0.360704E+02  0.269E-02    3.21       0.0  T
   2    -36.0703718 -0.685607E-07  0.157E-02    3.21       1.2  T
   3    -36.0703717  0.114127E-06  0.259E-03    3.21       7.4  T
   4    -36.0703719 -0.151839E-06  0.458E-04    3.21      42.0  T
   5    -36.0703719  0.504201E-10  0.262E-04    3.21      73.4  T
     SCC iter.                  ...        0 min,  0.014 sec
     gradient                   ...        0 min,  0.002 sec
 * total energy  :   -35.4268963 Eh     change       -0.1871189E-04 Eh
   gradient norm :     0.0004365 Eh/α   predicted     0.0000000E+00 (-100.00%)
   displ. norm   :     0.0302510 α      lambda       -0.4960498E-05
   maximum displ.:     0.0273660 α      in ANC's #2, #1, #3, ...

........................................................................
.............................. CYCLE   44 ..............................
........................................................................
   1    -36.0705562 -0.360706E+02  0.998E-03    3.21       0.0  T
   2    -36.0705562 -0.912281E-08  0.585E-03    3.21       3.3  T
   3    -36.0705562  0.966338E-08  0.789E-04    3.21      24.4  T
   4    -36.0705562 -0.141448E-07  0.175E-04    3.21     109.7  T
     SCC iter.                  ...        0 min,  0.011 sec
     gradient                   ...        0 min,  0.002 sec
 * total energy  :   -35.4269028 Eh     change       -0.6553638E-05 Eh
   gradient norm :     0.0002874 Eh/α   predicted    -0.2486100E-05 ( -62.07%)
   displ. norm   :     0.0477452 α      lambda       -0.6613697E-05
   maximum displ.:     0.0393158 α      in ANC's #2, #1, #3, ...

........................................................................
.............................. CYCLE   45 ..............................
........................................................................
   1    -36.0706640 -0.360707E+02  0.143E-02    3.21       0.0  T
   2    -36.0706640 -0.190410E-07  0.834E-03    3.21       2.3  T
   3    -36.0706640  0.405800E-07  0.150E-03    3.21      12.8  T
   4    -36.0706640 -0.516980E-07  0.234E-04    3.21      82.2  T
   5    -36.0706640  0.450768E-10  0.142E-04    3.21     135.9  T
     SCC iter.                  ...        0 min,  0.014 sec
     gradient                   ...        0 min,  0.002 sec
 * total energy  :   -35.4269121 Eh     change       -0.9262985E-05 Eh
   gradient norm :     0.0003807 Eh/α   predicted    -0.3311474E-05 ( -64.25%)
   displ. norm   :     0.0686413 α      lambda       -0.8578550E-05
   maximum displ.:     0.0545969 α      in ANC's #2, #1, #6, ...

........................................................................
.............................. CYCLE   46 ..............................
........................................................................
   1    -36.0705448 -0.360705E+02  0.204E-02    3.21       0.0  T
   2    -36.0705448 -0.383097E-07  0.119E-02    3.21       1.6  T
   3    -36.0705447  0.679543E-07  0.197E-03    3.21       9.7  T
   4    -36.0705448 -0.885032E-07  0.332E-04    3.21      57.9  T
   5    -36.0705448  0.376090E-10  0.195E-04    3.21      98.8  T
     SCC iter.                  ...        0 min,  0.014 sec
     gradient                   ...        0 min,  0.003 sec
 * total energy  :   -35.4269238 Eh     change       -0.1167137E-04 Eh
   gradient norm :     0.0002690 Eh/α   predicted    -0.4302346E-05 ( -63.14%)
   displ. norm   :     0.0755367 α      lambda       -0.8112211E-05
   maximum displ.:     0.0614114 α      in ANC's #2, #1, #6, ...

........................................................................
.............................. CYCLE   47 ..............................
........................................................................
   1    -36.0705404 -0.360705E+02  0.226E-02    3.21       0.0  T
   2    -36.0705404 -0.430886E-07  0.132E-02    3.21       1.5  T
   3    -36.0705404  0.802872E-07  0.215E-03    3.21       8.9  T
   4    -36.0705405 -0.104675E-06  0.362E-04    3.21      53.1  T
   5    -36.0705405  0.108088E-09  0.213E-04    3.21      90.5  T
     SCC iter.                  ...        0 min,  0.013 sec
     gradient                   ...        0 min,  0.002 sec
 * total energy  :   -35.4269346 Eh     change       -0.1080910E-04 Eh
   gradient norm :     0.0002379 Eh/α   predicted    -0.4067695E-05 ( -62.37%)
   displ. norm   :     0.0596785 α      lambda       -0.5549741E-05
   maximum displ.:     0.0509997 α      in ANC's #2, #1, #6, ...

........................................................................
.............................. CYCLE   48 ..............................
........................................................................
   1    -36.0705476 -0.360705E+02  0.182E-02    3.21       0.0  T
   2    -36.0705476 -0.283481E-07  0.106E-02    3.21       1.8  T
   3    -36.0705476  0.545947E-07  0.178E-03    3.21      10.8  T
   4    -36.0705477 -0.710834E-07  0.300E-04    3.21      64.2  T
   5    -36.0705477  0.964420E-10  0.174E-04    3.21     110.7  T
     SCC iter.                  ...        0 min,  0.013 sec
     gradient                   ...        0 min,  0.002 sec
 * total energy  :   -35.4269422 Eh     change       -0.7577069E-05 Eh
   gradient norm :     0.0002315 Eh/α   predicted    -0.2781498E-05 ( -63.29%)
   displ. norm   :     0.0399715 α      lambda       -0.3685447E-05
   maximum displ.:     0.0366546 α      in ANC's #2, #1, #6, ...

........................................................................
.............................. CYCLE   49 ..............................
........................................................................
   1    -36.0705825 -0.360706E+02  0.120E-02    3.21       0.0  T
   2    -36.0705826 -0.119719E-07  0.702E-03    3.21       2.7  T
   3    -36.0705825  0.208119E-07  0.111E-03    3.21      17.3  T
   4    -36.0705826 -0.276031E-07  0.193E-04    3.21      99.7  T
   5    -36.0705826  0.202576E-10  0.109E-04    3.21     176.3  T
     SCC iter.                  ...        0 min,  0.013 sec
     gradient                   ...        0 min,  0.002 sec
 * total energy  :   -35.4269475 Eh     change       -0.5287137E-05 Eh
   gradient norm :     0.0001933 Eh/α   predicted    -0.1847208E-05 ( -65.06%)
   displ. norm   :     0.0287867 α      lambda       -0.2913279E-05
   maximum displ.:     0.0278869 α      in ANC's #2, #4, #1, ...

........................................................................
.............................. CYCLE   50 ..............................
........................................................................
   1    -36.0706395 -0.360706E+02  0.849E-03    3.21       0.0  T
   2    -36.0706395 -0.610082E-08  0.496E-03    3.21       3.9  T
   3    -36.0706395  0.116164E-07  0.822E-04    3.21      23.4  T
   4    -36.0706395 -0.152200E-07  0.139E-04    3.21     138.9  T
     SCC iter.                  ...        0 min,  0.010 sec
     gradient                   ...        0 min,  0.002 sec
 * total energy  :   -35.4269517 Eh     change       -0.4274126E-05 Eh
   gradient norm :     0.0001844 Eh/α   predicted    -0.1460121E-05 ( -65.84%)
   displ. norm   :     0.0259060 α      lambda       -0.2792622E-05
   maximum displ.:     0.0250117 α      in ANC's #2, #4, #3, ...

   *** GEOMETRY OPTIMIZATION CONVERGED AFTER 50 ITERATIONS ***

------------------------------------------------------------------------
 total energy gain   :        -0.0055987 Eh       -3.5132 kcal/mol
 total RMSD          :         0.6528920 a0        0.3455 Å
 total power (kW/mol):        -0.2939870 (step)  -14.2623 (real)
------------------------------------------------------------------------

 ANCopt (total)                0 d,  0 h,  0 min,  1.031 sec
 optimizer setup                ...        0 min,  0.000 sec (  0.016%)
 model hessian                  ...        0 min,  0.024 sec (  2.363%)
 ANC generation                 ...        0 min,  0.007 sec (  0.708%)
 coordinate transformation      ...        0 min,  0.001 sec (  0.122%)
 single point calculation       ...        0 min,  0.982 sec ( 95.323%)
 optimization log               ...        0 min,  0.005 sec (  0.500%)
 hessian update                 ...        0 min,  0.002 sec (  0.152%)
 rational function              ...        0 min,  0.003 sec (  0.324%)

================
 final structure:
================
27
 xtb: 6.5.1 (fef0646)
N            1.18519558732480        0.78496379603656        0.28767155000284
C            2.41534077396644       -0.01733684629254        0.00345221947989
C            3.46194804675545        0.89063758441248       -0.63013849835054
C            2.91340866348549       -0.65527626090019        1.28042603207691
C            2.94093643748986       -2.05929182015977        1.38718369902574
C            3.39151806039329       -2.66465558236054        2.52597652299172
C            3.34386884106194        0.10995225973968        2.33508473387794
C            3.81850339962650       -0.48382514325328        3.52097578161453
C            3.84145602491583       -1.89950773550014        3.62204081111096
C            4.31823819029892       -2.49249981282182        4.80941970729685
C            4.75767571901424       -1.71778169746178        5.84637153779624
C            4.73909198504268       -0.31683568659501        5.74469980467720
C            4.27768228888246        0.28783059714213        4.60950696446005
H            0.84900786273243        1.23737491352853       -0.57113088067167
H            1.39853294349115        1.51509137312949        0.97778148517814
H            0.43961302006877        0.18939172595936        0.66626789065858
H            2.14666342566837       -0.80652621491701       -0.70280503803028
H            3.72319622195009        1.71324003112968        0.02835962054107
H            3.10913358167368        1.28963004274608       -1.57665878571488
H            4.36783887939745        0.32469146473501       -0.82454173216604
H            2.60797958484114       -2.66297078663442        0.55664723438180
H            3.41249784867222       -3.74161303738508        2.60474931445852
H            3.35216628415083        1.18849332620799        2.28653378190233
H            4.33282711594503       -3.57041982938945        4.88513003189745
H            5.12440498345787       -2.17712128177244        6.75265461276804
H            5.09432335492641        0.27578486002903        6.57480848322463
H            4.26560087476713        1.36516976064860        4.53354311551261

 Bond Distances (Angstroems)
 ---------------------------
N1-C2=1.4959         N1-H14=1.0272        N1-H15=1.0271        N1-H16=1.0266        C2-N1=1.4959         C2-C3=1.5236         
C2-C4=1.5119         C2-H17=1.0926        C3-C2=1.5236         C3-H18=1.0856        C3-H19=1.0861        C3-H20=1.0857        
C4-C2=1.5119         C4-C5=1.4083         C4-C7=1.3723         C5-C4=1.4083         C5-C6=1.3661         C5-H21=1.0794        
C6-C5=1.3661         C6-C9=1.4104         C6-H22=1.0800        C7-C4=1.3723         C7-C8=1.4086         C7-H23=1.0797        
C8-C7=1.4086         C8-C9=1.4195         C8-C13=1.4111        C9-C6=1.4104         C9-C8=1.4195         C9-C10=1.4103        
C10-C9=1.4103        C10-C11=1.3670       C10-H24=1.0807       C11-C10=1.3670       C11-C12=1.4048       C11-H25=1.0802       
C12-C11=1.4048       C12-C13=1.3664       C12-H26=1.0800       C13-C8=1.4111        C13-C12=1.3664       C13-H27=1.0801       
H14-N1=1.0272        H15-N1=1.0271        H16-N1=1.0266        H17-C2=1.0926        H18-C3=1.0856        H19-C3=1.0861        
H20-C3=1.0857        H21-C5=1.0794        H22-C6=1.0800        H23-C7=1.0797        H24-C10=1.0807       H25-C11=1.0802       
H26-C12=1.0800       H27-C13=1.0801       
 C  H  Rav=1.0827 sigma=0.0040  Rmin=1.0794  Rmax=1.0926    11
 C  C  Rav=1.4139 sigma=0.0483  Rmin=1.3661  Rmax=1.5236    13
 N  H  Rav=1.0270 sigma=0.0003  Rmin=1.0266  Rmax=1.0272     3
 N  C  Rav=1.4959 sigma=0.0000  Rmin=1.4959  Rmax=1.4959     1

 selected bond angles (degree)
 --------------------
H14-N1-C2=110.27               H15-N1-C2=109.76               H15-N1-H14=108.46              H16-N1-C2=110.86               
H16-N1-H14=109.03              H16-N1-H15=108.39              C3-C2-N1=108.92                C4-C2-N1=109.68                
C4-C2-C3=112.11                H17-C2-N1=107.94               H17-C2-C3=109.30               H17-C2-C4=108.80               
H18-C3-C2=111.39               H19-C3-C2=110.99               H19-C3-H18=109.17              H20-C3-C2=109.69               
H20-C3-H18=107.63              H20-C3-H19=107.85              C5-C4-C2=119.41                C7-C4-C2=121.14                
C7-C4-C5=119.44                C6-C5-C4=120.76                H21-C5-C4=119.55               H21-C5-C6=119.69               
C9-C6-C5=120.84                H22-C6-C5=120.60               H22-C6-C9=118.56               C8-C7-C4=121.18                
H23-C7-C4=121.66               H23-C7-C8=117.15               C9-C8-C7=119.06                C13-C8-C7=121.91               
C13-C8-C9=119.03               C8-C9-C6=118.72                C10-C9-C6=122.28               C10-C9-C8=119.00               
C11-C10-C9=120.60              H24-C10-C9=118.88              H24-C10-C11=120.52             

 selected dihedral angles (degree)
 ---------------------------------
C3-C2-N1-H14= 55.88           C3-C2-N1-H15=296.45           C3-C2-N1-H16=176.74           C4-C2-N1-H14=178.92           
C4-C2-N1-H15= 59.49           C4-C2-N1-H16=299.78           H17-C2-N1-H14=297.31          H17-C2-N1-H15=177.88          
H17-C2-N1-H16= 58.16          H18-C3-C2-N1= 59.88           H18-C3-C2-C4=298.31           H18-C3-C2-H17=177.59          
H19-C3-C2-N1=298.01           H19-C3-C2-C4=176.44           H19-C3-C2-H17= 55.72          H20-C3-C2-N1=178.93           
H20-C3-C2-C4= 57.36           H20-C3-C2-H17=296.64          C5-C4-C2-N1=116.89            C5-C4-C2-C3=238.03            
C5-C4-C2-H17=359.04           C7-C4-C2-N1=296.64            C7-C4-C2-C3= 57.77            C7-C4-C2-H17=178.78           
C6-C5-C4-C2=179.69            C6-C5-C4-C7=359.94            H21-C5-C4-C2=  0.09           H21-C5-C4-C7=180.34           
C9-C6-C5-C4=359.93            C9-C6-C5-H21=179.53           H22-C6-C5-C4=180.06           H22-C6-C5-H21=359.66          
C8-C7-C4-C2=180.54            C8-C7-C4-C5=  0.28            H23-C7-C4-C2=359.33           H23-C7-C4-C5=179.07           
C9-C8-C7-C4=359.63            C9-C8-C7-H23=180.79           C13-C8-C7-C4=179.33           C13-C8-C7-H23=  0.49          
C8-C9-C6-C5=359.97            C8-C9-C6-H22=179.85           C10-C9-C6-C5=180.29           C10-C9-C6-H22=  0.16          
C6-C9-C8-C7=  0.24            C6-C9-C8-C13=180.53           C10-C9-C8-C7=179.93           C10-C9-C8-C13=  0.22          
C11-C10-C9-C6=179.40          C11-C10-C9-C8=359.71          H24-C10-C9-C6=359.55          H24-C10-C9-C8=179.87          
           -------------------------------------------------
          |                Final Singlepoint                |
           -------------------------------------------------

          ...................................................
          :                      SETUP                      :
          :.................................................:
          :  # basis functions                  66          :
          :  # atomic orbitals                  66          :
          :  # shells                           40          :
          :  # electrons                        66          :
          :  max. iterations                   250          :
          :  Hamiltonian                  GFN2-xTB          :
          :  restarted?                      false          :
          :  GBSA solvation                   true          :
          :  PC potential                    false          :
          :  electronic temp.          300.0000000     K    :
          :  accuracy                    1.0000000          :
          :  -> integral cutoff          0.2500000E+02      :
          :  -> integral neglect         0.1000000E-07      :
          :  -> SCF convergence          0.1000000E-05 Eh   :
          :  -> wf. convergence          0.1000000E-03 e    :
          :  Broyden damping             0.4000000          :
          ...................................................

 iter      E             dE          RMSdq      gap      omega  full diag
   1    -36.0706395 -0.360706E+02  0.789E-05    3.21       0.0  T
   2    -36.0706395 -0.373035E-10  0.529E-05    3.21     363.7  T
   3    -36.0706395 -0.388169E-10  0.245E-05    3.21     784.6  T

   *** convergence criteria satisfied after 3 iterations ***

         #    Occupation            Energy/Eh            Energy/eV
      -------------------------------------------------------------
         1        2.0000           -0.6965388             -18.9538
       ...           ...                  ...                  ...
        27        2.0000           -0.4514223             -12.2838
        28        2.0000           -0.4431646             -12.0591
        29        2.0000           -0.4297469             -11.6940
        30        2.0000           -0.4219084             -11.4807
        31        2.0000           -0.4168694             -11.3436
        32        2.0000           -0.4040163             -10.9938
        33        2.0000           -0.3828425             -10.4177 (HOMO)
        34                         -0.2650369              -7.2120 (LUMO)
        35                         -0.2346610              -6.3855
        36                         -0.1935455              -5.2666
        37                         -0.1537186              -4.1829
        38                         -0.0656976              -1.7877
       ...                                ...                  ...
        66                          0.6926641              18.8483
      -------------------------------------------------------------
                  HL-Gap            0.1178057 Eh            3.2057 eV
             Fermi-level           -0.3239397 Eh           -8.8148 eV

 SCC (total)                   0 d,  0 h,  0 min,  0.012 sec
 SCC setup                      ...        0 min,  0.000 sec (  1.517%)
 Dispersion                     ...        0 min,  0.000 sec (  2.351%)
 classical contributions        ...        0 min,  0.000 sec (  0.330%)
 integral evaluation            ...        0 min,  0.001 sec (  6.286%)
 iterations                     ...        0 min,  0.008 sec ( 65.914%)
 molecular gradient             ...        0 min,  0.002 sec ( 18.137%)
 printout                       ...        0 min,  0.001 sec (  4.266%)

         :::::::::::::::::::::::::::::::::::::::::::::::::::::
         ::                     SUMMARY                     ::
         :::::::::::::::::::::::::::::::::::::::::::::::::::::
         :: total energy             -35.426951726159 Eh    ::
         :: total w/o Gsasa/hb       -35.415960757973 Eh    ::
         :: gradient norm              0.000184940084 Eh/a0 ::
         :: HOMO-LUMO gap              3.205654947417 eV    ::
         ::.................................................::
         :: SCC energy               -36.070639509472 Eh    ::
         :: -> isotropic ES            0.121871414396 Eh    ::
         :: -> anisotropic ES         -0.015726976244 Eh    ::
         :: -> anisotropic XC          0.024595474328 Eh    ::
         :: -> dispersion             -0.023989039121 Eh    ::
         :: -> Gsolv                  -0.113898575206 Eh    ::
         ::    -> Gelec               -0.102907607020 Eh    ::
         ::    -> Gsasa               -0.002136593951 Eh    ::
         ::    -> Ghb                 -0.009935133933 Eh    ::
         ::    -> Gshift               0.001080759698 Eh    ::
         :: repulsion energy           0.643612180799 Eh    ::
         :: add. restraining           0.000000000000 Eh    ::
         :: total charge               1.000000000000 e     ::
         :::::::::::::::::::::::::::::::::::::::::::::::::::::

           -------------------------------------------------
          |                Property Printout                |
           -------------------------------------------------

    * Orbital Energies and Occupations

         #    Occupation            Energy/Eh            Energy/eV
      -------------------------------------------------------------
         1        2.0000           -0.6965388             -18.9538
       ...           ...                  ...                  ...
        21        2.0000           -0.4839158             -13.1680
        22        2.0000           -0.4815311             -13.1031
        23        2.0000           -0.4756913             -12.9442
        24        2.0000           -0.4712205             -12.8226
        25        2.0000           -0.4642226             -12.6321
        26        2.0000           -0.4546035             -12.3704
        27        2.0000           -0.4514223             -12.2838
        28        2.0000           -0.4431646             -12.0591
        29        2.0000           -0.4297469             -11.6940
        30        2.0000           -0.4219084             -11.4807
        31        2.0000           -0.4168694             -11.3436
        32        2.0000           -0.4040163             -10.9938
        33        2.0000           -0.3828425             -10.4177 (HOMO)
        34                         -0.2650369              -7.2120 (LUMO)
        35                         -0.2346610              -6.3855
        36                         -0.1935455              -5.2666
        37                         -0.1537186              -4.1829
        38                         -0.0656976              -1.7877
        39                         -0.0409312              -1.1138
        40                          0.0483744               1.3163
        41                          0.0613494               1.6694
        42                          0.0966570               2.6302
        43                          0.1052649               2.8644
        44                          0.1102186               2.9992
       ...                                ...                  ...
        66                          0.6926641              18.8483
      -------------------------------------------------------------
                  HL-Gap            0.1178057 Eh            3.2057 eV
             Fermi-level           -0.3239397 Eh           -8.8148 eV

     #   Z          covCN         q      C6AA      α(0)
     1   7 N        3.486    -0.170    24.660     7.375
     2   6 C        3.786     0.027    20.136     6.392
     3   6 C        3.756    -0.150    23.454     6.905
     4   6 C        2.968     0.002    27.970     8.675
     5   6 C        2.919    -0.046    29.137     8.852
     6   6 C        2.917    -0.037    28.910     8.817
     7   6 C        2.922    -0.049    29.226     8.865
     8   6 C        2.986     0.012    27.740     8.640
     9   6 C        2.987     0.011    27.765     8.643
    10   6 C        2.918    -0.039    28.972     8.827
    11   6 C        2.916    -0.033    28.816     8.803
    12   6 C        2.916    -0.034    28.837     8.806
    13   6 C        2.918    -0.042    29.050     8.839
    14   1 H        0.859     0.316     0.668     1.280
    15   1 H        0.859     0.303     0.705     1.316
    16   1 H        0.859     0.310     0.685     1.296
    17   1 H        0.924     0.105     1.737     2.061
    18   1 H        0.925     0.077     2.010     2.217
    19   1 H        0.925     0.079     1.989     2.206
    20   1 H        0.925     0.070     2.083     2.257
    21   1 H        0.926     0.054     2.267     2.355
    22   1 H        0.926     0.034     2.526     2.486
    23   1 H        0.926     0.067     2.122     2.278
    24   1 H        0.926     0.030     2.586     2.515
    25   1 H        0.926     0.025     2.661     2.551
    26   1 H        0.926     0.029     2.596     2.520
    27   1 H        0.926     0.048     2.351     2.398

 Mol. C6AA /au·bohr⁶  :       7524.078198
 Mol. C8AA /au·bohr⁸  :     182341.247604
 Mol. α(0) /au        :        138.172237


Wiberg/Mayer (AO) data.
largest (>0.10) Wiberg bond orders for each atom

 ---------------------------------------------------------------------------
     #   Z sym  total        # sym  WBO       # sym  WBO       # sym  WBO
 ---------------------------------------------------------------------------
     1   7 N    3.648 --     2 C    0.939    16 H    0.890    15 H    0.890
                            14 H    0.885
     2   6 C    3.935 --     3 C    1.005     4 C    0.994    17 H    0.957
                             1 N    0.939
     3   6 C    3.980 --     2 C    1.005    19 H    0.978    18 H    0.978
                            20 H    0.978
     4   6 C    3.987 --     7 C    1.523     5 C    1.300     2 C    0.994
     5   6 C    3.989 --     6 C    1.557     4 C    1.300    21 H    0.966
     6   6 C    3.991 --     5 C    1.557     9 C    1.280    22 H    0.968
                             7 C    0.117
     7   6 C    3.989 --     4 C    1.523     8 C    1.285    23 H    0.959
                             6 C    0.117
     8   6 C    3.990 --     7 C    1.285    13 C    1.276     9 C    1.250
     9   6 C    3.990 --     6 C    1.280    10 C    1.279     8 C    1.250
    10   6 C    3.991 --    11 C    1.558     9 C    1.279    24 H    0.969
                            13 C    0.119
    11   6 C    3.990 --    10 C    1.558    12 C    1.319    25 H    0.971
    12   6 C    3.992 --    13 C    1.559    11 C    1.319    26 H    0.971
    13   6 C    3.988 --    12 C    1.559     8 C    1.276    27 H    0.967
                            10 C    0.119
    14   1 H    0.900 --     1 N    0.885
    15   1 H    0.908 --     1 N    0.890
    16   1 H    0.904 --     1 N    0.890
    17   1 H    0.989 --     2 C    0.957
    18   1 H    0.994 --     3 C    0.978
    19   1 H    0.993 --     3 C    0.978
    20   1 H    0.995 --     3 C    0.978
    21   1 H    0.997 --     5 C    0.966
    22   1 H    0.998 --     6 C    0.968
    23   1 H    0.995 --     7 C    0.959
    24   1 H    0.999 --    10 C    0.969
    25   1 H    0.999 --    11 C    0.971
    26   1 H    0.999 --    12 C    0.971
    27   1 H    0.997 --    13 C    0.967
 ---------------------------------------------------------------------------

Topologies differ in total number of bonds
Writing topology from bond orders to xtbtopo.mol

molecular dipole:
                 x           y           z       tot (Debye)
 q only:        2.523       1.590       0.291
   full:        2.574       1.470       0.571       7.673
molecular quadrupole (traceless):
                xx          xy          yy          xz          yz          zz
 q only:        4.822       6.971       0.471       0.446       2.622      -5.293
  q+dip:       -0.962       5.414       2.337       8.054       1.238      -1.375
   full:        2.709       5.118       0.094       5.576       0.980      -2.803

           -------------------------------------------------
          |                Geometry Summary                 |
           -------------------------------------------------

      molecular mass/u    :      172.2467045
   center of mass at/Å    :        3.4385938      -0.7270796       2.6210372
  moments of inertia/u·Å² :        0.2656322E+03   0.1056656E+04   0.1213777E+04
rotational constants/cm⁻¹ :        0.6346232E-01   0.1595375E-01   0.1388857E-01

 * 27 selected distances

     #   Z          #   Z                                           value/Å
     1   7 N        2   6 C                                       1.4959026
     2   6 C        3   6 C                                       1.5235623 (max)
     4   6 C        5   6 C                                       1.4083377
     5   6 C        6   6 C                                       1.3661400
     4   6 C        7   6 C                                       1.3722886
     7   6 C        8   6 C                                       1.4086119
     6   6 C        9   6 C                                       1.4104087
     8   6 C        9   6 C                                       1.4194712
     9   6 C       10   6 C                                       1.4102588
    10   6 C       11   6 C                                       1.3669539
    11   6 C       12   6 C                                       1.4047536
     8   6 C       13   6 C                                       1.4110983
    12   6 C       13   6 C                                       1.3664492
     1   7 N       14   1 H                                       1.0272487
     1   7 N       15   1 H                                       1.0270594
     1   7 N       16   1 H                                       1.0266133 (min)
     2   6 C       17   1 H                                       1.0926147
     3   6 C       18   1 H                                       1.0856083
     3   6 C       19   1 H                                       1.0860819
     3   6 C       20   1 H                                       1.0856915
     5   6 C       21   1 H                                       1.0793885
     6   6 C       22   1 H                                       1.0800384
     7   6 C       23   1 H                                       1.0796653
    10   6 C       24   1 H                                       1.0806742
    11   6 C       25   1 H                                       1.0802002
    12   6 C       26   1 H                                       1.0800320
    13   6 C       27   1 H                                       1.0800816

 * 4 distinct bonds (by element types)

   Z      Z             #   av. dist./Å        max./Å        min./Å
   1 H    6 C          11     1.0827342     1.0926147     1.0793885
   6 C    6 C          12     1.4056945     1.5235623     1.3661400
   1 H    7 N           3     1.0269738     1.0272487     1.0266133
   6 C    7 N           1     1.4959026     1.4959026     1.4959026


optimized geometry written to: xtbopt.xyz


           -------------------------------------------------
          | TOTAL ENERGY              -35.426951726159 Eh   |
          | GRADIENT NORM               0.000184940084 Eh/α |
          | HOMO-LUMO GAP               3.205654947417 eV   |
           -------------------------------------------------

------------------------------------------------------------------------
 * finished run on 2023/01/24 at 14:58:15.961     
------------------------------------------------------------------------
 total:
 * wall-time:     0 d,  0 h,  0 min,  1.115 sec
 *  cpu-time:     0 d,  0 h,  1 min, 42.837 sec
 * ratio c/w:    92.198 speedup
 SCF:
 * wall-time:     0 d,  0 h,  0 min,  0.047 sec
 *  cpu-time:     0 d,  0 h,  0 min,  6.627 sec
 * ratio c/w:   139.900 speedup
 ANC optimizer:
 * wall-time:     0 d,  0 h,  0 min,  1.044 sec
 *  cpu-time:     0 d,  0 h,  1 min, 33.085 sec
 * ratio c/w:    89.183 speedup

