      -----------------------------------------------------------      
     |                   =====================                   |     
     |                           x T B                           |     
     |                   =====================                   |     
     |                         S. Grimme                         |     
     |          Mulliken Center for Theoretical Chemistry        |     
     |                    University of Bonn                     |     
      -----------------------------------------------------------      

   * xtb version 6.5.1 (fef0646) compiled by 'conda@b96dff2e9fd6' on 2023-01-04

   xtb is free software: you can redistribute it and/or modify it under
   the terms of the GNU Lesser General Public License as published by
   the Free Software Foundation, either version 3 of the License, or
   (at your option) any later version.
   
   xtb is distributed in the hope that it will be useful,
   but WITHOUT ANY WARRANTY; without even the implied warranty of
   MERCHANTABILITY or FITNESS FOR A PARTICULAR PURPOSE.  See the
   GNU Lesser General Public License for more details.
   
   Cite this work as:
   * C. Bannwarth, E. Caldeweyher, S. Ehlert, A. Hansen, P. Pracht,
     J. Seibert, S. Spicher, S. Grimme, WIREs Comput. Mol. Sci., 2020, 11,
     e01493. DOI: 10.1002/wcms.1493
   
   for GFN2-xTB:
   * C. Bannwarth, S. Ehlert and S. Grimme., J. Chem. Theory Comput., 2019,
     15, 1652-1671. DOI: 10.1021/acs.jctc.8b01176
   for GFN1-xTB:
   * S. Grimme, C. Bannwarth, P. Shushkov, J. Chem. Theory Comput., 2017,
     13, 1989-2009. DOI: 10.1021/acs.jctc.7b00118
   for GFN0-xTB:
   * P. Pracht, E. Caldeweyher, S. Ehlert, S. Grimme, ChemRxiv, 2019, preprint.
     DOI: 10.26434/chemrxiv.8326202.v1
   for GFN-FF:
   * S. Spicher and S. Grimme, Angew. Chem. Int. Ed., 2020, 59, 15665-15673.
     DOI: 10.1002/anie.202004239
   
   for ALPB and GBSA implicit solvation:
   * S. Ehlert, M. Stahn, S. Spicher, S. Grimme, J. Chem. Theory Comput.,
     2021, 17, 4250-4261. DOI: 10.1021/acs.jctc.1c00471
   
   for DFT-D4:
   * E. Caldeweyher, C. Bannwarth and S. Grimme, J. Chem. Phys., 2017,
     147, 034112. DOI: 10.1063/1.4993215
   * E. Caldeweyher, S. Ehlert, A. Hansen, H. Neugebauer, S. Spicher,
     C. Bannwarth and S. Grimme, J. Chem. Phys., 2019, 150, 154122.
     DOI: 10.1063/1.5090222
   * E. Caldeweyher, J.-M. Mewes, S. Ehlert and S. Grimme, Phys. Chem. Chem. Phys.
     2020, 22, 8499-8512. DOI: 10.1039/D0CP00502A
   
   for sTDA-xTB:
   * S. Grimme and C. Bannwarth, J. Chem. Phys., 2016, 145, 054103.
     DOI: 10.1063/1.4959605
   
   in the mass-spec context:
   * V. Asgeirsson, C. Bauer and S. Grimme, Chem. Sci., 2017, 8, 4879.
     DOI: 10.1039/c7sc00601b
   * J. Koopman and S. Grimme, ACS Omega 2019, 4, 12, 15120-15133.
     DOI: 10.1021/acsomega.9b02011
   
   for metadynamics refer to:
   * S. Grimme, J. Chem. Theory Comput., 2019, 155, 2847-2862
     DOI: 10.1021/acs.jctc.9b00143
   
   for SPH calculations refer to:
   * S. Spicher and S. Grimme, J. Chem. Theory Comput., 2021, 17, 1701-1714
     DOI: 10.1021/acs.jctc.0c01306
   
   with help from (in alphabetical order)
   P. Atkinson, C. Bannwarth, F. Bohle, G. Brandenburg, E. Caldeweyher
   M. Checinski, S. Dohm, S. Ehlert, S. Ehrlich, I. Gerasimov, C. Hölzer
   A. Katbashev, J. Koopman, C. Lavigne, S. Lehtola, F. März, M. Müller,
   F. Musil, H. Neugebauer, J. Pisarek, C. Plett, P. Pracht, F. Pultar,
   J. Seibert, P. Shushkov, S. Spicher, M. Stahn, M. Steiner, T. Strunk,
   J. Stückrath, T. Rose, and J. Unsleber
   
 * started run on 2023/01/24 at 16:54:01.638     

           -------------------------------------------------
          |                Calculation Setup                |
           -------------------------------------------------

          program call               : xtb init.xyz --opt -c 0 -u 0 -P 16 --alpb water
          hostname                   : gpg-woodward
          coordinate file            : init.xyz
          omp threads                :                    16

   ID    Z sym.   atoms
    1    7 N      1
    2    6 C      2-9
    3   17 Cl     10
    4    1 H      11-22

molecular fragmentation (1/2 indicates fragments):
1111111112111111111111
# atoms in fragment 1/2:    21     1
 fragment masses (1/2) :      122.19       35.45
CMA distance (Bohr)    :   8.508
constraining FC (au)   :  0.0500

           -------------------------------------------------
          |                 G F N 2 - x T B                 |
           -------------------------------------------------

        Reference                      10.1021/acs.jctc.8b01176
      * Hamiltonian:
        H0-scaling (s, p, d)           1.850000    2.230000    2.230000
        zeta-weighting                 0.500000
      * Dispersion:
        s8                             2.700000
        a1                             0.520000
        a2                             5.000000
        s9                             5.000000
      * Repulsion:
        kExp                           1.500000    1.000000
        rExp                           1.000000
      * Coulomb:
        alpha                          2.000000
        third order                    shell-resolved
        anisotropic                    true
        a3                             3.000000
        a5                             4.000000
        cn-shift                       1.200000
        cn-exp                         4.000000
        max-rad                        5.000000

      * Solvation model:               ALPB
        Solvent                        water
        Parameter file                 internal GFN2-xTB/ALPB
        Dielectric constant                8.0200E+01
        Reference state                gsolv [1 M gas/solution]
        Free energy shift                  1.0808E-03 Eh       6.7819E-01 kcal/mol
        Temperature                        2.9815E+02 K
        Density                            1.0000E+00 kg/L
        Solvent mass                       1.8000E+01 g/mol
        Interaction kernel             P16
        Born radius scaling (c1)           1.4744E+00
        Born radii integrator          GBOBC
        Born offset                        0.0000E+00 a0       0.0000E+00 AA
        H-bond correction              true
        Ion screening                  false
        Surface tension                    1.0000E-05 Eh       1.5569E+01 dyn/cm
        Grid points                               230 per atom

          ...................................................
          :                      SETUP                      :
          :.................................................:
          :  # basis functions                  58          :
          :  # atomic orbitals                  57          :
          :  # shells                           33          :
          :  # electrons                        56          :
          :  max. iterations                   250          :
          :  Hamiltonian                  GFN2-xTB          :
          :  restarted?                      false          :
          :  GBSA solvation                   true          :
          :  PC potential                    false          :
          :  electronic temp.          300.0000000     K    :
          :  accuracy                    1.0000000          :
          :  -> integral cutoff          0.2500000E+02      :
          :  -> integral neglect         0.1000000E-07      :
          :  -> SCF convergence          0.1000000E-05 Eh   :
          :  -> wf. convergence          0.1000000E-03 e    :
          :  Broyden damping             0.4000000          :
          ...................................................

 iter      E             dE          RMSdq      gap      omega  full diag
   1    -31.0782577 -0.310783E+02  0.413E+00    4.65       0.0  T
   2    -31.1575032 -0.792455E-01  0.235E+00    4.65       1.0  T
   3    -31.1615478 -0.404459E-02  0.112E+00    4.61       1.0  T
   4    -31.1625179 -0.970032E-03  0.366E-01    4.62       1.0  T
   5    -31.1632028 -0.684898E-03  0.271E-01    4.62       1.0  T
   6    -31.1636075 -0.404740E-03  0.166E-01    4.63       1.0  T
   7    -31.1638012 -0.193661E-03  0.814E-02    4.62       1.0  T
   8    -31.1638547 -0.534925E-04  0.305E-02    4.62       1.0  T
   9    -31.1638594 -0.471428E-05  0.152E-02    4.62       1.4  T
  10    -31.1638605 -0.110404E-05  0.295E-03    4.62       7.2  T
  11    -31.1638605 -0.514849E-07  0.156E-03    4.62      13.7  T
  12    -31.1638605 -0.629653E-08  0.866E-04    4.62      24.6  T
  13    -31.1638605 -0.418946E-08  0.373E-04    4.62      57.2  T

   *** convergence criteria satisfied after 13 iterations ***

         #    Occupation            Energy/Eh            Energy/eV
      -------------------------------------------------------------
         1        2.0000           -1.0090394             -27.4574
       ...           ...                  ...                  ...
        22        2.0000           -0.4232232             -11.5165
        23        2.0000           -0.4190250             -11.4023
        24        2.0000           -0.4040611             -10.9951
        25        2.0000           -0.4031953             -10.9715
        26        2.0000           -0.4028059             -10.9609
        27        2.0000           -0.4000591             -10.8862
        28        2.0000           -0.3973176             -10.8116 (HOMO)
        29                         -0.2275931              -6.1931 (LUMO)
        30                         -0.2234134              -6.0794
        31                         -0.1023479              -2.7850
        32                         -0.0149937              -0.4080
        33                          0.0671444               1.8271
       ...                                ...                  ...
        57                          0.6313043              17.1787
      -------------------------------------------------------------
                  HL-Gap            0.1697245 Eh            4.6184 eV
             Fermi-level           -0.3124553 Eh           -8.5023 eV

 SCC (total)                   0 d,  0 h,  0 min,  0.049 sec
 SCC setup                      ...        0 min,  0.001 sec (  2.012%)
 Dispersion                     ...        0 min,  0.001 sec (  1.186%)
 classical contributions        ...        0 min,  0.000 sec (  0.464%)
 integral evaluation            ...        0 min,  0.001 sec (  2.996%)
 iterations                     ...        0 min,  0.041 sec ( 83.720%)
 molecular gradient             ...        0 min,  0.004 sec (  8.845%)
 printout                       ...        0 min,  0.000 sec (  0.327%)

         :::::::::::::::::::::::::::::::::::::::::::::::::::::
         ::                     SUMMARY                     ::
         :::::::::::::::::::::::::::::::::::::::::::::::::::::
         :: total energy             -30.735679652397 Eh    ::
         :: total w/o Gsasa/hb       -30.729731676954 Eh    ::
         :: gradient norm              0.045944043618 Eh/a0 ::
         :: HOMO-LUMO gap              4.618437875488 eV    ::
         ::.................................................::
         :: SCC energy               -31.163860533474 Eh    ::
         :: -> isotropic ES            0.108354024820 Eh    ::
         :: -> anisotropic ES         -0.028143384968 Eh    ::
         :: -> anisotropic XC          0.009742600340 Eh    ::
         :: -> dispersion             -0.017019077334 Eh    ::
         :: -> Gsolv                  -0.061085647785 Eh    ::
         ::    -> Gelec               -0.055137672341 Eh    ::
         ::    -> Gsasa               -0.001606278269 Eh    ::
         ::    -> Ghb                 -0.005422456872 Eh    ::
         ::    -> Gshift               0.001080759698 Eh    ::
         :: repulsion energy           0.428021627176 Eh    ::
         :: add. restraining           0.000000000000 Eh    ::
         :: total charge              -0.000000000000 e     ::
         :::::::::::::::::::::::::::::::::::::::::::::::::::::

      ----------------------------------------------------------- 
     |                   =====================                   |
     |                        A N C O P T                        |
     |                   =====================                   |
     |               Approximate Normal Coordinate               |
     |                Rational Function Optimizer                |
      ----------------------------------------------------------- 

          ...................................................
          :                      SETUP                      :
          :.................................................:
          :   optimization level            normal          :
          :   max. optcycles                   200          :
          :   ANC micro-cycles                  20          :
          :   degrees of freedom                60          :
          :.................................................:
          :   RF solver                   davidson          :
          :   write xtbopt.log                true          :
          :   linear?                        false          :
          :   energy convergence         0.5000000E-05 Eh   :
          :   grad. convergence          0.1000000E-02 Eh/α :
          :   maximium RF displ.         1.0000000          :
          :   Hlow (freq-cutoff)         0.1000000E-01      :
          :   Hmax (freq-cutoff)         5.0000000          :
          :   S6 in model hess.         20.0000000          :
          ...................................................

generating ANC from model Hessian ...
Using Lindh-Hessian (1995)
 Shifting diagonal of input Hessian by    9.4686016329270564E-003
 Lowest  eigenvalues of input Hessian
    0.000000    0.000000    0.000000    0.000000    0.000000    0.000000
    0.010000    0.010395    0.011877    0.012046    0.015851    0.019317
    0.020034    0.021839    0.023476    0.023822    0.030764    0.032734
 Highest eigenvalues
    1.518450    1.546929    1.627183    1.826065    1.930809    1.943672


........................................................................
.............................. CYCLE    1 ..............................
........................................................................
   1    -31.1638605 -0.311639E+02  0.214E-04    4.62       0.0  T
   2    -31.1638605 -0.156977E-09  0.170E-04    4.62     125.7  T
   3    -31.1638605 -0.768736E-10  0.129E-04    4.62     164.9  T
     SCC iter.                  ...        0 min,  0.010 sec
     gradient                   ...        0 min,  0.005 sec
 * total energy  :   -30.7356797 Eh     change       -0.7751240E-09 Eh
   gradient norm :     0.0459448 Eh/α   predicted     0.0000000E+00 (-100.00%)
   displ. norm   :     0.4194445 α      lambda       -0.9056062E-02
   maximum displ.:     0.1830740 α      in ANC's #12, #14, #3, ...

........................................................................
.............................. CYCLE    2 ..............................
........................................................................
   1    -31.1872764 -0.311873E+02  0.208E-01    4.73       0.0  T
   2    -31.1873343 -0.579186E-04  0.117E-01    4.73       1.0  T
   3    -31.1873405 -0.622835E-05  0.287E-02    4.73       1.0  T
   4    -31.1873417 -0.117080E-05  0.119E-02    4.73       1.8  T
   5    -31.1873424 -0.700136E-06  0.831E-03    4.73       2.6  T
   6    -31.1873427 -0.328194E-06  0.468E-03    4.73       4.6  T
   7    -31.1873429 -0.120600E-06  0.294E-03    4.73       7.3  T
   8    -31.1873429 -0.546903E-07  0.117E-03    4.73      18.2  T
   9    -31.1873429 -0.123575E-07  0.408E-04    4.73      52.2  T
  10    -31.1873429 -0.702585E-09  0.178E-04    4.73     119.5  T
     SCC iter.                  ...        0 min,  0.026 sec
     gradient                   ...        0 min,  0.003 sec
 * total energy  :   -30.7411037 Eh     change       -0.5424053E-02 Eh
   gradient norm :     0.0287153 Eh/α   predicted    -0.5324921E-02 (  -1.83%)
   displ. norm   :     0.2221079 α      lambda       -0.2127183E-02
   maximum displ.:     0.1135913 α      in ANC's #2, #3, #14, ...

........................................................................
.............................. CYCLE    3 ..............................
........................................................................
   1    -31.1973644 -0.311974E+02  0.927E-02    4.76       0.0  T
   2    -31.1973735 -0.902678E-05  0.534E-02    4.76       1.0  T
   3    -31.1973749 -0.142038E-05  0.144E-02    4.76       1.5  T
   4    -31.1973762 -0.132339E-05  0.848E-03    4.76       2.5  T
   5    -31.1973764 -0.239122E-06  0.559E-03    4.76       3.8  T
   6    -31.1973766 -0.168740E-06  0.317E-03    4.76       6.7  T
   7    -31.1973767 -0.537655E-07  0.195E-03    4.76      10.9  T
   8    -31.1973767 -0.215766E-07  0.831E-04    4.76      25.7  T
   9    -31.1973767 -0.644590E-08  0.206E-04    4.76     103.3  T
     SCC iter.                  ...        0 min,  0.015 sec
     gradient                   ...        0 min,  0.002 sec
 * total energy  :   -30.7425106 Eh     change       -0.1406894E-02 Eh
   gradient norm :     0.0133395 Eh/α   predicted    -0.1116061E-02 ( -20.67%)
   displ. norm   :     0.2767658 α      lambda       -0.9470902E-03
   maximum displ.:     0.1876990 α      in ANC's #2, #3, #4, ...

........................................................................
.............................. CYCLE    4 ..............................
........................................................................
   1    -31.1982556 -0.311983E+02  0.684E-02    4.76       0.0  T
   2    -31.1982606 -0.490519E-05  0.415E-02    4.76       1.0  T
   3    -31.1982629 -0.238720E-05  0.154E-02    4.75       1.4  T
   4    -31.1982641 -0.111260E-05  0.113E-02    4.75       1.9  T
   5    -31.1982647 -0.624894E-06  0.593E-03    4.75       3.6  T
   6    -31.1982649 -0.270174E-06  0.280E-03    4.75       7.6  T
   7    -31.1982650 -0.327318E-07  0.126E-03    4.75      16.9  T
   8    -31.1982650 -0.999601E-08  0.364E-04    4.75      58.6  T
   9    -31.1982650 -0.829029E-09  0.148E-04    4.75     144.1  T
     SCC iter.                  ...        0 min,  0.011 sec
     gradient                   ...        0 min,  0.002 sec
 * total energy  :   -30.7431621 Eh     change       -0.6514861E-03 Eh
   gradient norm :     0.0097151 Eh/α   predicted    -0.5098269E-03 ( -21.74%)
   displ. norm   :     0.2514926 α      lambda       -0.5354231E-03
   maximum displ.:     0.1676660 α      in ANC's #2, #3, #4, ...

........................................................................
.............................. CYCLE    5 ..............................
........................................................................
   1    -31.1973666 -0.311974E+02  0.546E-02    4.74       0.0  T
   2    -31.1973692 -0.258670E-05  0.346E-02    4.74       1.0  T
   3    -31.1973710 -0.182036E-05  0.140E-02    4.74       1.5  T
   4    -31.1973720 -0.992254E-06  0.104E-02    4.74       2.1  T
   5    -31.1973726 -0.640913E-06  0.447E-03    4.74       4.8  T
   6    -31.1973728 -0.133708E-06  0.187E-03    4.74      11.4  T
   7    -31.1973728 -0.234717E-07  0.759E-04    4.74      28.1  T
   8    -31.1973728 -0.176030E-08  0.264E-04    4.74      80.9  T
     SCC iter.                  ...        0 min,  0.009 sec
     gradient                   ...        0 min,  0.002 sec
 * total energy  :   -30.7435910 Eh     change       -0.4289536E-03 Eh
   gradient norm :     0.0079123 Eh/α   predicted    -0.2846655E-03 ( -33.64%)
   displ. norm   :     0.3966339 α      lambda       -0.6899724E-03
   maximum displ.:     0.2474626 α      in ANC's #2, #3, #12, ...

........................................................................
.............................. CYCLE    6 ..............................
........................................................................
   1    -31.1961963 -0.311962E+02  0.823E-02    4.74       0.0  T
   2    -31.1962032 -0.690967E-05  0.534E-02    4.73       1.0  T
   3    -31.1962074 -0.417517E-05  0.239E-02    4.73       1.0  T
   4    -31.1962109 -0.346765E-05  0.169E-02    4.73       1.3  T
   5    -31.1962125 -0.161361E-05  0.845E-03    4.73       2.5  T
   6    -31.1962129 -0.413784E-06  0.315E-03    4.73       6.8  T
   7    -31.1962130 -0.108548E-06  0.919E-04    4.73      23.2  T
   8    -31.1962130 -0.107247E-08  0.318E-04    4.73      67.0  T
     SCC iter.                  ...        0 min,  0.009 sec
     gradient                   ...        0 min,  0.002 sec
 * total energy  :   -30.7441427 Eh     change       -0.5516765E-03 Eh
   gradient norm :     0.0085333 Eh/α   predicted    -0.3992598E-03 ( -27.63%)
   displ. norm   :     0.4655721 α      lambda       -0.6621348E-03
   maximum displ.:     0.2700846 α      in ANC's #2, #3, #12, ...

........................................................................
.............................. CYCLE    7 ..............................
........................................................................
   1    -31.1957133 -0.311957E+02  0.914E-02    4.73       0.0  T
   2    -31.1957244 -0.111641E-04  0.614E-02    4.73       1.0  T
   3    -31.1957295 -0.509952E-05  0.318E-02    4.73       1.0  T
   4    -31.1957369 -0.738887E-05  0.207E-02    4.73       1.0  T
   5    -31.1957392 -0.232774E-05  0.107E-02    4.73       2.0  T
   6    -31.1957399 -0.629367E-06  0.406E-03    4.73       5.2  T
   7    -31.1957401 -0.194491E-06  0.845E-04    4.73      25.2  T
   8    -31.1957401 -0.606494E-09  0.333E-04    4.73      64.0  T
     SCC iter.                  ...        0 min,  0.009 sec
     gradient                   ...        0 min,  0.002 sec
 * total energy  :   -30.7446509 Eh     change       -0.5081534E-03 Eh
   gradient norm :     0.0105685 Eh/α   predicted    -0.4028296E-03 ( -20.73%)
   displ. norm   :     0.5048345 α      lambda       -0.6832496E-03
   maximum displ.:     0.2757019 α      in ANC's #2, #3, #12, ...

........................................................................
.............................. CYCLE    8 ..............................
........................................................................
   1    -31.1961867 -0.311962E+02  0.939E-02    4.73       0.0  T
   2    -31.1962019 -0.152674E-04  0.650E-02    4.73       1.0  T
   3    -31.1962073 -0.540358E-05  0.381E-02    4.73       1.0  T
   4    -31.1962188 -0.114823E-04  0.227E-02    4.73       1.0  T
   5    -31.1962215 -0.269869E-05  0.120E-02    4.73       1.8  T
   6    -31.1962223 -0.758898E-06  0.475E-03    4.73       4.5  T
   7    -31.1962225 -0.256354E-06  0.822E-04    4.73      25.9  T
   8    -31.1962225 -0.636788E-09  0.339E-04    4.73      62.8  T
     SCC iter.                  ...        0 min,  0.009 sec
     gradient                   ...        0 min,  0.002 sec
 * total energy  :   -30.7451226 Eh     change       -0.4717632E-03 Eh
   gradient norm :     0.0097762 Eh/α   predicted    -0.4286932E-03 (  -9.13%)
   displ. norm   :     0.2156127 α      lambda       -0.3547189E-03
   maximum displ.:     0.1193173 α      in ANC's #12, #11, #2, ...

........................................................................
.............................. CYCLE    9 ..............................
........................................................................
   1    -31.1981682 -0.311982E+02  0.541E-02    4.74       0.0  T
   2    -31.1981754 -0.722589E-05  0.335E-02    4.74       1.0  T
   3    -31.1981763 -0.882528E-06  0.175E-02    4.74       1.2  T
   4    -31.1981780 -0.169451E-05  0.103E-02    4.74       2.1  T
   5    -31.1981786 -0.612264E-06  0.684E-03    4.74       3.1  T
   6    -31.1981788 -0.228776E-06  0.322E-03    4.74       6.6  T
   7    -31.1981789 -0.106399E-06  0.950E-04    4.74      22.4  T
   8    -31.1981789 -0.312494E-08  0.215E-04    4.74      99.3  T
     SCC iter.                  ...        0 min,  0.009 sec
     gradient                   ...        0 min,  0.002 sec
 * total energy  :   -30.7453180 Eh     change       -0.1953441E-03 Eh
   gradient norm :     0.0056327 Eh/α   predicted    -0.1856479E-03 (  -4.96%)
   displ. norm   :     0.2518056 α      lambda       -0.1656976E-03
   maximum displ.:     0.1644539 α      in ANC's #2, #3, #12, ...

........................................................................
.............................. CYCLE   10 ..............................
........................................................................
   1    -31.1981742 -0.311982E+02  0.474E-02    4.74       0.0  T
   2    -31.1981784 -0.419898E-05  0.327E-02    4.74       1.0  T
   3    -31.1981800 -0.155969E-05  0.187E-02    4.74       1.1  T
   4    -31.1981825 -0.257450E-05  0.114E-02    4.74       1.9  T
   5    -31.1981833 -0.737188E-06  0.626E-03    4.74       3.4  T
   6    -31.1981835 -0.191062E-06  0.249E-03    4.74       8.6  T
   7    -31.1981835 -0.704877E-07  0.534E-04    4.74      39.9  T
   8    -31.1981835 -0.499842E-09  0.235E-04    4.74      90.8  T
     SCC iter.                  ...        0 min,  0.009 sec
     gradient                   ...        0 min,  0.002 sec
 * total energy  :   -30.7454159 Eh     change       -0.9797079E-04 Eh
   gradient norm :     0.0026915 Eh/α   predicted    -0.8810971E-04 ( -10.07%)
   displ. norm   :     0.0946118 α      lambda       -0.5200545E-04
   maximum displ.:     0.0637749 α      in ANC's #2, #1, #12, ...

........................................................................
.............................. CYCLE   11 ..............................
........................................................................
   1    -31.1984970 -0.311985E+02  0.258E-02    4.74       0.0  T
   2    -31.1984973 -0.288267E-06  0.159E-02    4.74       1.3  T
   3    -31.1984974 -0.122875E-06  0.476E-03    4.74       4.5  T
   4    -31.1984976 -0.186405E-06  0.344E-03    4.74       6.2  T
   5    -31.1984977 -0.792004E-07  0.108E-03    4.74      19.7  T
   6    -31.1984977 -0.631813E-08  0.449E-04    4.74      47.5  T
   7    -31.1984977 -0.150798E-08  0.171E-04    4.74     124.6  T
     SCC iter.                  ...        0 min,  0.008 sec
     gradient                   ...        0 min,  0.002 sec
 * total energy  :   -30.7454538 Eh     change       -0.3788789E-04 Eh
   gradient norm :     0.0020894 Eh/α   predicted    -0.2623686E-04 ( -30.75%)
   displ. norm   :     0.0866891 α      lambda       -0.3966474E-04
   maximum displ.:     0.0540420 α      in ANC's #2, #4, #1, ...

........................................................................
.............................. CYCLE   12 ..............................
........................................................................
   1    -31.1984916 -0.311985E+02  0.371E-02    4.74       0.0  T
   2    -31.1984918 -0.127683E-06  0.217E-02    4.74       1.0  T
   3    -31.1984918 -0.112098E-07  0.256E-03    4.74       8.3  T
   4    -31.1984919 -0.692622E-07  0.147E-03    4.74      14.5  T
   5    -31.1984919 -0.790560E-08  0.899E-04    4.74      23.7  T
   6    -31.1984919 -0.484852E-08  0.504E-04    4.74      42.3  T
     SCC iter.                  ...        0 min,  0.007 sec
     gradient                   ...        0 min,  0.002 sec
 * total energy  :   -30.7454802 Eh     change       -0.2636676E-04 Eh
   gradient norm :     0.0017623 Eh/α   predicted    -0.1998650E-04 ( -24.20%)
   displ. norm   :     0.1110697 α      lambda       -0.2016427E-04
   maximum displ.:     0.0689710 α      in ANC's #2, #4, #3, ...

........................................................................
.............................. CYCLE   13 ..............................
........................................................................
   1    -31.1982802 -0.311983E+02  0.502E-02    4.74       0.0  T
   2    -31.1982803 -0.167249E-06  0.294E-02    4.74       1.0  T
   3    -31.1982803  0.648846E-07  0.328E-03    4.74       6.5  T
   4    -31.1982804 -0.155625E-06  0.144E-03    4.74      14.8  T
   5    -31.1982804 -0.660203E-08  0.970E-04    4.74      22.0  T
   6    -31.1982804 -0.466940E-08  0.566E-04    4.74      37.7  T
     SCC iter.                  ...        0 min,  0.007 sec
     gradient                   ...        0 min,  0.002 sec
 * total energy  :   -30.7455005 Eh     change       -0.2031216E-04 Eh
   gradient norm :     0.0017127 Eh/α   predicted    -0.1013917E-04 ( -50.08%)
   displ. norm   :     0.1263505 α      lambda       -0.2178505E-04
   maximum displ.:     0.0758924 α      in ANC's #2, #3, #4, ...

........................................................................
.............................. CYCLE   14 ..............................
........................................................................
   1    -31.1981606 -0.311982E+02  0.556E-02    4.74       0.0  T
   2    -31.1981608 -0.208974E-06  0.327E-02    4.74       1.0  T
   3    -31.1981607  0.789558E-07  0.360E-03    4.74       5.9  T
   4    -31.1981609 -0.182933E-06  0.162E-03    4.74      13.2  T
   5    -31.1981609 -0.880071E-08  0.112E-03    4.74      19.0  T
   6    -31.1981609 -0.551830E-08  0.682E-04    4.74      31.3  T
   7    -31.1981609 -0.382360E-08  0.270E-04    4.74      79.1  T
     SCC iter.                  ...        0 min,  0.008 sec
     gradient                   ...        0 min,  0.002 sec
 * total energy  :   -30.7455260 Eh     change       -0.2544576E-04 Eh
   gradient norm :     0.0014991 Eh/α   predicted    -0.1097177E-04 ( -56.88%)
   displ. norm   :     0.1805445 α      lambda       -0.2590575E-04
   maximum displ.:     0.1262550 α      in ANC's #2, #3, #4, ...

........................................................................
.............................. CYCLE   15 ..............................
........................................................................
   1    -31.1980039 -0.311980E+02  0.738E-02    4.74       0.0  T
   2    -31.1980045 -0.558742E-06  0.437E-02    4.74       1.0  T
   3    -31.1980044  0.323970E-07  0.663E-03    4.74       3.2  T
   4    -31.1980049 -0.490706E-06  0.404E-03    4.74       5.3  T
   5    -31.1980050 -0.719738E-07  0.236E-03    4.74       9.0  T
   6    -31.1980051 -0.388993E-07  0.103E-03    4.74      20.7  T
   7    -31.1980051 -0.863097E-08  0.361E-04    4.74      59.0  T
   8    -31.1980051 -0.287681E-09  0.122E-04    4.74     174.4  T
     SCC iter.                  ...        0 min,  0.009 sec
     gradient                   ...        0 min,  0.002 sec
 * total energy  :   -30.7455512 Eh     change       -0.2528913E-04 Eh
   gradient norm :     0.0013337 Eh/α   predicted    -0.1314257E-04 ( -48.03%)
   displ. norm   :     0.0758854 α      lambda       -0.1030324E-04
   maximum displ.:     0.0585681 α      in ANC's #3, #2, #6, ...

........................................................................
.............................. CYCLE   16 ..............................
........................................................................
   1    -31.1983632 -0.311984E+02  0.336E-02    4.74       0.0  T
   2    -31.1983633 -0.124833E-06  0.197E-02    4.74       1.1  T
   3    -31.1983632  0.394726E-07  0.241E-03    4.74       8.9  T
   4    -31.1983633 -0.796927E-07  0.103E-03    4.74      20.7  T
   5    -31.1983633 -0.406420E-08  0.758E-04    4.74      28.1  T
   6    -31.1983633 -0.240134E-08  0.462E-04    4.74      46.2  T
     SCC iter.                  ...        0 min,  0.007 sec
     gradient                   ...        0 min,  0.002 sec
 * total energy  :   -30.7455627 Eh     change       -0.1146817E-04 Eh
   gradient norm :     0.0008878 Eh/α   predicted    -0.5167615E-05 ( -54.94%)
   displ. norm   :     0.0960646 α      lambda       -0.9633085E-05
   maximum displ.:     0.0747466 α      in ANC's #2, #3, #12, ...

........................................................................
.............................. CYCLE   17 ..............................
........................................................................
   1    -31.1984508 -0.311985E+02  0.396E-02    4.74       0.0  T
   2    -31.1984511 -0.266782E-06  0.235E-02    4.74       1.0  T
   3    -31.1984511  0.146841E-08  0.456E-03    4.74       4.7  T
   4    -31.1984513 -0.219773E-06  0.286E-03    4.74       7.4  T
   5    -31.1984513 -0.359595E-07  0.180E-03    4.74      11.8  T
   6    -31.1984513 -0.213288E-07  0.651E-04    4.74      32.7  T
   7    -31.1984513 -0.432667E-08  0.212E-04    4.74     100.5  T
     SCC iter.                  ...        0 min,  0.008 sec
     gradient                   ...        0 min,  0.002 sec
 * total energy  :   -30.7455734 Eh     change       -0.1069064E-04 Eh
   gradient norm :     0.0007933 Eh/α   predicted    -0.4844822E-05 ( -54.68%)
   displ. norm   :     0.1064635 α      lambda       -0.1006703E-04
   maximum displ.:     0.0729518 α      in ANC's #3, #2, #4, ...

........................................................................
.............................. CYCLE   18 ..............................
........................................................................
   1    -31.1983633 -0.311984E+02  0.479E-02    4.74       0.0  T
   2    -31.1983634 -0.150279E-06  0.282E-02    4.74       1.0  T
   3    -31.1983634  0.733375E-07  0.356E-03    4.74       6.0  T
   4    -31.1983635 -0.176364E-06  0.168E-03    4.74      12.7  T
   5    -31.1983635 -0.961987E-08  0.114E-03    4.74      18.7  T
   6    -31.1983636 -0.924401E-08  0.471E-04    4.74      45.3  T
   7    -31.1983636 -0.156580E-08  0.223E-04    4.74      95.5  T
     SCC iter.                  ...        0 min,  0.008 sec
     gradient                   ...        0 min,  0.002 sec
 * total energy  :   -30.7455846 Eh     change       -0.1121313E-04 Eh
   gradient norm :     0.0010539 Eh/α   predicted    -0.5061993E-05 ( -54.86%)
   displ. norm   :     0.1113858 α      lambda       -0.7893460E-05
   maximum displ.:     0.0743423 α      in ANC's #3, #2, #1, ...

........................................................................
.............................. CYCLE   19 ..............................
........................................................................
   1    -31.1983960 -0.311984E+02  0.494E-02    4.74       0.0  T
   2    -31.1983962 -0.146593E-06  0.290E-02    4.74       1.0  T
   3    -31.1983961  0.862426E-07  0.365E-03    4.74       5.8  T
   4    -31.1983963 -0.189510E-06  0.162E-03    4.74      13.2  T
   5    -31.1983963 -0.865001E-08  0.104E-03    4.74      20.4  T
   6    -31.1983963 -0.871138E-08  0.469E-04    4.74      45.4  T
   7    -31.1983963 -0.128017E-08  0.195E-04    4.74     109.5  T
     SCC iter.                  ...        0 min,  0.008 sec
     gradient                   ...        0 min,  0.003 sec
 * total energy  :   -30.7455934 Eh     change       -0.8823616E-05 Eh
   gradient norm :     0.0009625 Eh/α   predicted    -0.3972173E-05 ( -54.98%)
   displ. norm   :     0.1097747 α      lambda       -0.6129855E-05
   maximum displ.:     0.0779314 α      in ANC's #3, #2, #1, ...

........................................................................
.............................. CYCLE   20 ..............................
........................................................................
   1    -31.1982357 -0.311982E+02  0.488E-02    4.74       0.0  T
   2    -31.1982358 -0.124415E-06  0.286E-02    4.74       1.0  T
   3    -31.1982357  0.104490E-06  0.346E-03    4.74       6.2  T
   4    -31.1982359 -0.184031E-06  0.125E-03    4.74      17.1  T
   5    -31.1982359 -0.438913E-08  0.836E-04    4.74      25.5  T
   6    -31.1982359 -0.493533E-08  0.423E-04    4.74      50.4  T
     SCC iter.                  ...        0 min,  0.007 sec
     gradient                   ...        0 min,  0.002 sec
 * total energy  :   -30.7455996 Eh     change       -0.6147077E-05 Eh
   gradient norm :     0.0005086 Eh/α   predicted    -0.3084386E-05 ( -49.82%)
   displ. norm   :     0.0694376 α      lambda       -0.2879560E-05
   maximum displ.:     0.0476381 α      in ANC's #3, #2, #1, ...
 * RMSD in coord.:     0.6059979 α      energy gain  -0.9919939E-02 Eh

generating ANC from model Hessian ...
Using Lindh-Hessian (1995)
 Shifting diagonal of input Hessian by    9.7228300771130087E-003
 Lowest  eigenvalues of input Hessian
    0.000000    0.000000    0.000000    0.000000    0.000000    0.000000
    0.010000    0.010342    0.011946    0.012495    0.016489    0.020173
    0.020830    0.021643    0.024411    0.025321    0.033136    0.033799
 Highest eigenvalues
    1.448939    1.588257    1.617111    1.901974    2.007217    2.027686


........................................................................
.............................. CYCLE   21 ..............................
........................................................................
   1    -31.1983284 -0.311983E+02  0.303E-02    4.74       0.0  T
   2    -31.1983285 -0.519636E-07  0.178E-02    4.74       1.2  T
   3    -31.1983284  0.339752E-07  0.219E-03    4.74       9.7  T
   4    -31.1983285 -0.698968E-07  0.922E-04    4.74      23.1  T
   5    -31.1983285 -0.270944E-08  0.577E-04    4.74      36.9  T
     SCC iter.                  ...        0 min,  0.006 sec
     gradient                   ...        0 min,  0.002 sec
 * total energy  :   -30.7456026 Eh     change       -0.2985237E-05 Eh
   gradient norm :     0.0003654 Eh/α   predicted     0.0000000E+00 (-100.00%)
   displ. norm   :     0.0110269 α      lambda       -0.1651182E-06
   maximum displ.:     0.0053282 α      in ANC's #9, #4, #7, ...

   *** GEOMETRY OPTIMIZATION CONVERGED AFTER 21 ITERATIONS ***

------------------------------------------------------------------------
 total energy gain   :        -0.0099229 Eh       -6.2267 kcal/mol
 total RMSD          :         0.6059979 a0        0.3207 Å
 total power (kW/mol):        -1.2406017 (step)  -78.9150 (real)
------------------------------------------------------------------------

 ANCopt (total)                0 d,  0 h,  0 min,  0.330 sec
 optimizer setup                ...        0 min,  0.000 sec (  0.035%)
 model hessian                  ...        0 min,  0.028 sec (  8.478%)
 ANC generation                 ...        0 min,  0.003 sec (  0.818%)
 coordinate transformation      ...        0 min,  0.000 sec (  0.116%)
 single point calculation       ...        0 min,  0.291 sec ( 88.259%)
 optimization log               ...        0 min,  0.002 sec (  0.710%)
 hessian update                 ...        0 min,  0.001 sec (  0.172%)
 rational function              ...        0 min,  0.003 sec (  0.788%)

================
 final structure:
================
22
 xtb: 6.5.1 (fef0646)
N            1.19578773526086        0.38396514203425        0.18790495428826
C            2.66626842408128        0.21052172749792        0.06077100038248
C            3.37644270211646        1.24984795512574        0.92162953247791
C            3.04770884333700       -1.19606049701386        0.45354599722718
C            3.72407187931401       -2.01178133017457       -0.44207515053299
C            4.08435982457585       -3.29997908777301       -0.08743006136350
C            3.76894144243445       -3.78772599802954        1.16898558293417
C            3.09566665350423       -2.97978322093512        2.06945496001113
C            2.73904542407737       -1.69158955371781        1.71468281878040
Cl          -0.27329873830436       -1.60993121369369       -1.57241934941308
H            0.90987148958820        1.32066792338899       -0.10704124016807
H            0.89508326354570        0.22522710883403        1.15251487003848
H            0.68695481667208       -0.31179036393705       -0.41840473910762
H            2.92169718271646        0.35879126195424       -0.99107518379736
H            3.12588015335594        1.12101008656709        1.97008075498094
H            3.10896887035290        2.25508692930941        0.60960787865340
H            4.45092045416396        1.13617280284360        0.81761712635962
H            3.96348905647748       -1.64307113686067       -1.42837474528019
H            4.60522112036581       -3.92756249458670       -0.79570805316950
H            4.04410316823760       -4.79539735526731        1.44332744848411
H            2.84666905651179       -3.35800974409178        3.04970205324893
H            2.22243717761470       -1.07964894147409        2.43834354496506

 Bond Distances (Angstroems)
 ---------------------------
N1-C2=1.4861         N1-H11=1.0228        N1-H12=1.0228        N1-H13=1.0538        C2-N1=1.4861         C2-C3=1.5250         
C2-C4=1.5094         C2-H14=1.0925        C3-C2=1.5250         C3-H15=1.0856        C3-H16=1.0860        C3-H17=1.0855        
C4-C2=1.5094         C4-C5=1.3874         C4-C9=1.3897         C5-C4=1.3874         C5-C6=1.3838         C5-H18=1.0798        
C6-C5=1.3838         C6-C7=1.3842         C6-H19=1.0802        C7-C6=1.3842         C7-C8=1.3845         C7-H20=1.0800        
C8-C7=1.3845         C8-C9=1.3829         C8-H21=1.0798        C9-C4=1.3897         C9-C8=1.3829         C9-H22=1.0794        
H11-N1=1.0228        H12-N1=1.0228        H13-N1=1.0538        H14-C2=1.0925        H15-C3=1.0856        H16-C3=1.0860        
H17-C3=1.0855        H18-C5=1.0798        H19-C6=1.0802        H20-C7=1.0800        H21-C8=1.0798        H22-C9=1.0794        
 C  H  Rav=1.0832 sigma=0.0043  Rmin=1.0794  Rmax=1.0925     9
 C  C  Rav=1.4184 sigma=0.0572  Rmin=1.3829  Rmax=1.5250     8
 N  H  Rav=1.0332 sigma=0.0146  Rmin=1.0228  Rmax=1.0538     3
 N  C  Rav=1.4861 sigma=0.0000  Rmin=1.4861  Rmax=1.4861     1

 selected bond angles (degree)
 --------------------
H11-N1-C2=111.03               H12-N1-C2=110.70               H12-N1-H11=109.38              H13-N1-C2=110.58               
H13-N1-H11=107.68              H13-N1-H12=107.35              C3-C2-N1=109.45                C4-C2-N1=109.67                
C4-C2-C3=111.75                H14-C2-N1=107.33               H14-C2-C3=110.01               H14-C2-C4=108.54               
H15-C3-C2=110.90               H16-C3-C2=110.73               H16-C3-H15=109.30              H17-C3-C2=109.60               
H17-C3-H15=107.97              H17-C3-H16=108.25              C5-C4-C2=120.21                C9-C4-C2=120.82                
C9-C4-C5=118.98                C6-C5-C4=120.58                H18-C5-C4=119.80               H18-C5-C6=119.62               
C7-C6-C5=120.09                H19-C6-C5=119.89               H19-C6-C7=120.02               C8-C7-C6=119.70                
H20-C7-C6=120.09               H20-C7-C8=120.21               C9-C8-C7=120.14                H21-C8-C7=119.88               
H21-C8-C9=119.98               C8-C9-C4=120.51                H22-C9-C4=120.84               H22-C9-C8=118.66               

 selected dihedral angles (degree)
 ---------------------------------
C3-C2-N1-H11= 59.20           C3-C2-N1-H12=297.51           C3-C2-N1-H13=178.67           C4-C2-N1-H11=182.12           
C4-C2-N1-H12= 60.43           C4-C2-N1-H13=301.59           H14-C2-N1-H11=299.85          H14-C2-N1-H12=178.15          
H14-C2-N1-H13= 59.31          H15-C3-C2-N1= 61.82           H15-C3-C2-C4=300.15           H15-C3-C2-H14=179.52          
H16-C3-C2-N1=300.30           H16-C3-C2-C4=178.63           H16-C3-C2-H14= 58.00          H17-C3-C2-N1=180.95           
H17-C3-C2-C4= 59.27           H17-C3-C2-H14=298.64          C5-C4-C2-N1=122.47            C5-C4-C2-C3=244.02            
C5-C4-C2-H14=  5.50           C9-C4-C2-N1=301.97            C9-C4-C2-C3= 63.52            C9-C4-C2-H14=185.01           
C6-C5-C4-C2=179.63            C6-C5-C4-C9=  0.11            H18-C5-C4-C2=359.01           H18-C5-C4-C9=179.50           
C7-C6-C5-C4=  0.12            C7-C6-C5-H18=180.73           H19-C6-C5-C4=179.62           H19-C6-C5-H18=  0.23          
C8-C7-C6-C5=359.80            C8-C7-C6-H19=180.30           H20-C7-C6-C5=179.58           H20-C7-C6-H19=  0.08          
C9-C8-C7-C6=  0.05            C9-C8-C7-H20=180.27           H21-C8-C7-C6=179.89           H21-C8-C7-H20=  0.11          
C8-C9-C4-C2=180.22            C8-C9-C4-C5=359.73            H22-C9-C4-C2=359.87           H22-C9-C4-C5=179.38           
C4-C9-C8-C7=  0.19            C4-C9-C8-H21=180.34           H22-C9-C8-C7=180.53           H22-C9-C8-H21=  0.69          

 CMA Distance (Angstroems)
 ---------------------------
R(CMA):  3.9882
           -------------------------------------------------
          |                Final Singlepoint                |
           -------------------------------------------------

          ...................................................
          :                      SETUP                      :
          :.................................................:
          :  # basis functions                  58          :
          :  # atomic orbitals                  57          :
          :  # shells                           33          :
          :  # electrons                        56          :
          :  max. iterations                   250          :
          :  Hamiltonian                  GFN2-xTB          :
          :  restarted?                      false          :
          :  GBSA solvation                   true          :
          :  PC potential                    false          :
          :  electronic temp.          300.0000000     K    :
          :  accuracy                    1.0000000          :
          :  -> integral cutoff          0.2500000E+02      :
          :  -> integral neglect         0.1000000E-07      :
          :  -> SCF convergence          0.1000000E-05 Eh   :
          :  -> wf. convergence          0.1000000E-03 e    :
          :  Broyden damping             0.4000000          :
          ...................................................

 iter      E             dE          RMSdq      gap      omega  full diag
   1    -31.1983285 -0.311983E+02  0.298E-04    4.74       0.0  T
   2    -31.1983285 -0.229150E-09  0.230E-04    4.74      92.6  T
   3    -31.1983285 -0.134069E-09  0.163E-04    4.74     131.0  T

   *** convergence criteria satisfied after 3 iterations ***

         #    Occupation            Energy/Eh            Energy/eV
      -------------------------------------------------------------
         1        2.0000           -1.0057041             -27.3666
       ...           ...                  ...                  ...
        22        2.0000           -0.4229320             -11.5086
        23        2.0000           -0.4188915             -11.3986
        24        2.0000           -0.4037078             -10.9854
        25        2.0000           -0.4013542             -10.9214
        26        2.0000           -0.3996446             -10.8749
        27        2.0000           -0.3995829             -10.8732
        28        2.0000           -0.3979828             -10.8297 (HOMO)
        29                         -0.2238715              -6.0919 (LUMO)
        30                         -0.2198255              -5.9818
        31                         -0.0952124              -2.5909
        32                         -0.0197099              -0.5363
        33                          0.0734676               1.9992
       ...                                ...                  ...
        57                          0.6677510              18.1704
      -------------------------------------------------------------
                  HL-Gap            0.1741113 Eh            4.7378 eV
             Fermi-level           -0.3109272 Eh           -8.4608 eV

 SCC (total)                   0 d,  0 h,  0 min,  0.007 sec
 SCC setup                      ...        0 min,  0.000 sec (  3.096%)
 Dispersion                     ...        0 min,  0.000 sec (  2.511%)
 classical contributions        ...        0 min,  0.000 sec (  0.482%)
 integral evaluation            ...        0 min,  0.001 sec ( 12.148%)
 iterations                     ...        0 min,  0.004 sec ( 50.702%)
 molecular gradient             ...        0 min,  0.002 sec ( 28.010%)
 printout                       ...        0 min,  0.000 sec (  1.620%)

         :::::::::::::::::::::::::::::::::::::::::::::::::::::
         ::                     SUMMARY                     ::
         :::::::::::::::::::::::::::::::::::::::::::::::::::::
         :: total energy             -30.745602579916 Eh    ::
         :: total w/o Gsasa/hb       -30.739146297582 Eh    ::
         :: gradient norm              0.000365645722 Eh/a0 ::
         :: HOMO-LUMO gap              4.737809725136 eV    ::
         ::.................................................::
         :: SCC energy               -31.198328520001 Eh    ::
         :: -> isotropic ES            0.118883704723 Eh    ::
         :: -> anisotropic ES         -0.028111309795 Eh    ::
         :: -> anisotropic XC          0.009130644769 Eh    ::
         :: -> dispersion             -0.017799876557 Eh    ::
         :: -> Gsolv                  -0.070139122778 Eh    ::
         ::    -> Gelec               -0.063682840444 Eh    ::
         ::    -> Gsasa               -0.001570464331 Eh    ::
         ::    -> Ghb                 -0.005966577701 Eh    ::
         ::    -> Gshift               0.001080759698 Eh    ::
         :: repulsion energy           0.452547584498 Eh    ::
         :: add. restraining           0.000000000000 Eh    ::
         :: total charge               0.000000000000 e     ::
         :::::::::::::::::::::::::::::::::::::::::::::::::::::

           -------------------------------------------------
          |                Property Printout                |
           -------------------------------------------------

    * Orbital Energies and Occupations

         #    Occupation            Energy/Eh            Energy/eV
      -------------------------------------------------------------
         1        2.0000           -1.0057041             -27.3666
       ...           ...                  ...                  ...
        16        2.0000           -0.4832353             -13.1495
        17        2.0000           -0.4756985             -12.9444
        18        2.0000           -0.4745597             -12.9134
        19        2.0000           -0.4663962             -12.6913
        20        2.0000           -0.4614623             -12.5570
        21        2.0000           -0.4462127             -12.1421
        22        2.0000           -0.4229320             -11.5086
        23        2.0000           -0.4188915             -11.3986
        24        2.0000           -0.4037078             -10.9854
        25        2.0000           -0.4013542             -10.9214
        26        2.0000           -0.3996446             -10.8749
        27        2.0000           -0.3995829             -10.8732
        28        2.0000           -0.3979828             -10.8297 (HOMO)
        29                         -0.2238715              -6.0919 (LUMO)
        30                         -0.2198255              -5.9818
        31                         -0.0952124              -2.5909
        32                         -0.0197099              -0.5363
        33                          0.0734676               1.9992
        34                          0.0778347               2.1180
        35                          0.0925098               2.5173
        36                          0.1155874               3.1453
        37                          0.1175374               3.1984
        38                          0.1177664               3.2046
        39                          0.1200580               3.2669
       ...                                ...                  ...
        57                          0.6677510              18.1704
      -------------------------------------------------------------
                  HL-Gap            0.1741113 Eh            4.7378 eV
             Fermi-level           -0.3109272 Eh           -8.4608 eV

     #   Z          covCN         q      C6AA      α(0)
     1   7 N        3.486    -0.175    24.779     7.393
     2   6 C        3.787     0.034    20.016     6.372
     3   6 C        3.756    -0.145    23.359     6.891
     4   6 C        2.973     0.011    27.770     8.644
     5   6 C        2.925    -0.035    28.881     8.813
     6   6 C        2.919    -0.032    28.800     8.800
     7   6 C        2.920    -0.034    28.858     8.809
     8   6 C        2.919    -0.035    28.862     8.810
     9   6 C        2.924    -0.040    28.996     8.831
    10  17 Cl       0.063    -0.944   124.774    17.000
    11   1 H        0.859     0.302     0.707     1.317
    12   1 H        0.859     0.290     0.745     1.352
    13   1 H        0.919     0.293     0.729     1.335
    14   1 H        0.924     0.091     1.867     2.137
    15   1 H        0.925     0.076     2.025     2.225
    16   1 H        0.925     0.078     2.004     2.214
    17   1 H        0.925     0.072     2.066     2.248
    18   1 H        0.926     0.039     2.466     2.456
    19   1 H        0.926     0.029     2.601     2.522
    20   1 H        0.926     0.030     2.588     2.516
    21   1 H        0.926     0.039     2.459     2.452
    22   1 H        0.926     0.059     2.212     2.326

 Mol. C6AA /au·bohr⁶  :       5412.226846
 Mol. C8AA /au·bohr⁸  :     139771.088462
 Mol. α(0) /au        :        115.465410


Wiberg/Mayer (AO) data.
largest (>0.10) Wiberg bond orders for each atom

 ---------------------------------------------------------------------------
     #   Z sym  total        # sym  WBO       # sym  WBO       # sym  WBO
 ---------------------------------------------------------------------------
     1   7 N    3.643 --     2 C    0.945    12 H    0.896    11 H    0.893
                            13 H    0.828
     2   6 C    3.937 --     3 C    1.001     4 C    0.994    14 H    0.959
                             1 N    0.945
     3   6 C    3.982 --     2 C    1.001    17 H    0.979    15 H    0.979
                            16 H    0.979
     4   6 C    3.988 --     5 C    1.418     9 C    1.412     2 C    0.994
                             7 C    0.110
     5   6 C    3.992 --     6 C    1.442     4 C    1.418    18 H    0.968
                             8 C    0.111
     6   6 C    3.992 --     5 C    1.442     7 C    1.442    19 H    0.971
                             9 C    0.112
     7   6 C    3.992 --     6 C    1.442     8 C    1.437    20 H    0.972
                             4 C    0.110
     8   6 C    3.992 --     9 C    1.447     7 C    1.437    21 H    0.971
                             5 C    0.111
     9   6 C    3.990 --     8 C    1.447     4 C    1.412    22 H    0.963
                             6 C    0.112
    10  17 Cl   0.108
    11   1 H    0.908 --     1 N    0.893
    12   1 H    0.916 --     1 N    0.896
    13   1 H    0.914 --     1 N    0.828
    14   1 H    0.991 --     2 C    0.959
    15   1 H    0.994 --     3 C    0.979
    16   1 H    0.993 --     3 C    0.979
    17   1 H    0.995 --     3 C    0.979
    18   1 H    0.999 --     5 C    0.968
    19   1 H    0.999 --     6 C    0.971
    20   1 H    0.999 --     7 C    0.972
    21   1 H    0.998 --     8 C    0.971
    22   1 H    0.997 --     9 C    0.963
 ---------------------------------------------------------------------------

Topologies differ in total number of bonds
Writing topology from bond orders to xtbtopo.mol

molecular dipole:
                 x           y           z       tot (Debye)
 q only:        2.874       3.733       3.277
   full:        2.436       3.141       2.833      12.407
molecular quadrupole (traceless):
                xx          xy          yy          xz          yz          zz
 q only:       14.067       1.714      -7.492      -0.352     -12.524      -6.574
  q+dip:        7.426      -0.000      -3.564      -1.802      -9.995      -3.862
   full:        9.490       1.176      -4.330      -0.457      -9.387      -5.161

           -------------------------------------------------
          |                Geometry Summary                 |
           -------------------------------------------------

      molecular mass/u    :      157.6408170
   center of mass at/Å    :        2.2800184      -1.4126413       0.1589993
  moments of inertia/u·Å² :        0.4328607E+03   0.6609856E+03   0.9048872E+03
rotational constants/cm⁻¹ :        0.3894471E-01   0.2550378E-01   0.1862954E-01

 * 20 selected distances

     #   Z          #   Z                                           value/Å
     1   7 N        2   6 C                                       1.4861223
     2   6 C        3   6 C                                       1.5249998 (max)
     4   6 C        5   6 C                                       1.3874455
     5   6 C        6   6 C                                       1.3838477
     6   6 C        7   6 C                                       1.3841844
     7   6 C        8   6 C                                       1.3845273
     4   6 C        9   6 C                                       1.3897081
     8   6 C        9   6 C                                       1.3829263
     1   7 N       11   1 H                                       1.0228165
     1   7 N       12   1 H                                       1.0227871 (min)
     1   7 N       13   1 H                                       1.0538493
     2   6 C       14   1 H                                       1.0925238
     3   6 C       15   1 H                                       1.0856477
     3   6 C       16   1 H                                       1.0860043
     3   6 C       17   1 H                                       1.0854692
     5   6 C       18   1 H                                       1.0798402
     6   6 C       19   1 H                                       1.0801923
     7   6 C       20   1 H                                       1.0799904
     8   6 C       21   1 H                                       1.0797869
     9   6 C       22   1 H                                       1.0793704

 * 4 distinct bonds (by element types)

   Z      Z             #   av. dist./Å        max./Å        min./Å
   1 H    6 C           9     1.0832028     1.0925238     1.0793704
   6 C    6 C           7     1.4053770     1.5249998     1.3829263
   1 H    7 N           3     1.0331510     1.0538493     1.0227871
   6 C    7 N           1     1.4861223     1.4861223     1.4861223


optimized geometry written to: xtbopt.xyz


           -------------------------------------------------
          | TOTAL ENERGY              -30.745602579916 Eh   |
          | GRADIENT NORM               0.000365645722 Eh/α |
          | HOMO-LUMO GAP               4.737809725136 eV   |
           -------------------------------------------------

------------------------------------------------------------------------
 * finished run on 2023/01/24 at 16:54:02.065     
------------------------------------------------------------------------
 total:
 * wall-time:     0 d,  0 h,  0 min,  0.427 sec
 *  cpu-time:     0 d,  0 h,  0 min, 37.374 sec
 * ratio c/w:    87.624 speedup
 SCF:
 * wall-time:     0 d,  0 h,  0 min,  0.049 sec
 *  cpu-time:     0 d,  0 h,  0 min,  6.148 sec
 * ratio c/w:   125.403 speedup
 ANC optimizer:
 * wall-time:     0 d,  0 h,  0 min,  0.339 sec
 *  cpu-time:     0 d,  0 h,  0 min, 26.801 sec
 * ratio c/w:    79.113 speedup

