      -----------------------------------------------------------      
     |                   =====================                   |     
     |                           x T B                           |     
     |                   =====================                   |     
     |                         S. Grimme                         |     
     |          Mulliken Center for Theoretical Chemistry        |     
     |                    University of Bonn                     |     
      -----------------------------------------------------------      

   * xtb version 6.5.1 (fef0646) compiled by 'conda@b96dff2e9fd6' on 2023-01-04

   xtb is free software: you can redistribute it and/or modify it under
   the terms of the GNU Lesser General Public License as published by
   the Free Software Foundation, either version 3 of the License, or
   (at your option) any later version.
   
   xtb is distributed in the hope that it will be useful,
   but WITHOUT ANY WARRANTY; without even the implied warranty of
   MERCHANTABILITY or FITNESS FOR A PARTICULAR PURPOSE.  See the
   GNU Lesser General Public License for more details.
   
   Cite this work as:
   * C. Bannwarth, E. Caldeweyher, S. Ehlert, A. Hansen, P. Pracht,
     J. Seibert, S. Spicher, S. Grimme, WIREs Comput. Mol. Sci., 2020, 11,
     e01493. DOI: 10.1002/wcms.1493
   
   for GFN2-xTB:
   * C. Bannwarth, S. Ehlert and S. Grimme., J. Chem. Theory Comput., 2019,
     15, 1652-1671. DOI: 10.1021/acs.jctc.8b01176
   for GFN1-xTB:
   * S. Grimme, C. Bannwarth, P. Shushkov, J. Chem. Theory Comput., 2017,
     13, 1989-2009. DOI: 10.1021/acs.jctc.7b00118
   for GFN0-xTB:
   * P. Pracht, E. Caldeweyher, S. Ehlert, S. Grimme, ChemRxiv, 2019, preprint.
     DOI: 10.26434/chemrxiv.8326202.v1
   for GFN-FF:
   * S. Spicher and S. Grimme, Angew. Chem. Int. Ed., 2020, 59, 15665-15673.
     DOI: 10.1002/anie.202004239
   
   for ALPB and GBSA implicit solvation:
   * S. Ehlert, M. Stahn, S. Spicher, S. Grimme, J. Chem. Theory Comput.,
     2021, 17, 4250-4261. DOI: 10.1021/acs.jctc.1c00471
   
   for DFT-D4:
   * E. Caldeweyher, C. Bannwarth and S. Grimme, J. Chem. Phys., 2017,
     147, 034112. DOI: 10.1063/1.4993215
   * E. Caldeweyher, S. Ehlert, A. Hansen, H. Neugebauer, S. Spicher,
     C. Bannwarth and S. Grimme, J. Chem. Phys., 2019, 150, 154122.
     DOI: 10.1063/1.5090222
   * E. Caldeweyher, J.-M. Mewes, S. Ehlert and S. Grimme, Phys. Chem. Chem. Phys.
     2020, 22, 8499-8512. DOI: 10.1039/D0CP00502A
   
   for sTDA-xTB:
   * S. Grimme and C. Bannwarth, J. Chem. Phys., 2016, 145, 054103.
     DOI: 10.1063/1.4959605
   
   in the mass-spec context:
   * V. Asgeirsson, C. Bauer and S. Grimme, Chem. Sci., 2017, 8, 4879.
     DOI: 10.1039/c7sc00601b
   * J. Koopman and S. Grimme, ACS Omega 2019, 4, 12, 15120-15133.
     DOI: 10.1021/acsomega.9b02011
   
   for metadynamics refer to:
   * S. Grimme, J. Chem. Theory Comput., 2019, 155, 2847-2862
     DOI: 10.1021/acs.jctc.9b00143
   
   for SPH calculations refer to:
   * S. Spicher and S. Grimme, J. Chem. Theory Comput., 2021, 17, 1701-1714
     DOI: 10.1021/acs.jctc.0c01306
   
   with help from (in alphabetical order)
   P. Atkinson, C. Bannwarth, F. Bohle, G. Brandenburg, E. Caldeweyher
   M. Checinski, S. Dohm, S. Ehlert, S. Ehrlich, I. Gerasimov, C. Hölzer
   A. Katbashev, J. Koopman, C. Lavigne, S. Lehtola, F. März, M. Müller,
   F. Musil, H. Neugebauer, J. Pisarek, C. Plett, P. Pracht, F. Pultar,
   J. Seibert, P. Shushkov, S. Spicher, M. Stahn, M. Steiner, T. Strunk,
   J. Stückrath, T. Rose, and J. Unsleber
   
 * started run on 2023/01/24 at 15:16:06.259     

           -------------------------------------------------
          |                Calculation Setup                |
           -------------------------------------------------

          program call               : xtb init.xyz --opt -c 1 -u 0 -P 16 --alpb water
          hostname                   : gpg-woodward
          coordinate file            : init.xyz
          omp threads                :                    16

   ID    Z sym.   atoms
    1    7 N      1
    2    6 C      2-10
    3    1 H      11-22

           -------------------------------------------------
          |                 G F N 2 - x T B                 |
           -------------------------------------------------

        Reference                      10.1021/acs.jctc.8b01176
      * Hamiltonian:
        H0-scaling (s, p, d)           1.850000    2.230000    2.230000
        zeta-weighting                 0.500000
      * Dispersion:
        s8                             2.700000
        a1                             0.520000
        a2                             5.000000
        s9                             5.000000
      * Repulsion:
        kExp                           1.500000    1.000000
        rExp                           1.000000
      * Coulomb:
        alpha                          2.000000
        third order                    shell-resolved
        anisotropic                    true
        a3                             3.000000
        a5                             4.000000
        cn-shift                       1.200000
        cn-exp                         4.000000
        max-rad                        5.000000

      * Solvation model:               ALPB
        Solvent                        water
        Parameter file                 internal GFN2-xTB/ALPB
        Dielectric constant                8.0200E+01
        Reference state                gsolv [1 M gas/solution]
        Free energy shift                  1.0808E-03 Eh       6.7819E-01 kcal/mol
        Temperature                        2.9815E+02 K
        Density                            1.0000E+00 kg/L
        Solvent mass                       1.8000E+01 g/mol
        Interaction kernel             P16
        Born radius scaling (c1)           1.4744E+00
        Born radii integrator          GBOBC
        Born offset                        0.0000E+00 a0       0.0000E+00 AA
        H-bond correction              true
        Ion screening                  false
        Surface tension                    1.0000E-05 Eh       1.5569E+01 dyn/cm
        Grid points                               230 per atom

          ...................................................
          :                      SETUP                      :
          :.................................................:
          :  # basis functions                  52          :
          :  # atomic orbitals                  52          :
          :  # shells                           32          :
          :  # electrons                        52          :
          :  max. iterations                   250          :
          :  Hamiltonian                  GFN2-xTB          :
          :  restarted?                      false          :
          :  GBSA solvation                   true          :
          :  PC potential                    false          :
          :  electronic temp.          300.0000000     K    :
          :  accuracy                    1.0000000          :
          :  -> integral cutoff          0.2500000E+02      :
          :  -> integral neglect         0.1000000E-07      :
          :  -> SCF convergence          0.1000000E-05 Eh   :
          :  -> wf. convergence          0.1000000E-03 e    :
          :  Broyden damping             0.4000000          :
          ...................................................

 iter      E             dE          RMSdq      gap      omega  full diag
   1    -28.3460855 -0.283461E+02  0.456E+00    3.69       0.0  T
   2    -28.4185933 -0.725078E-01  0.260E+00    3.68       1.0  T
   3    -28.4204305 -0.183725E-02  0.106E+00    3.66       1.0  T
   4    -28.4196577  0.772842E-03  0.381E-01    3.64       1.0  T
   5    -28.4218155 -0.215786E-02  0.948E-02    3.65       1.0  T
   6    -28.4218453 -0.297185E-04  0.608E-02    3.65       1.0  T
   7    -28.4218617 -0.164319E-04  0.236E-02    3.65       1.0  T
   8    -28.4218661 -0.436622E-05  0.989E-03    3.65       2.2  T
   9    -28.4218662 -0.177550E-06  0.531E-03    3.65       4.0  T
  10    -28.4218664 -0.182234E-06  0.202E-03    3.65      10.6  T
  11    -28.4218664 -0.178536E-07  0.449E-04    3.65      47.4  T
  12    -28.4218664 -0.103023E-08  0.183E-04    3.65     116.3  T

   *** convergence criteria satisfied after 12 iterations ***

         #    Occupation            Energy/Eh            Energy/eV
      -------------------------------------------------------------
         1        2.0000           -0.6961983             -18.9445
       ...           ...                  ...                  ...
        20        2.0000           -0.4647882             -12.6475
        21        2.0000           -0.4477129             -12.1829
        22        2.0000           -0.4330632             -11.7843
        23        2.0000           -0.4269355             -11.6175
        24        2.0000           -0.4207791             -11.4500
        25        2.0000           -0.4067063             -11.0670
        26        2.0000           -0.3889129             -10.5829 (HOMO)
        27                         -0.2548011              -6.9335 (LUMO)
        28                         -0.2315963              -6.3021
        29                         -0.1903747              -5.1804
        30                         -0.1011379              -2.7521
        31                         -0.0284277              -0.7736
       ...                                ...                  ...
        52                          0.6366962              17.3254
      -------------------------------------------------------------
                  HL-Gap            0.1341118 Eh            3.6494 eV
             Fermi-level           -0.3218570 Eh           -8.7582 eV

 SCC (total)                   0 d,  0 h,  0 min,  0.021 sec
 SCC setup                      ...        0 min,  0.000 sec (  1.385%)
 Dispersion                     ...        0 min,  0.000 sec (  1.515%)
 classical contributions        ...        0 min,  0.000 sec (  0.172%)
 integral evaluation            ...        0 min,  0.001 sec (  2.811%)
 iterations                     ...        0 min,  0.017 sec ( 84.524%)
 molecular gradient             ...        0 min,  0.002 sec (  7.901%)
 printout                       ...        0 min,  0.000 sec (  0.457%)

         :::::::::::::::::::::::::::::::::::::::::::::::::::::
         ::                     SUMMARY                     ::
         :::::::::::::::::::::::::::::::::::::::::::::::::::::
         :: total energy             -27.939674465586 Eh    ::
         :: total w/o Gsasa/hb       -27.927790295369 Eh    ::
         :: gradient norm              0.040228234378 Eh/a0 ::
         :: HOMO-LUMO gap              3.649366578110 eV    ::
         ::.................................................::
         :: SCC energy               -28.421866440855 Eh    ::
         :: -> isotropic ES            0.124721434038 Eh    ::
         :: -> anisotropic ES         -0.014840062801 Eh    ::
         :: -> anisotropic XC          0.023183981220 Eh    ::
         :: -> dispersion             -0.016320620497 Eh    ::
         :: -> Gsolv                  -0.118018214216 Eh    ::
         ::    -> Gelec               -0.106134043999 Eh    ::
         ::    -> Gsasa               -0.001880373287 Eh    ::
         ::    -> Ghb                 -0.011084556628 Eh    ::
         ::    -> Gshift               0.001080759698 Eh    ::
         :: repulsion energy           0.482206900429 Eh    ::
         :: add. restraining           0.000000000000 Eh    ::
         :: total charge               1.000000000000 e     ::
         :::::::::::::::::::::::::::::::::::::::::::::::::::::

      ----------------------------------------------------------- 
     |                   =====================                   |
     |                        A N C O P T                        |
     |                   =====================                   |
     |               Approximate Normal Coordinate               |
     |                Rational Function Optimizer                |
      ----------------------------------------------------------- 

          ...................................................
          :                      SETUP                      :
          :.................................................:
          :   optimization level            normal          :
          :   max. optcycles                   200          :
          :   ANC micro-cycles                  20          :
          :   degrees of freedom                60          :
          :.................................................:
          :   RF solver                   davidson          :
          :   write xtbopt.log                true          :
          :   linear?                        false          :
          :   energy convergence         0.5000000E-05 Eh   :
          :   grad. convergence          0.1000000E-02 Eh/α :
          :   maximium RF displ.         1.0000000          :
          :   Hlow (freq-cutoff)         0.1000000E-01      :
          :   Hmax (freq-cutoff)         5.0000000          :
          :   S6 in model hess.         20.0000000          :
          ...................................................

generating ANC from model Hessian ...
Using Lindh-Hessian (1995)
 Shifting diagonal of input Hessian by    8.8700123198167807E-003
 Lowest  eigenvalues of input Hessian
    0.000000    0.000000    0.000000    0.000000    0.000000    0.000000
    0.010000    0.011402    0.013338    0.014519    0.015248    0.019134
    0.021525    0.022959    0.026765    0.031626    0.033930    0.043990
 Highest eigenvalues
    1.509120    1.612338    1.819313    1.847882    1.922437    1.993507


........................................................................
.............................. CYCLE    1 ..............................
........................................................................
   1    -28.4218664 -0.284219E+02  0.815E-05    3.65       0.0  T
   2    -28.4218664 -0.594724E-11  0.495E-05    3.65     430.7  T
   3    -28.4218664  0.440181E-11  0.288E-05    3.65     739.4  T
     SCC iter.                  ...        0 min,  0.004 sec
     gradient                   ...        0 min,  0.001 sec
 * total energy  :   -27.9396745 Eh     change       -0.2952625E-09 Eh
   gradient norm :     0.0402289 Eh/α   predicted     0.0000000E+00 (-100.00%)
   displ. norm   :     0.1783328 α      lambda       -0.3638827E-02
   maximum displ.:     0.0734122 α      in ANC's #4, #13, #12, ...

........................................................................
.............................. CYCLE    2 ..............................
........................................................................
   1    -28.4461085 -0.284461E+02  0.144E-01    3.70       0.0  T
   2    -28.4461117 -0.317496E-05  0.862E-02    3.70       1.0  T
   3    -28.4461083  0.338412E-05  0.174E-02    3.70       1.2  T
   4    -28.4461128 -0.444593E-05  0.368E-03    3.70       5.8  T
   5    -28.4461129 -0.786750E-07  0.219E-03    3.70       9.7  T
   6    -28.4461129 -0.211579E-07  0.808E-04    3.70      26.4  T
   7    -28.4461129 -0.293176E-08  0.271E-04    3.70      78.7  T
     SCC iter.                  ...        0 min,  0.010 sec
     gradient                   ...        0 min,  0.001 sec
 * total energy  :   -27.9419327 Eh     change       -0.2258236E-02 Eh
   gradient norm :     0.0120174 Eh/α   predicted    -0.1877391E-02 ( -16.86%)
   displ. norm   :     0.1216324 α      lambda       -0.4686512E-03
   maximum displ.:     0.0757694 α      in ANC's #4, #1, #10, ...

........................................................................
.............................. CYCLE    3 ..............................
........................................................................
   1    -28.4534146 -0.284534E+02  0.660E-02    3.70       0.0  T
   2    -28.4534154 -0.812371E-06  0.391E-02    3.70       1.0  T
   3    -28.4534148  0.576964E-06  0.705E-03    3.70       3.0  T
   4    -28.4534156 -0.789071E-06  0.152E-03    3.70      14.1  T
   5    -28.4534156 -0.162436E-07  0.861E-04    3.70      24.8  T
   6    -28.4534156 -0.246894E-08  0.342E-04    3.70      62.3  T
     SCC iter.                  ...        0 min,  0.008 sec
     gradient                   ...        0 min,  0.001 sec
 * total energy  :   -27.9422189 Eh     change       -0.2861871E-03 Eh
   gradient norm :     0.0029321 Eh/α   predicted    -0.2383457E-03 ( -16.72%)
   displ. norm   :     0.1073044 α      lambda       -0.1249236E-03
   maximum displ.:     0.0696320 α      in ANC's #4, #1, #3, ...

........................................................................
.............................. CYCLE    4 ..............................
........................................................................
   1    -28.4540283 -0.284540E+02  0.527E-02    3.69       0.0  T
   2    -28.4540286 -0.273745E-06  0.308E-02    3.69       1.0  T
   3    -28.4540285  0.137229E-06  0.356E-03    3.69       6.0  T
   4    -28.4540287 -0.222147E-06  0.901E-04    3.69      23.7  T
   5    -28.4540287 -0.428120E-08  0.482E-04    3.69      44.3  T
     SCC iter.                  ...        0 min,  0.007 sec
     gradient                   ...        0 min,  0.001 sec
 * total energy  :   -27.9423086 Eh     change       -0.8974745E-04 Eh
   gradient norm :     0.0025088 Eh/α   predicted    -0.6318204E-04 ( -29.60%)
   displ. norm   :     0.1444413 α      lambda       -0.1066263E-03
   maximum displ.:     0.0866479 α      in ANC's #4, #1, #3, ...

........................................................................
.............................. CYCLE    5 ..............................
........................................................................
   1    -28.4529543 -0.284530E+02  0.771E-02    3.66       0.0  T
   2    -28.4529546 -0.313479E-06  0.453E-02    3.66       1.0  T
   3    -28.4529540  0.580780E-06  0.659E-03    3.66       3.2  T
   4    -28.4529548 -0.741328E-06  0.112E-03    3.66      19.1  T
   5    -28.4529548 -0.565572E-08  0.551E-04    3.66      38.7  T
   6    -28.4529548 -0.116071E-08  0.154E-04    3.66     138.4  T
     SCC iter.                  ...        0 min,  0.008 sec
     gradient                   ...        0 min,  0.002 sec
 * total energy  :   -27.9423754 Eh     change       -0.6676850E-04 Eh
   gradient norm :     0.0031497 Eh/α   predicted    -0.5442667E-04 ( -18.48%)
   displ. norm   :     0.1136080 α      lambda       -0.5936189E-04
   maximum displ.:     0.0722881 α      in ANC's #1, #3, #4, ...

........................................................................
.............................. CYCLE    6 ..............................
........................................................................
   1    -28.4519780 -0.284520E+02  0.632E-02    3.65       0.0  T
   2    -28.4519782 -0.165312E-06  0.371E-02    3.65       1.0  T
   3    -28.4519777  0.434840E-06  0.572E-03    3.65       3.7  T
   4    -28.4519783 -0.547412E-06  0.762E-04    3.65      28.0  T
   5    -28.4519783 -0.673698E-09  0.458E-04    3.65      46.6  T
     SCC iter.                  ...        0 min,  0.007 sec
     gradient                   ...        0 min,  0.001 sec
 * total energy  :   -27.9424179 Eh     change       -0.4250625E-04 Eh
   gradient norm :     0.0027302 Eh/α   predicted    -0.3009135E-04 ( -29.21%)
   displ. norm   :     0.1225139 α      lambda       -0.6105602E-04
   maximum displ.:     0.0821108 α      in ANC's #1, #3, #4, ...

........................................................................
.............................. CYCLE    7 ..............................
........................................................................
   1    -28.4515356 -0.284515E+02  0.703E-02    3.64       0.0  T
   2    -28.4515358 -0.209746E-06  0.413E-02    3.64       1.0  T
   3    -28.4515352  0.574014E-06  0.637E-03    3.64       3.3  T
   4    -28.4515359 -0.707081E-06  0.800E-04    3.64      26.6  T
   5    -28.4515359 -0.285237E-08  0.445E-04    3.64      47.9  T
     SCC iter.                  ...        0 min,  0.007 sec
     gradient                   ...        0 min,  0.001 sec
 * total energy  :   -27.9424670 Eh     change       -0.4912789E-04 Eh
   gradient norm :     0.0020010 Eh/α   predicted    -0.3098733E-04 ( -36.93%)
   displ. norm   :     0.1716494 α      lambda       -0.7473806E-04
   maximum displ.:     0.1165179 α      in ANC's #1, #3, #2, ...

........................................................................
.............................. CYCLE    8 ..............................
........................................................................
   1    -28.4516453 -0.284516E+02  0.978E-02    3.63       0.0  T
   2    -28.4516456 -0.359191E-06  0.574E-02    3.63       1.0  T
   3    -28.4516449  0.705975E-06  0.723E-03    3.63       2.9  T
   4    -28.4516458 -0.914380E-06  0.977E-04    3.63      21.8  T
   5    -28.4516458 -0.391666E-08  0.577E-04    3.63      37.0  T
     SCC iter.                  ...        0 min,  0.012 sec
     gradient                   ...        0 min,  0.001 sec
 * total energy  :   -27.9425251 Eh     change       -0.5808930E-04 Eh
   gradient norm :     0.0024856 Eh/α   predicted    -0.3847489E-04 ( -33.77%)
   displ. norm   :     0.1843716 α      lambda       -0.6147536E-04
   maximum displ.:     0.1266470 α      in ANC's #1, #3, #6, ...

........................................................................
.............................. CYCLE    9 ..............................
........................................................................
   1    -28.4518702 -0.284519E+02  0.103E-01    3.61       0.0  T
   2    -28.4518706 -0.304174E-06  0.606E-02    3.61       1.0  T
   3    -28.4518702  0.359604E-06  0.552E-03    3.61       3.9  T
   4    -28.4518707 -0.537309E-06  0.898E-04    3.61      23.7  T
   5    -28.4518707 -0.957009E-09  0.547E-04    3.61      39.0  T
     SCC iter.                  ...        0 min,  0.007 sec
     gradient                   ...        0 min,  0.001 sec
 * total energy  :   -27.9425729 Eh     change       -0.4774163E-04 Eh
   gradient norm :     0.0027215 Eh/α   predicted    -0.3178350E-04 ( -33.43%)
   displ. norm   :     0.1737519 α      lambda       -0.4906550E-04
   maximum displ.:     0.1207874 α      in ANC's #1, #3, #6, ...

........................................................................
.............................. CYCLE   10 ..............................
........................................................................
   1    -28.4523130 -0.284523E+02  0.950E-02    3.60       0.0  T
   2    -28.4523132 -0.231151E-06  0.558E-02    3.60       1.0  T
   3    -28.4523131  0.155492E-06  0.402E-03    3.60       5.3  T
   4    -28.4523134 -0.286306E-06  0.758E-04    3.60      28.1  T
   5    -28.4523134 -0.257270E-09  0.459E-04    3.60      46.4  T
     SCC iter.                  ...        0 min,  0.007 sec
     gradient                   ...        0 min,  0.001 sec
 * total energy  :   -27.9426099 Eh     change       -0.3700073E-04 Eh
   gradient norm :     0.0019421 Eh/α   predicted    -0.2527555E-04 ( -31.69%)
   displ. norm   :     0.2515341 α      lambda       -0.3475601E-04
   maximum displ.:     0.1762551 α      in ANC's #1, #3, #6, ...

........................................................................
.............................. CYCLE   11 ..............................
........................................................................
   1    -28.4523137 -0.284523E+02  0.139E-01    3.58       0.0  T
   2    -28.4523142 -0.515064E-06  0.814E-02    3.58       1.0  T
   3    -28.4523140  0.192521E-06  0.500E-03    3.58       4.3  T
   4    -28.4523144 -0.454985E-06  0.113E-03    3.58      18.8  T
   5    -28.4523144 -0.387447E-08  0.662E-04    3.58      32.2  T
   6    -28.4523144 -0.167647E-08  0.149E-04    3.58     142.7  T
     SCC iter.                  ...        0 min,  0.008 sec
     gradient                   ...        0 min,  0.001 sec
 * total energy  :   -27.9426415 Eh     change       -0.3165199E-04 Eh
   gradient norm :     0.0018997 Eh/α   predicted    -0.1787000E-04 ( -43.54%)
   displ. norm   :     0.0891642 α      lambda       -0.1339562E-04
   maximum displ.:     0.0637300 α      in ANC's #1, #3, #37, ...

........................................................................
.............................. CYCLE   12 ..............................
........................................................................
   1    -28.4532205 -0.284532E+02  0.486E-02    3.58       0.0  T
   2    -28.4532205 -0.822721E-07  0.286E-02    3.58       1.0  T
   3    -28.4532205  0.731926E-07  0.239E-03    3.58       8.9  T
   4    -28.4532206 -0.112943E-06  0.505E-04    3.58      42.2  T
   5    -28.4532206 -0.131726E-08  0.265E-04    3.58      80.6  T
     SCC iter.                  ...        0 min,  0.007 sec
     gradient                   ...        0 min,  0.001 sec
 * total energy  :   -27.9426512 Eh     change       -0.9640109E-05 Eh
   gradient norm :     0.0015712 Eh/α   predicted    -0.6724913E-05 ( -30.24%)
   displ. norm   :     0.2162533 α      lambda       -0.1527117E-04
   maximum displ.:     0.1475008 α      in ANC's #3, #1, #2, ...

........................................................................
.............................. CYCLE   13 ..............................
........................................................................
   1    -28.4515651 -0.284516E+02  0.128E-01    3.56       0.0  T
   2    -28.4515656 -0.440680E-06  0.749E-02    3.56       1.0  T
   3    -28.4515653  0.325844E-06  0.566E-03    3.56       3.8  T
   4    -28.4515658 -0.567191E-06  0.104E-03    3.56      20.6  T
   5    -28.4515658 -0.200533E-08  0.627E-04    3.56      34.0  T
   6    -28.4515658 -0.187321E-08  0.140E-04    3.56     151.9  T
     SCC iter.                  ...        0 min,  0.008 sec
     gradient                   ...        0 min,  0.001 sec
 * total energy  :   -27.9426567 Eh     change       -0.5566368E-05 Eh
   gradient norm :     0.0025903 Eh/α   predicted    -0.7796958E-05 (  40.07%)
   displ. norm   :     0.0401722 α      lambda       -0.1180182E-04
   maximum displ.:     0.0276314 α      in ANC's #1, #3, #6, ...

........................................................................
.............................. CYCLE   14 ..............................
........................................................................
   1    -28.4522273 -0.284522E+02  0.212E-02    3.56       0.0  T
   2    -28.4522273 -0.158823E-07  0.124E-02    3.56       1.7  T
   3    -28.4522273  0.873537E-08  0.103E-03    3.56      20.6  T
   4    -28.4522273 -0.166311E-07  0.225E-04    3.56      94.7  T
   5    -28.4522273 -0.610711E-10  0.164E-04    3.56     129.7  T
     SCC iter.                  ...        0 min,  0.007 sec
     gradient                   ...        0 min,  0.001 sec
 * total energy  :   -27.9426649 Eh     change       -0.8177114E-05 Eh
   gradient norm :     0.0013198 Eh/α   predicted    -0.5910920E-05 ( -27.71%)
   displ. norm   :     0.0406802 α      lambda       -0.1050070E-04
   maximum displ.:     0.0253970 α      in ANC's #6, #10, #5, ...

........................................................................
.............................. CYCLE   15 ..............................
........................................................................
   1    -28.4530942 -0.284531E+02  0.185E-02    3.57       0.0  T
   2    -28.4530942 -0.362413E-07  0.109E-02    3.57       2.0  T
   3    -28.4530941  0.587337E-07  0.216E-03    3.57       9.8  T
   4    -28.4530942 -0.724803E-07  0.353E-04    3.57      60.3  T
   5    -28.4530942 -0.984201E-09  0.186E-04    3.57     114.7  T
     SCC iter.                  ...        0 min,  0.007 sec
     gradient                   ...        0 min,  0.001 sec
 * total energy  :   -27.9426731 Eh     change       -0.8192342E-05 Eh
   gradient norm :     0.0012814 Eh/α   predicted    -0.5257684E-05 ( -35.82%)
   displ. norm   :     0.1221935 α      lambda       -0.7016613E-05
   maximum displ.:     0.0858710 α      in ANC's #3, #1, #5, ...

........................................................................
.............................. CYCLE   16 ..............................
........................................................................
   1    -28.4528060 -0.284528E+02  0.739E-02    3.56       0.0  T
   2    -28.4528062 -0.134080E-06  0.434E-02    3.56       1.0  T
   3    -28.4528061  0.161389E-07  0.218E-03    3.56       9.8  T
   4    -28.4528062 -0.856779E-07  0.561E-04    3.56      38.0  T
   5    -28.4528062 -0.313051E-09  0.298E-04    3.56      71.6  T
     SCC iter.                  ...        0 min,  0.007 sec
     gradient                   ...        0 min,  0.001 sec
 * total energy  :   -27.9426806 Eh     change       -0.7475260E-05 Eh
   gradient norm :     0.0010299 Eh/α   predicted    -0.3532768E-05 ( -52.74%)
   displ. norm   :     0.2418417 α      lambda       -0.1035195E-04
   maximum displ.:     0.1760746 α      in ANC's #3, #1, #5, ...

........................................................................
.............................. CYCLE   17 ..............................
........................................................................
   1    -28.4513339 -0.284513E+02  0.149E-01    3.54       0.0  T
   2    -28.4513344 -0.538131E-06  0.875E-02    3.54       1.0  T
   3    -28.4513343  0.138391E-06  0.515E-03    3.54       4.1  T
   4    -28.4513347 -0.430739E-06  0.117E-03    3.54      18.3  T
   5    -28.4513347 -0.795310E-10  0.687E-04    3.54      31.0  T
   6    -28.4513347 -0.313192E-08  0.116E-04    3.54     183.7  T
     SCC iter.                  ...        0 min,  0.008 sec
     gradient                   ...        0 min,  0.001 sec
 * total energy  :   -27.9426788 Eh     change        0.1742086E-05 Eh
   gradient norm :     0.0028801 Eh/α   predicted    -0.5312109E-05 (-404.93%)
   displ. norm   :     0.0882658 α      lambda       -0.1487168E-04
   maximum displ.:     0.0613627 α      in ANC's #3, #1, #5, ...

........................................................................
.............................. CYCLE   18 ..............................
........................................................................
   1    -28.4522844 -0.284523E+02  0.530E-02    3.55       0.0  T
   2    -28.4522845 -0.714824E-07  0.311E-02    3.55       1.0  T
   3    -28.4522845  0.145149E-08  0.159E-03    3.55      13.4  T
   4    -28.4522845 -0.392499E-07  0.438E-04    3.55      48.7  T
   5    -28.4522845  0.384759E-10  0.232E-04    3.55      92.0  T
     SCC iter.                  ...        0 min,  0.007 sec
     gradient                   ...        0 min,  0.001 sec
 * total energy  :   -27.9426871 Eh     change       -0.8312302E-05 Eh
   gradient norm :     0.0010922 Eh/α   predicted    -0.7495468E-05 (  -9.83%)
   displ. norm   :     0.0199983 α      lambda        0.8773553E-06
   maximum displ.:     0.0141138 α      in ANC's #1, #4, #3, ...

........................................................................
.............................. CYCLE   19 ..............................
........................................................................
   1    -28.4526194 -0.284526E+02  0.102E-02    3.55       0.0  T
   2    -28.4526194 -0.193283E-07  0.598E-03    3.55       3.6  T
   3    -28.4526194  0.304197E-08  0.711E-04    3.55      30.0  T
   4    -28.4526194 -0.556111E-08  0.315E-04    3.55      67.8  T
     SCC iter.                  ...        0 min,  0.005 sec
     gradient                   ...        0 min,  0.001 sec
 * total energy  :   -27.9426849 Eh     change        0.2195914E-05 Eh
   gradient norm :     0.0022944 Eh/α   predicted     0.4385333E-06 ( -80.03%)
   displ. norm   :     0.0102726 α      lambda       -0.5894792E-05
   maximum displ.:     0.0080429 α      in ANC's #1, #3, #5, ...

........................................................................
.............................. CYCLE   20 ..............................
........................................................................
   1    -28.4527784 -0.284528E+02  0.747E-03    3.55       0.0  T
   2    -28.4527784 -0.909859E-08  0.441E-03    3.55       4.8  T
   3    -28.4527784  0.874305E-09  0.434E-04    3.55      49.2  T
   4    -28.4527784 -0.185115E-08  0.149E-04    3.55     142.7  T
     SCC iter.                  ...        0 min,  0.005 sec
     gradient                   ...        0 min,  0.001 sec
 * total energy  :   -27.9426886 Eh     change       -0.3617098E-05 Eh
   gradient norm :     0.0005872 Eh/α   predicted    -0.2951298E-05 ( -18.41%)
   displ. norm   :     0.0273528 α      lambda       -0.1656825E-05
   maximum displ.:     0.0230755 α      in ANC's #3, #5, #1, ...

   *** GEOMETRY OPTIMIZATION CONVERGED AFTER 20 ITERATIONS ***

------------------------------------------------------------------------
 total energy gain   :        -0.0030141 Eh       -1.8914 kcal/mol
 total RMSD          :         0.3901745 a0        0.2065 Å
 total power (kW/mol):        -0.3956758 (step)  -39.8775 (real)
------------------------------------------------------------------------

 ANCopt (total)                0 d,  0 h,  0 min,  0.198 sec
 optimizer setup                ...        0 min,  0.000 sec (  0.070%)
 model hessian                  ...        0 min,  0.004 sec (  1.930%)
 ANC generation                 ...        0 min,  0.001 sec (  0.619%)
 coordinate transformation      ...        0 min,  0.000 sec (  0.244%)
 single point calculation       ...        0 min,  0.187 sec ( 94.081%)
 optimization log               ...        0 min,  0.002 sec (  0.771%)
 hessian update                 ...        0 min,  0.001 sec (  0.276%)
 rational function              ...        0 min,  0.002 sec (  0.893%)

================
 final structure:
================
22
 xtb: 6.5.1 (fef0646)
N            3.77780585888461        0.34181505986543       -0.80414750715400
C            2.52576098039825       -0.08065375983970       -0.11545578270608
C            2.79616243722650       -1.26271165204291        0.77623106438653
C            3.14732661495136       -1.07742650025926        2.10865602551092
C            3.42645300875393       -2.15842876153056        2.92060046686726
C            3.36580909706458       -3.46082477769713        2.42174316017530
C            3.65327720598741       -4.63624289593350        3.23519480867805
C            3.83563638367561       -4.66171904498118        4.55037453385685
C            3.01537377980469       -3.63727792427741        1.08133557307375
C            2.73297863496939       -2.55596217565846        0.27072690344288
H            3.59938512386983        1.14250466258217       -1.42163286186183
H            4.14966559661272       -0.43411431336071       -1.36439920718578
H            4.48868543624065        0.60693695463610       -0.11208908078185
H            1.78223978898217       -0.34609269451472       -0.86664132472316
H            2.15025891768827        0.75250109197132        0.47786054587260
H            3.19367861412129       -0.08224618889243        2.52440685784351
H            3.70064888221095       -1.99188107725205        3.95000393873675
H            3.70579194411635       -5.56652872867916        2.68291513210525
H            3.77995305649114       -3.78156939334227        5.16711224205274
H            4.04086411611938       -5.58261716835522        5.06845868530336
H            2.95906799719322       -4.63872993063705        0.68006459418598
H            2.45010652463784       -2.72694078180135       -0.75691876767893

 Bond Distances (Angstroems)
 ---------------------------
N1-C2=1.4901         N1-H11=1.0268        N1-H12=1.0268        N1-H13=1.0269        C2-N1=1.4901         C2-C3=1.5052         
C2-H14=1.0898        C2-H15=1.0896        C3-C2=1.5052         C3-C4=1.3903         C3-C10=1.3900        C4-C3=1.3903         
C4-C5=1.3805         C4-H16=1.0795        C5-C4=1.3805         C5-C6=1.3960         C5-H17=1.0782        C6-C5=1.3960         
C6-C7=1.4581         C6-C9=1.3967         C7-C6=1.4581         C7-C8=1.3280         C7-H18=1.0831        C8-C7=1.3280         
C8-H19=1.0762        C8-H20=1.0764        C9-C6=1.3967         C9-C10=1.3806        C9-H21=1.0803        C10-C3=1.3900        
C10-C9=1.3806        C10-H22=1.0795       H11-N1=1.0268        H12-N1=1.0268        H13-N1=1.0269        H14-C2=1.0898        
H15-C2=1.0896        H16-C4=1.0795        H17-C5=1.0782        H18-C7=1.0831        H19-C8=1.0762        H20-C8=1.0764        
H21-C9=1.0803        H22-C10=1.0795       
 C  H  Rav=1.0814 sigma=0.0048  Rmin=1.0762  Rmax=1.0898     9
 C  C  Rav=1.4028 sigma=0.0477  Rmin=1.3280  Rmax=1.5052     9
 N  H  Rav=1.0268 sigma=0.0001  Rmin=1.0268  Rmax=1.0269     3
 N  C  Rav=1.4901 sigma=0.0000  Rmin=1.4901  Rmax=1.4901     1

 selected bond angles (degree)
 --------------------
H11-N1-C2=110.67               H12-N1-C2=110.01               H12-N1-H11=108.91              H13-N1-C2=110.08               
H13-N1-H11=108.92              H13-N1-H12=108.19              C3-C2-N1=110.21                H14-C2-N1=108.89               
H14-C2-C3=109.86               H15-C2-N1=108.93               H15-C2-C3=109.87               H15-C2-H14=109.06              
C4-C3-C2=120.56                C10-C3-C2=120.47               C10-C3-C4=118.95               C5-C4-C3=120.69                
H16-C4-C3=120.18               H16-C4-C5=119.12               C6-C5-C4=120.77                H17-C5-C4=119.47               
H17-C5-C6=119.76               C7-C6-C5=122.97                C9-C6-C5=118.15                C9-C6-C7=118.88                
C8-C7-C6=126.52                H18-C7-C6=114.68               H18-C7-C8=118.80               H19-C8-C7=123.01               
H20-C8-C7=121.28               H20-C8-H19=115.71              C10-C9-C6=121.06               H21-C9-C6=119.12               
H21-C9-C10=119.82              C9-C10-C3=120.39               H22-C10-C3=120.36              H22-C10-C9=119.24              

 selected dihedral angles (degree)
 ---------------------------------
C3-C2-N1-H11=179.45           C3-C2-N1-H12= 59.04           C3-C2-N1-H13=299.91           H14-C2-N1-H11= 58.88          
H14-C2-N1-H12=298.48          H14-C2-N1-H13=179.34          H15-C2-N1-H11=300.06          H15-C2-N1-H12=179.65          
H15-C2-N1-H13= 60.52          C4-C3-C2-N1= 91.22            C4-C3-C2-H14=211.21           C4-C3-C2-H15=331.18           
C10-C3-C2-N1=272.93           C10-C3-C2-H14= 32.91          C10-C3-C2-H15=152.88          C5-C4-C3-C2=181.53            
C5-C4-C3-C10=359.85           H16-C4-C3-C2=  2.24           H16-C4-C3-C10=180.56          C6-C5-C4-C3=  0.16            
C6-C5-C4-H16=179.46           H17-C5-C4-C3=179.75           H17-C5-C4-H16=359.05          C7-C6-C5-C4=179.88            
C7-C6-C5-H17=  0.29           C9-C6-C5-C4=  0.00            C9-C6-C5-H17=180.40           C8-C7-C6-C5=  9.11            
C8-C7-C6-C9=188.99            H18-C7-C6-C5=188.38           H18-C7-C6-C9=  8.27           H19-C8-C7-C6=  0.42           
H19-C8-C7-H18=181.17          H20-C8-C7-C6=179.77           H20-C8-C7-H18=  0.52          C10-C9-C6-C5=359.84           
C10-C9-C6-C7=179.94           H21-C9-C6-C5=180.29           H21-C9-C6-C7=  0.39           C9-C10-C3-C2=178.31           
C9-C10-C3-C4=  0.00           H22-C10-C3-C2=357.51          H22-C10-C3-C4=179.19          C3-C10-C9-C6=  0.17           
C3-C10-C9-H21=179.72          H22-C10-C9-C6=180.96          H22-C10-C9-H21=  0.51         
           -------------------------------------------------
          |                Final Singlepoint                |
           -------------------------------------------------

          ...................................................
          :                      SETUP                      :
          :.................................................:
          :  # basis functions                  52          :
          :  # atomic orbitals                  52          :
          :  # shells                           32          :
          :  # electrons                        52          :
          :  max. iterations                   250          :
          :  Hamiltonian                  GFN2-xTB          :
          :  restarted?                      false          :
          :  GBSA solvation                   true          :
          :  PC potential                    false          :
          :  electronic temp.          300.0000000     K    :
          :  accuracy                    1.0000000          :
          :  -> integral cutoff          0.2500000E+02      :
          :  -> integral neglect         0.1000000E-07      :
          :  -> SCF convergence          0.1000000E-05 Eh   :
          :  -> wf. convergence          0.1000000E-03 e    :
          :  Broyden damping             0.4000000          :
          ...................................................

 iter      E             dE          RMSdq      gap      omega  full diag
   1    -28.4527784 -0.284528E+02  0.804E-05    3.55       0.0  T
   2    -28.4527784 -0.995826E-11  0.432E-05    3.55     493.1  T
   3    -28.4527784 -0.824585E-11  0.382E-05    3.55     558.3  T

   *** convergence criteria satisfied after 3 iterations ***

         #    Occupation            Energy/Eh            Energy/eV
      -------------------------------------------------------------
         1        2.0000           -0.6944183             -18.8961
       ...           ...                  ...                  ...
        20        2.0000           -0.4654388             -12.6652
        21        2.0000           -0.4454371             -12.1210
        22        2.0000           -0.4384393             -11.9305
        23        2.0000           -0.4287549             -11.6670
        24        2.0000           -0.4205625             -11.4441
        25        2.0000           -0.4101709             -11.1613
        26        2.0000           -0.3885090             -10.5719 (HOMO)
        27                         -0.2579178              -7.0183 (LUMO)
        28                         -0.2275292              -6.1914
        29                         -0.1820833              -4.9547
        30                         -0.0902166              -2.4549
        31                         -0.0322686              -0.8781
       ...                                ...                  ...
        52                          0.6791413              18.4804
      -------------------------------------------------------------
                  HL-Gap            0.1305912 Eh            3.5536 eV
             Fermi-level           -0.3232134 Eh           -8.7951 eV

 SCC (total)                   0 d,  0 h,  0 min,  0.006 sec
 SCC setup                      ...        0 min,  0.000 sec (  2.325%)
 Dispersion                     ...        0 min,  0.000 sec (  1.938%)
 classical contributions        ...        0 min,  0.000 sec (  0.348%)
 integral evaluation            ...        0 min,  0.000 sec (  6.938%)
 iterations                     ...        0 min,  0.004 sec ( 66.942%)
 molecular gradient             ...        0 min,  0.001 sec ( 18.357%)
 printout                       ...        0 min,  0.000 sec (  1.319%)

         :::::::::::::::::::::::::::::::::::::::::::::::::::::
         ::                     SUMMARY                     ::
         :::::::::::::::::::::::::::::::::::::::::::::::::::::
         :: total energy             -27.942688565199 Eh    ::
         :: total w/o Gsasa/hb       -27.930702115572 Eh    ::
         :: gradient norm              0.000587627567 Eh/a0 ::
         :: HOMO-LUMO gap              3.553566729197 eV    ::
         ::.................................................::
         :: SCC energy               -28.452778434869 Eh    ::
         :: -> isotropic ES            0.124338667214 Eh    ::
         :: -> anisotropic ES         -0.015210284447 Eh    ::
         :: -> anisotropic XC          0.022062445487 Eh    ::
         :: -> dispersion             -0.016444533771 Eh    ::
         :: -> Gsolv                  -0.117835220720 Eh    ::
         ::    -> Gelec               -0.105848771093 Eh    ::
         ::    -> Gsasa               -0.001911831284 Eh    ::
         ::    -> Ghb                 -0.011155378041 Eh    ::
         ::    -> Gshift               0.001080759698 Eh    ::
         :: repulsion energy           0.510103236180 Eh    ::
         :: add. restraining           0.000000000000 Eh    ::
         :: total charge               1.000000000000 e     ::
         :::::::::::::::::::::::::::::::::::::::::::::::::::::

           -------------------------------------------------
          |                Property Printout                |
           -------------------------------------------------

    * Orbital Energies and Occupations

         #    Occupation            Energy/Eh            Energy/eV
      -------------------------------------------------------------
         1        2.0000           -0.6944183             -18.8961
       ...           ...                  ...                  ...
        14        2.0000           -0.5125732             -13.9478
        15        2.0000           -0.5004041             -13.6167
        16        2.0000           -0.4909003             -13.3581
        17        2.0000           -0.4847697             -13.1913
        18        2.0000           -0.4809206             -13.0865
        19        2.0000           -0.4778043             -13.0017
        20        2.0000           -0.4654388             -12.6652
        21        2.0000           -0.4454371             -12.1210
        22        2.0000           -0.4384393             -11.9305
        23        2.0000           -0.4287549             -11.6670
        24        2.0000           -0.4205625             -11.4441
        25        2.0000           -0.4101709             -11.1613
        26        2.0000           -0.3885090             -10.5719 (HOMO)
        27                         -0.2579178              -7.0183 (LUMO)
        28                         -0.2275292              -6.1914
        29                         -0.1820833              -4.9547
        30                         -0.0902166              -2.4549
        31                         -0.0322686              -0.8781
        32                          0.0587508               1.5987
        33                          0.0792676               2.1570
        34                          0.1062182               2.8903
        35                          0.1126987               3.0667
        36                          0.1315051               3.5784
        37                          0.1339721               3.6456
       ...                                ...                  ...
        52                          0.6791413              18.4804
      -------------------------------------------------------------
                  HL-Gap            0.1305912 Eh            3.5536 eV
             Fermi-level           -0.3232134 Eh           -8.7951 eV

     #   Z          covCN         q      C6AA      α(0)
     1   7 N        3.485    -0.159    24.430     7.341
     2   6 C        3.737    -0.046    21.484     6.614
     3   6 C        2.970     0.003    27.949     8.672
     4   6 C        2.921    -0.046    29.133     8.851
     5   6 C        2.922    -0.036    28.895     8.815
     6   6 C        2.971     0.015    27.684     8.631
     7   6 C        2.896    -0.037    28.911     8.816
     8   6 C        2.837    -0.092    30.301     9.021
     9   6 C        2.927    -0.038    28.938     8.822
    10   6 C        2.920    -0.046    29.143     8.853
    11   1 H        0.859     0.321     0.655     1.268
    12   1 H        0.859     0.306     0.694     1.305
    13   1 H        0.859     0.307     0.692     1.304
    14   1 H        0.925     0.118     1.629     1.996
    15   1 H        0.925     0.118     1.632     1.998
    16   1 H        0.926     0.061     2.186     2.312
    17   1 H        0.926     0.038     2.470     2.458
    18   1 H        0.925     0.035     2.514     2.480
    19   1 H        0.926     0.046     2.372     2.408
    20   1 H        0.926     0.036     2.509     2.477
    21   1 H        0.926     0.034     2.525     2.485
    22   1 H        0.926     0.061     2.185     2.312

 Mol. C6AA /au·bohr⁶  :       4672.727502
 Mol. C8AA /au·bohr⁸  :     111656.928856
 Mol. α(0) /au        :        109.237867


Wiberg/Mayer (AO) data.
largest (>0.10) Wiberg bond orders for each atom

 ---------------------------------------------------------------------------
     #   Z sym  total        # sym  WBO       # sym  WBO       # sym  WBO
 ---------------------------------------------------------------------------
     1   7 N    3.653 --     2 C    0.956    12 H    0.892    13 H    0.892
                            11 H    0.884
     2   6 C    3.926 --     3 C    1.010    15 H    0.962    14 H    0.962
                             1 N    0.956
     3   6 C    3.987 --    10 C    1.405     4 C    1.402     2 C    1.010
     4   6 C    3.989 --     5 C    1.463     3 C    1.402    16 H    0.966
                             9 C    0.103
     5   6 C    3.991 --     4 C    1.463     6 C    1.373    17 H    0.966
                            10 C    0.104
     6   6 C    3.989 --     9 C    1.375     5 C    1.373     7 C    1.090
     7   6 C    3.990 --     8 C    1.902     6 C    1.090    18 H    0.964
     8   6 C    3.989 --     7 C    1.902    20 H    0.978    19 H    0.972
     9   6 C    3.991 --    10 C    1.460     6 C    1.375    21 H    0.969
                             4 C    0.103
    10   6 C    3.989 --     9 C    1.460     3 C    1.405    22 H    0.966
                             5 C    0.104
    11   1 H    0.897 --     1 N    0.884
    12   1 H    0.906 --     1 N    0.892
    13   1 H    0.906 --     1 N    0.892
    14   1 H    0.985 --     2 C    0.962
    15   1 H    0.986 --     2 C    0.962
    16   1 H    0.996 --     4 C    0.966
    17   1 H    0.998 --     5 C    0.966
    18   1 H    0.998 --     7 C    0.964
    19   1 H    0.998 --     8 C    0.972
    20   1 H    0.998 --     8 C    0.978
    21   1 H    0.999 --     9 C    0.969
    22   1 H    0.996 --    10 C    0.966
 ---------------------------------------------------------------------------

Topologies differ in total number of bonds
Writing topology from bond orders to xtbtopo.mol

molecular dipole:
                 x           y           z       tot (Debye)
 q only:        6.899       0.694      -1.476
   full:        7.011       0.516      -1.362      18.200
molecular quadrupole (traceless):
                xx          xy          yy          xz          yz          zz
 q only:       45.460       7.520     -24.557     -15.244      -0.400     -20.902
  q+dip:       39.970       5.254     -21.276     -12.098      -1.429     -18.695
   full:       43.457       5.726     -22.980     -13.580      -2.057     -20.477

           -------------------------------------------------
          |                Geometry Summary                 |
           -------------------------------------------------

      molecular mass/u    :      134.1986153
   center of mass at/Å    :        3.2453682      -2.2404743       1.5802775
  moments of inertia/u·Å² :        0.1254781E+03   0.7447806E+03   0.8230859E+03
rotational constants/cm⁻¹ :        0.1343472E+00   0.2263436E-01   0.2048101E-01

 * 20 selected distances

     #   Z          #   Z                                           value/Å
     1   7 N        2   6 C                                       1.4900983 (max)
     3   6 C        4   6 C                                       1.3903250
     4   6 C        5   6 C                                       1.3804824
     5   6 C        6   6 C                                       1.3959843
     7   6 C        8   6 C                                       1.3280068
     6   6 C        9   6 C                                       1.3966508
     3   6 C       10   6 C                                       1.3899726
     9   6 C       10   6 C                                       1.3806077
     1   7 N       11   1 H                                       1.0267552 (min)
     1   7 N       12   1 H                                       1.0267562
     1   7 N       13   1 H                                       1.0269296
     2   6 C       14   1 H                                       1.0897530
     2   6 C       15   1 H                                       1.0895748
     4   6 C       16   1 H                                       1.0795283
     5   6 C       17   1 H                                       1.0782362
     7   6 C       18   1 H                                       1.0831448
     8   6 C       19   1 H                                       1.0761643
     8   6 C       20   1 H                                       1.0763750
     9   6 C       21   1 H                                       1.0803217
    10   6 C       22   1 H                                       1.0794935

 * 4 distinct bonds (by element types)

   Z      Z             #   av. dist./Å        max./Å        min./Å
   1 H    6 C           9     1.0813991     1.0897530     1.0761643
   6 C    6 C           7     1.3802899     1.3966508     1.3280068
   1 H    7 N           3     1.0268136     1.0269296     1.0267552
   6 C    7 N           1     1.4900983     1.4900983     1.4900983


optimized geometry written to: xtbopt.xyz


           -------------------------------------------------
          | TOTAL ENERGY              -27.942688565199 Eh   |
          | GRADIENT NORM               0.000587627567 Eh/α |
          | HOMO-LUMO GAP               3.553566729197 eV   |
           -------------------------------------------------

------------------------------------------------------------------------
 * finished run on 2023/01/24 at 15:16:06.501     
------------------------------------------------------------------------
 total:
 * wall-time:     0 d,  0 h,  0 min,  0.242 sec
 *  cpu-time:     0 d,  0 h,  0 min, 25.736 sec
 * ratio c/w:   106.378 speedup
 SCF:
 * wall-time:     0 d,  0 h,  0 min,  0.021 sec
 *  cpu-time:     0 d,  0 h,  0 min,  2.947 sec
 * ratio c/w:   141.701 speedup
 ANC optimizer:
 * wall-time:     0 d,  0 h,  0 min,  0.205 sec
 *  cpu-time:     0 d,  0 h,  0 min, 20.846 sec
 * ratio c/w:   101.468 speedup

