22
 energy: -27.835766634373 gnorm: 0.000646349739 xtb: 6.5.1 (fef0646)
N            2.17664051366162        0.44983510074898       -1.31476533353586
C            2.43799498162884       -0.07970794998364        0.07863478272580
C            2.98880408632834       -1.46992632046122       -0.02252663193726
C            4.36312518870503       -1.68458162120722       -0.07803840883681
C            4.86761413383939       -2.96226162180119       -0.20291881926757
C            4.01423270082381       -4.06599405387873       -0.28286658844502
C            4.49989731642152       -5.43303740042612       -0.41218281483369
C            5.74906839004560       -5.84032486377789       -0.21738030978904
C            2.63542969030990       -3.83711433997494       -0.23881595341812
C            2.12850614710461       -2.56109197051256       -0.10840085293250
H            1.78288802800527        1.39872673506422       -1.29751144948870
H            1.52230051588242       -0.18147056538215       -1.79546871474371
H            3.05808011360308        0.45759279330214       -1.84454114633072
H            1.49318354238071       -0.06733842487831        0.62311445501333
H            3.14459952793491        0.59198540711104        0.56672401336878
H            5.04244730742175       -0.84712379951233       -0.00646792355763
H            5.93491500027234       -3.10453428131755       -0.24561160094137
H            3.74028724963595       -6.16047402227792       -0.66891228539026
H            6.54522357331644       -5.17520229661324        0.07058418124994
H            6.01829260937585       -6.87607855714536       -0.32651148008345
H            1.95783236297773       -4.67516224787021       -0.29612835894426
H            1.05920702032494       -2.41246569920572       -0.05554875988205
