      -----------------------------------------------------------      
     |                   =====================                   |     
     |                           x T B                           |     
     |                   =====================                   |     
     |                         S. Grimme                         |     
     |          Mulliken Center for Theoretical Chemistry        |     
     |                    University of Bonn                     |     
      -----------------------------------------------------------      

   * xtb version 6.5.1 (fef0646) compiled by 'conda@b96dff2e9fd6' on 2023-01-04

   xtb is free software: you can redistribute it and/or modify it under
   the terms of the GNU Lesser General Public License as published by
   the Free Software Foundation, either version 3 of the License, or
   (at your option) any later version.
   
   xtb is distributed in the hope that it will be useful,
   but WITHOUT ANY WARRANTY; without even the implied warranty of
   MERCHANTABILITY or FITNESS FOR A PARTICULAR PURPOSE.  See the
   GNU Lesser General Public License for more details.
   
   Cite this work as:
   * C. Bannwarth, E. Caldeweyher, S. Ehlert, A. Hansen, P. Pracht,
     J. Seibert, S. Spicher, S. Grimme, WIREs Comput. Mol. Sci., 2020, 11,
     e01493. DOI: 10.1002/wcms.1493
   
   for GFN2-xTB:
   * C. Bannwarth, S. Ehlert and S. Grimme., J. Chem. Theory Comput., 2019,
     15, 1652-1671. DOI: 10.1021/acs.jctc.8b01176
   for GFN1-xTB:
   * S. Grimme, C. Bannwarth, P. Shushkov, J. Chem. Theory Comput., 2017,
     13, 1989-2009. DOI: 10.1021/acs.jctc.7b00118
   for GFN0-xTB:
   * P. Pracht, E. Caldeweyher, S. Ehlert, S. Grimme, ChemRxiv, 2019, preprint.
     DOI: 10.26434/chemrxiv.8326202.v1
   for GFN-FF:
   * S. Spicher and S. Grimme, Angew. Chem. Int. Ed., 2020, 59, 15665-15673.
     DOI: 10.1002/anie.202004239
   
   for ALPB and GBSA implicit solvation:
   * S. Ehlert, M. Stahn, S. Spicher, S. Grimme, J. Chem. Theory Comput.,
     2021, 17, 4250-4261. DOI: 10.1021/acs.jctc.1c00471
   
   for DFT-D4:
   * E. Caldeweyher, C. Bannwarth and S. Grimme, J. Chem. Phys., 2017,
     147, 034112. DOI: 10.1063/1.4993215
   * E. Caldeweyher, S. Ehlert, A. Hansen, H. Neugebauer, S. Spicher,
     C. Bannwarth and S. Grimme, J. Chem. Phys., 2019, 150, 154122.
     DOI: 10.1063/1.5090222
   * E. Caldeweyher, J.-M. Mewes, S. Ehlert and S. Grimme, Phys. Chem. Chem. Phys.
     2020, 22, 8499-8512. DOI: 10.1039/D0CP00502A
   
   for sTDA-xTB:
   * S. Grimme and C. Bannwarth, J. Chem. Phys., 2016, 145, 054103.
     DOI: 10.1063/1.4959605
   
   in the mass-spec context:
   * V. Asgeirsson, C. Bauer and S. Grimme, Chem. Sci., 2017, 8, 4879.
     DOI: 10.1039/c7sc00601b
   * J. Koopman and S. Grimme, ACS Omega 2019, 4, 12, 15120-15133.
     DOI: 10.1021/acsomega.9b02011
   
   for metadynamics refer to:
   * S. Grimme, J. Chem. Theory Comput., 2019, 155, 2847-2862
     DOI: 10.1021/acs.jctc.9b00143
   
   for SPH calculations refer to:
   * S. Spicher and S. Grimme, J. Chem. Theory Comput., 2021, 17, 1701-1714
     DOI: 10.1021/acs.jctc.0c01306
   
   with help from (in alphabetical order)
   P. Atkinson, C. Bannwarth, F. Bohle, G. Brandenburg, E. Caldeweyher
   M. Checinski, S. Dohm, S. Ehlert, S. Ehrlich, I. Gerasimov, C. Hölzer
   A. Katbashev, J. Koopman, C. Lavigne, S. Lehtola, F. März, M. Müller,
   F. Musil, H. Neugebauer, J. Pisarek, C. Plett, P. Pracht, F. Pultar,
   J. Seibert, P. Shushkov, S. Spicher, M. Stahn, M. Steiner, T. Strunk,
   J. Stückrath, T. Rose, and J. Unsleber
   
 * started run on 2023/01/24 at 14:57:51.329     

           -------------------------------------------------
          |                Calculation Setup                |
           -------------------------------------------------

          program call               : xtb init.xyz --opt -c 0 -u 0 -P 16 --alpb water
          hostname                   : gpg-woodward
          coordinate file            : init.xyz
          omp threads                :                    16

   ID    Z sym.   atoms
    1    7 N      1
    2    6 C      2-9
    3   17 Cl     10
    4    1 H      11-30

molecular fragmentation (1/2 indicates fragments):
111111111211111111111111111111
# atoms in fragment 1/2:    29     1
 fragment masses (1/2) :      130.25       35.45
CMA distance (Bohr)    :  12.452
constraining FC (au)   :  0.0500

           -------------------------------------------------
          |                 G F N 2 - x T B                 |
           -------------------------------------------------

        Reference                      10.1021/acs.jctc.8b01176
      * Hamiltonian:
        H0-scaling (s, p, d)           1.850000    2.230000    2.230000
        zeta-weighting                 0.500000
      * Dispersion:
        s8                             2.700000
        a1                             0.520000
        a2                             5.000000
        s9                             5.000000
      * Repulsion:
        kExp                           1.500000    1.000000
        rExp                           1.000000
      * Coulomb:
        alpha                          2.000000
        third order                    shell-resolved
        anisotropic                    true
        a3                             3.000000
        a5                             4.000000
        cn-shift                       1.200000
        cn-exp                         4.000000
        max-rad                        5.000000

      * Solvation model:               ALPB
        Solvent                        water
        Parameter file                 internal GFN2-xTB/ALPB
        Dielectric constant                8.0200E+01
        Reference state                gsolv [1 M gas/solution]
        Free energy shift                  1.0808E-03 Eh       6.7819E-01 kcal/mol
        Temperature                        2.9815E+02 K
        Density                            1.0000E+00 kg/L
        Solvent mass                       1.8000E+01 g/mol
        Interaction kernel             P16
        Born radius scaling (c1)           1.4744E+00
        Born radii integrator          GBOBC
        Born offset                        0.0000E+00 a0       0.0000E+00 AA
        H-bond correction              true
        Ion screening                  false
        Surface tension                    1.0000E-05 Eh       1.5569E+01 dyn/cm
        Grid points                               230 per atom

          ...................................................
          :                      SETUP                      :
          :.................................................:
          :  # basis functions                  66          :
          :  # atomic orbitals                  65          :
          :  # shells                           41          :
          :  # electrons                        64          :
          :  max. iterations                   250          :
          :  Hamiltonian                  GFN2-xTB          :
          :  restarted?                      false          :
          :  GBSA solvation                   true          :
          :  PC potential                    false          :
          :  electronic temp.          300.0000000     K    :
          :  accuracy                    1.0000000          :
          :  -> integral cutoff          0.2500000E+02      :
          :  -> integral neglect         0.1000000E-07      :
          :  -> SCF convergence          0.1000000E-05 Eh   :
          :  -> wf. convergence          0.1000000E-03 e    :
          :  Broyden damping             0.4000000          :
          ...................................................

 iter      E             dE          RMSdq      gap      omega  full diag
   1    -35.1564902 -0.351565E+02  0.326E+00   10.66       0.0  T
   2    -35.2648412 -0.108351E+00  0.180E+00   10.30       1.0  T
   3    -35.2699177 -0.507645E-02  0.999E-01    9.99       1.0  T
   4    -35.2716058 -0.168814E-02  0.281E-01   10.07       1.0  T
   5    -35.2721087 -0.502912E-03  0.187E-01   10.13       1.0  T
   6    -35.2724944 -0.385742E-03  0.841E-02   10.17       1.0  T
   7    -35.2725535 -0.590551E-04  0.249E-02   10.18       1.0  T
   8    -35.2725555 -0.199065E-05  0.525E-03   10.17       3.5  T
   9    -35.2725556 -0.748630E-07  0.216E-03   10.17       8.4  T
  10    -35.2725556 -0.625622E-08  0.679E-04   10.17      26.9  T
  11    -35.2725556 -0.227285E-08  0.248E-04   10.17      73.7  T

   *** convergence criteria satisfied after 11 iterations ***

         #    Occupation            Energy/Eh            Energy/eV
      -------------------------------------------------------------
         1        2.0000           -1.0109697             -27.5099
       ...           ...                  ...                  ...
        26        2.0000           -0.4231629             -11.5148
        27        2.0000           -0.4165993             -11.3362
        28        2.0000           -0.4128720             -11.2348
        29        2.0000           -0.4118419             -11.2068
        30        2.0000           -0.4024005             -10.9499
        31        2.0000           -0.4023080             -10.9474
        32        2.0000           -0.3992212             -10.8634 (HOMO)
        33                         -0.0255203              -0.6944 (LUMO)
        34                          0.0611758               1.6647
        35                          0.0742722               2.0210
        36                          0.0940513               2.5593
        37                          0.1070834               2.9139
       ...                                ...                  ...
        65                          0.3204736               8.7205
      -------------------------------------------------------------
                  HL-Gap            0.3737009 Eh           10.1689 eV
             Fermi-level           -0.2123707 Eh           -5.7789 eV

 SCC (total)                   0 d,  0 h,  0 min,  0.043 sec
 SCC setup                      ...        0 min,  0.000 sec (  1.146%)
 Dispersion                     ...        0 min,  0.000 sec (  0.972%)
 classical contributions        ...        0 min,  0.000 sec (  0.179%)
 integral evaluation            ...        0 min,  0.001 sec (  3.181%)
 iterations                     ...        0 min,  0.036 sec ( 84.726%)
 molecular gradient             ...        0 min,  0.003 sec (  7.789%)
 printout                       ...        0 min,  0.001 sec (  1.259%)

         :::::::::::::::::::::::::::::::::::::::::::::::::::::
         ::                     SUMMARY                     ::
         :::::::::::::::::::::::::::::::::::::::::::::::::::::
         :: total energy             -34.846044242435 Eh    ::
         :: total w/o Gsasa/hb       -34.839092868090 Eh    ::
         :: gradient norm              0.033862849771 Eh/a0 ::
         :: HOMO-LUMO gap             10.168919711386 eV    ::
         ::.................................................::
         :: SCC energy               -35.272555572526 Eh    ::
         :: -> isotropic ES            0.106548962517 Eh    ::
         :: -> anisotropic ES         -0.022057463668 Eh    ::
         :: -> anisotropic XC          0.010237043751 Eh    ::
         :: -> dispersion             -0.018355760583 Eh    ::
         :: -> Gsolv                  -0.061333024686 Eh    ::
         ::    -> Gelec               -0.054381650341 Eh    ::
         ::    -> Gsasa               -0.001198286890 Eh    ::
         ::    -> Ghb                 -0.006833847154 Eh    ::
         ::    -> Gshift               0.001080759698 Eh    ::
         :: repulsion energy           0.426622556647 Eh    ::
         :: add. restraining           0.000000000000 Eh    ::
         :: total charge               0.000000000000 e     ::
         :::::::::::::::::::::::::::::::::::::::::::::::::::::

      ----------------------------------------------------------- 
     |                   =====================                   |
     |                        A N C O P T                        |
     |                   =====================                   |
     |               Approximate Normal Coordinate               |
     |                Rational Function Optimizer                |
      ----------------------------------------------------------- 

          ...................................................
          :                      SETUP                      :
          :.................................................:
          :   optimization level            normal          :
          :   max. optcycles                   200          :
          :   ANC micro-cycles                  20          :
          :   degrees of freedom                84          :
          :.................................................:
          :   RF solver                   davidson          :
          :   write xtbopt.log                true          :
          :   linear?                        false          :
          :   energy convergence         0.5000000E-05 Eh   :
          :   grad. convergence          0.1000000E-02 Eh/α :
          :   maximium RF displ.         1.0000000          :
          :   Hlow (freq-cutoff)         0.1000000E-01      :
          :   Hmax (freq-cutoff)         5.0000000          :
          :   S6 in model hess.         20.0000000          :
          ...................................................

generating ANC from model Hessian ...
Using Lindh-Hessian (1995)
 Shifting diagonal of input Hessian by    9.9822025132058605E-003
 Lowest  eigenvalues of input Hessian
    0.000000    0.000000    0.000000    0.000000    0.000000    0.000000
    0.010000    0.010484    0.011057    0.011394    0.011763    0.012982
    0.013339    0.014534    0.016319    0.018235    0.019381    0.020414
 Highest eigenvalues
    1.235951    1.256307    1.276345    1.294803    1.454276    1.538643


........................................................................
.............................. CYCLE    1 ..............................
........................................................................
   1    -35.2725556 -0.352726E+02  0.145E-04   10.17       0.0  T
   2    -35.2725556 -0.620375E-10  0.113E-04   10.17     161.5  T
   3    -35.2725556 -0.849738E-10  0.530E-05   10.17     344.2  T
     SCC iter.                  ...        0 min,  0.010 sec
     gradient                   ...        0 min,  0.003 sec
 * total energy  :   -34.8460442 Eh     change       -0.3434621E-09 Eh
   gradient norm :     0.0338621 Eh/α   predicted     0.0000000E+00 (-100.00%)
   displ. norm   :     0.3100068 α      lambda       -0.6786885E-02
   maximum displ.:     0.2329609 α      in ANC's #20, #23, #25, ...

........................................................................
.............................. CYCLE    2 ..............................
........................................................................
   1    -35.2843008 -0.352843E+02  0.205E-01   10.17       0.0  T
   2    -35.2843936 -0.927020E-04  0.113E-01   10.15       1.0  T
   3    -35.2843986 -0.507657E-05  0.294E-02   10.13       1.0  T
   4    -35.2843995 -0.824892E-06  0.519E-03   10.14       3.5  T
   5    -35.2843995 -0.725450E-07  0.299E-03   10.14       6.1  T
   6    -35.2843996 -0.369836E-07  0.155E-03   10.14      11.8  T
   7    -35.2843996 -0.146616E-07  0.104E-03   10.14      17.5  T
   8    -35.2843996 -0.104512E-07  0.313E-04   10.14      58.4  T
   9    -35.2843996 -0.720320E-09  0.143E-04   10.14     127.6  T
     SCC iter.                  ...        0 min,  0.028 sec
     gradient                   ...        0 min,  0.003 sec
 * total energy  :   -34.8500690 Eh     change       -0.4024750E-02 Eh
   gradient norm :     0.0209215 Eh/α   predicted    -0.3719616E-02 (  -7.58%)
   displ. norm   :     0.1516480 α      lambda       -0.1147768E-02
   maximum displ.:     0.0876692 α      in ANC's #20, #2, #5, ...

........................................................................
.............................. CYCLE    3 ..............................
........................................................................
   1    -35.2878072 -0.352878E+02  0.656E-02   10.14       0.0  T
   2    -35.2878194 -0.122277E-04  0.356E-02   10.14       1.0  T
   3    -35.2878204 -0.958857E-06  0.112E-02   10.13       1.6  T
   4    -35.2878206 -0.174532E-06  0.352E-03   10.13       5.2  T
   5    -35.2878206 -0.434609E-07  0.232E-03   10.13       7.9  T
   6    -35.2878206 -0.342353E-07  0.122E-03   10.13      14.9  T
   7    -35.2878207 -0.119771E-07  0.675E-04   10.13      27.1  T
   8    -35.2878207 -0.391578E-08  0.132E-04   10.13     138.2  T
     SCC iter.                  ...        0 min,  0.024 sec
     gradient                   ...        0 min,  0.003 sec
 * total energy  :   -34.8508510 Eh     change       -0.7819583E-03 Eh
   gradient norm :     0.0097394 Eh/α   predicted    -0.5870842E-03 ( -24.92%)
   displ. norm   :     0.1541607 α      lambda       -0.4141327E-03
   maximum displ.:     0.1026419 α      in ANC's #2, #5, #20, ...

........................................................................
.............................. CYCLE    4 ..............................
........................................................................
   1    -35.2887221 -0.352887E+02  0.413E-02   10.14       0.0  T
   2    -35.2887259 -0.373809E-05  0.242E-02   10.14       1.0  T
   3    -35.2887265 -0.629436E-06  0.745E-03   10.14       2.5  T
   4    -35.2887267 -0.177364E-06  0.392E-03   10.14       4.7  T
   5    -35.2887268 -0.763455E-07  0.264E-03   10.14       6.9  T
   6    -35.2887268 -0.640042E-07  0.955E-04   10.14      19.1  T
   7    -35.2887268 -0.667156E-08  0.397E-04   10.14      46.0  T
     SCC iter.                  ...        0 min,  0.021 sec
     gradient                   ...        0 min,  0.003 sec
 * total energy  :   -34.8511063 Eh     change       -0.2553154E-03 Eh
   gradient norm :     0.0030679 Eh/α   predicted    -0.2119889E-03 ( -16.97%)
   displ. norm   :     0.1098050 α      lambda       -0.1026390E-03
   maximum displ.:     0.0819371 α      in ANC's #2, #5, #11, ...

........................................................................
.............................. CYCLE    5 ..............................
........................................................................
   1    -35.2888058 -0.352888E+02  0.216E-02   10.14       0.0  T
   2    -35.2888061 -0.258830E-06  0.132E-02   10.14       1.4  T
   3    -35.2888063 -0.223488E-06  0.321E-03   10.14       5.7  T
   4    -35.2888064 -0.526595E-07  0.220E-03   10.14       8.3  T
   5    -35.2888064 -0.424128E-07  0.780E-04   10.14      23.4  T
   6    -35.2888064 -0.593814E-08  0.260E-04   10.14      70.3  T
     SCC iter.                  ...        0 min,  0.016 sec
     gradient                   ...        0 min,  0.002 sec
 * total energy  :   -34.8511879 Eh     change       -0.8160089E-04 Eh
   gradient norm :     0.0027167 Eh/α   predicted    -0.5195241E-04 ( -36.33%)
   displ. norm   :     0.1541005 α      lambda       -0.1146561E-03
   maximum displ.:     0.1087167 α      in ANC's #2, #5, #11, ...

........................................................................
.............................. CYCLE    6 ..............................
........................................................................
   1    -35.2886718 -0.352887E+02  0.278E-02   10.14       0.0  T
   2    -35.2886723 -0.467510E-06  0.169E-02   10.14       1.1  T
   3    -35.2886727 -0.388830E-06  0.434E-03   10.14       4.2  T
   4    -35.2886728 -0.845376E-07  0.320E-03   10.14       5.7  T
   5    -35.2886729 -0.932644E-07  0.931E-04   10.14      19.6  T
   6    -35.2886729 -0.699148E-08  0.383E-04   10.14      47.6  T
     SCC iter.                  ...        0 min,  0.016 sec
     gradient                   ...        0 min,  0.002 sec
 * total energy  :   -34.8512840 Eh     change       -0.9615610E-04 Eh
   gradient norm :     0.0037622 Eh/α   predicted    -0.5870750E-04 ( -38.95%)
   displ. norm   :     0.2104777 α      lambda       -0.1347405E-03
   maximum displ.:     0.1460098 α      in ANC's #2, #5, #11, ...

........................................................................
.............................. CYCLE    7 ..............................
........................................................................
   1    -35.2884216 -0.352884E+02  0.338E-02   10.13       0.0  T
   2    -35.2884224 -0.821135E-06  0.207E-02   10.13       1.0  T
   3    -35.2884231 -0.706294E-06  0.588E-03   10.13       3.1  T
   4    -35.2884233 -0.159214E-06  0.431E-03   10.13       4.2  T
   5    -35.2884235 -0.167241E-06  0.136E-03   10.13      13.4  T
   6    -35.2884235 -0.154783E-07  0.493E-04   10.13      37.0  T
   7    -35.2884235 -0.624155E-09  0.121E-04   10.13     150.6  T
     SCC iter.                  ...        0 min,  0.018 sec
     gradient                   ...        0 min,  0.002 sec
 * total energy  :   -34.8513998 Eh     change       -0.1158153E-03 Eh
   gradient norm :     0.0045448 Eh/α   predicted    -0.7035592E-04 ( -39.25%)
   displ. norm   :     0.2780104 α      lambda       -0.1566324E-03
   maximum displ.:     0.1931509 α      in ANC's #2, #5, #11, ...

........................................................................
.............................. CYCLE    8 ..............................
........................................................................
   1    -35.2881521 -0.352882E+02  0.411E-02   10.11       0.0  T
   2    -35.2881533 -0.120180E-05  0.257E-02   10.11       1.0  T
   3    -35.2881546 -0.129742E-05  0.777E-03   10.11       2.4  T
   4    -35.2881549 -0.308465E-06  0.543E-03   10.11       3.4  T
   5    -35.2881552 -0.281780E-06  0.141E-03   10.11      13.0  T
   6    -35.2881552 -0.122940E-07  0.517E-04   10.11      35.3  T
   7    -35.2881552 -0.564860E-09  0.102E-04   10.11     178.2  T
     SCC iter.                  ...        0 min,  0.018 sec
     gradient                   ...        0 min,  0.002 sec
 * total energy  :   -34.8515346 Eh     change       -0.1347565E-03 Eh
   gradient norm :     0.0041621 Eh/α   predicted    -0.8437162E-04 ( -37.39%)
   displ. norm   :     0.3413192 α      lambda       -0.1653540E-03
   maximum displ.:     0.2393576 α      in ANC's #2, #5, #3, ...

........................................................................
.............................. CYCLE    9 ..............................
........................................................................
   1    -35.2879890 -0.352880E+02  0.483E-02   10.09       0.0  T
   2    -35.2879908 -0.179094E-05  0.309E-02   10.09       1.0  T
   3    -35.2879930 -0.224749E-05  0.100E-02   10.10       1.8  T
   4    -35.2879936 -0.614555E-06  0.625E-03   10.10       2.9  T
   5    -35.2879940 -0.388405E-06  0.133E-03   10.10      13.8  T
   6    -35.2879940 -0.515217E-08  0.405E-04   10.10      45.1  T
   7    -35.2879940 -0.314053E-09  0.774E-05   10.10     235.9  T
     SCC iter.                  ...        0 min,  0.018 sec
     gradient                   ...        0 min,  0.003 sec
 * total energy  :   -34.8516687 Eh     change       -0.1341256E-03 Eh
   gradient norm :     0.0031994 Eh/α   predicted    -0.9231067E-04 ( -31.18%)
   displ. norm   :     0.2923225 α      lambda       -0.1133525E-03
   maximum displ.:     0.2096554 α      in ANC's #2, #5, #3, ...

........................................................................
.............................. CYCLE   10 ..............................
........................................................................
   1    -35.2882708 -0.352883E+02  0.402E-02   10.10       0.0  T
   2    -35.2882723 -0.147733E-05  0.261E-02   10.10       1.0  T
   3    -35.2882741 -0.181921E-05  0.901E-03   10.10       2.0  T
   4    -35.2882746 -0.473134E-06  0.592E-03   10.10       3.1  T
   5    -35.2882749 -0.337287E-06  0.117E-03   10.10      15.6  T
   6    -35.2882749 -0.721640E-08  0.506E-04   10.10      36.1  T
   7    -35.2882749 -0.364579E-09  0.914E-05   10.10     199.8  T
     SCC iter.                  ...        0 min,  0.020 sec
     gradient                   ...        0 min,  0.002 sec
 * total energy  :   -34.8517524 Eh     change       -0.8369448E-04 Eh
   gradient norm :     0.0027616 Eh/α   predicted    -0.6152021E-04 ( -26.49%)
   displ. norm   :     0.1610757 α      lambda       -0.5684730E-04
   maximum displ.:     0.1209278 α      in ANC's #2, #5, #4, ...

........................................................................
.............................. CYCLE   11 ..............................
........................................................................
   1    -35.2889891 -0.352890E+02  0.217E-02   10.13       0.0  T
   2    -35.2889896 -0.514035E-06  0.142E-02   10.13       1.3  T
   3    -35.2889901 -0.575432E-06  0.510E-03   10.13       3.6  T
   4    -35.2889903 -0.138424E-06  0.358E-03   10.13       5.1  T
   5    -35.2889904 -0.123202E-06  0.654E-04   10.13      27.9  T
   6    -35.2889904 -0.194256E-08  0.288E-04   10.13      63.5  T
     SCC iter.                  ...        0 min,  0.017 sec
     gradient                   ...        0 min,  0.003 sec
 * total energy  :   -34.8517956 Eh     change       -0.4319599E-04 Eh
   gradient norm :     0.0023645 Eh/α   predicted    -0.2916788E-04 ( -32.48%)
   displ. norm   :     0.1311219 α      lambda       -0.4392006E-04
   maximum displ.:     0.0991483 α      in ANC's #2, #5, #7, ...

........................................................................
.............................. CYCLE   12 ..............................
........................................................................
   1    -35.2894295 -0.352894E+02  0.180E-02   10.15       0.0  T
   2    -35.2894299 -0.318263E-06  0.117E-02   10.15       1.6  T
   3    -35.2894302 -0.349447E-06  0.396E-03   10.15       4.6  T
   4    -35.2894303 -0.822366E-07  0.279E-03   10.15       6.5  T
   5    -35.2894304 -0.743897E-07  0.665E-04   10.15      27.5  T
   6    -35.2894304 -0.298294E-08  0.242E-04   10.15      75.6  T
     SCC iter.                  ...        0 min,  0.017 sec
     gradient                   ...        0 min,  0.003 sec
 * total energy  :   -34.8518288 Eh     change       -0.3321625E-04 Eh
   gradient norm :     0.0020902 Eh/α   predicted    -0.2233817E-04 ( -32.75%)
   displ. norm   :     0.1154560 α      lambda       -0.3080626E-04
   maximum displ.:     0.0851588 α      in ANC's #2, #7, #5, ...

........................................................................
.............................. CYCLE   13 ..............................
........................................................................
   1    -35.2894438 -0.352894E+02  0.159E-02   10.16       0.0  T
   2    -35.2894440 -0.204211E-06  0.102E-02   10.16       1.8  T
   3    -35.2894443 -0.235572E-06  0.323E-03   10.16       5.7  T
   4    -35.2894443 -0.595152E-07  0.214E-03   10.16       8.5  T
   5    -35.2894444 -0.437006E-07  0.589E-04   10.16      31.0  T
   6    -35.2894444 -0.237426E-08  0.212E-04   10.16      86.1  T
     SCC iter.                  ...        0 min,  0.017 sec
     gradient                   ...        0 min,  0.002 sec
 * total energy  :   -34.8518517 Eh     change       -0.2284229E-04 Eh
   gradient norm :     0.0016367 Eh/α   predicted    -0.1560995E-04 ( -31.66%)
   displ. norm   :     0.1242067 α      lambda       -0.1855442E-04
   maximum displ.:     0.0835134 α      in ANC's #2, #7, #1, ...

........................................................................
.............................. CYCLE   14 ..............................
........................................................................
   1    -35.2892945 -0.352893E+02  0.175E-02   10.15       0.0  T
   2    -35.2892947 -0.200993E-06  0.109E-02   10.15       1.7  T
   3    -35.2892949 -0.207607E-06  0.308E-03   10.15       5.9  T
   4    -35.2892950 -0.510666E-07  0.210E-03   10.15       8.7  T
   5    -35.2892950 -0.409404E-07  0.654E-04   10.15      27.9  T
   6    -35.2892950 -0.347842E-08  0.247E-04   10.15      73.8  T
     SCC iter.                  ...        0 min,  0.016 sec
     gradient                   ...        0 min,  0.002 sec
 * total energy  :   -34.8518690 Eh     change       -0.1732678E-04 Eh
   gradient norm :     0.0009434 Eh/α   predicted    -0.9346690E-05 ( -46.06%)
   displ. norm   :     0.0531525 α      lambda       -0.7624978E-05
   maximum displ.:     0.0261409 α      in ANC's #5, #2, #1, ...

........................................................................
.............................. CYCLE   15 ..............................
........................................................................
   1    -35.2892313 -0.352892E+02  0.810E-03   10.14       0.0  T
   2    -35.2892314 -0.288535E-07  0.494E-03   10.14       3.7  T
   3    -35.2892314 -0.235135E-07  0.106E-03   10.14      17.2  T
   4    -35.2892314 -0.440423E-08  0.817E-04   10.14      22.4  T
   5    -35.2892314 -0.616057E-08  0.221E-04   10.14      82.6  T
     SCC iter.                  ...        0 min,  0.013 sec
     gradient                   ...        0 min,  0.002 sec
 * total energy  :   -34.8518784 Eh     change       -0.9402717E-05 Eh
   gradient norm :     0.0008390 Eh/α   predicted    -0.3819067E-05 ( -59.38%)
   displ. norm   :     0.0806149 α      lambda       -0.1026068E-04
   maximum displ.:     0.0490671 α      in ANC's #5, #3, #2, ...

........................................................................
.............................. CYCLE   16 ..............................
........................................................................
   1    -35.2891616 -0.352892E+02  0.129E-02   10.13       0.0  T
   2    -35.2891617 -0.433475E-07  0.779E-03   10.13       2.3  T
   3    -35.2891617 -0.414609E-07  0.138E-03   10.13      13.3  T
   4    -35.2891617 -0.799151E-08  0.102E-03   10.13      17.8  T
   5    -35.2891617 -0.955518E-08  0.310E-04   10.13      58.9  T
   6    -35.2891617 -0.710720E-09  0.119E-04   10.13     153.0  T
     SCC iter.                  ...        0 min,  0.015 sec
     gradient                   ...        0 min,  0.002 sec
 * total energy  :   -34.8518902 Eh     change       -0.1181216E-04 Eh
   gradient norm :     0.0009797 Eh/α   predicted    -0.5146289E-05 ( -56.43%)
   displ. norm   :     0.0782524 α      lambda       -0.7542294E-05
   maximum displ.:     0.0499820 α      in ANC's #5, #2, #3, ...

........................................................................
.............................. CYCLE   17 ..............................
........................................................................
   1    -35.2891602 -0.352892E+02  0.121E-02   10.13       0.0  T
   2    -35.2891602 -0.226807E-07  0.729E-03   10.13       2.5  T
   3    -35.2891602 -0.245850E-07  0.104E-03   10.13      17.5  T
   4    -35.2891602 -0.648478E-08  0.611E-04   10.13      29.9  T
   5    -35.2891602 -0.348357E-08  0.220E-04   10.13      83.1  T
     SCC iter.                  ...        0 min,  0.013 sec
     gradient                   ...        0 min,  0.002 sec
 * total energy  :   -34.8518993 Eh     change       -0.9039547E-05 Eh
   gradient norm :     0.0008651 Eh/α   predicted    -0.3783584E-05 ( -58.14%)
   displ. norm   :     0.0710678 α      lambda       -0.6183957E-05
   maximum displ.:     0.0438510 α      in ANC's #5, #2, #3, ...

........................................................................
.............................. CYCLE   18 ..............................
........................................................................
   1    -35.2891812 -0.352892E+02  0.112E-02   10.13       0.0  T
   2    -35.2891812 -0.144357E-07  0.661E-03   10.13       2.8  T
   3    -35.2891812 -0.899838E-08  0.592E-04   10.13      30.8  T
   4    -35.2891812 -0.118592E-08  0.447E-04   10.13      40.9  T
     SCC iter.                  ...        0 min,  0.010 sec
     gradient                   ...        0 min,  0.002 sec
 * total energy  :   -34.8519067 Eh     change       -0.7468933E-05 Eh
   gradient norm :     0.0005117 Eh/α   predicted    -0.3100517E-05 ( -58.49%)
   displ. norm   :     0.0695248 α      lambda       -0.5063464E-05
   maximum displ.:     0.0419322 α      in ANC's #2, #5, #6, ...

........................................................................
.............................. CYCLE   19 ..............................
........................................................................
   1    -35.2892167 -0.352892E+02  0.106E-02   10.14       0.0  T
   2    -35.2892167 -0.138248E-07  0.622E-03   10.14       2.9  T
   3    -35.2892167 -0.519115E-08  0.368E-04   10.14      49.5  T
   4    -35.2892167 -0.320199E-09  0.245E-04   10.14      74.5  T
     SCC iter.                  ...        0 min,  0.010 sec
     gradient                   ...        0 min,  0.002 sec
 * total energy  :   -34.8519125 Eh     change       -0.5754494E-05 Eh
   gradient norm :     0.0002750 Eh/α   predicted    -0.2537927E-05 ( -55.90%)
   displ. norm   :     0.0519048 α      lambda       -0.2868028E-05
   maximum displ.:     0.0365004 α      in ANC's #2, #5, #6, ...

........................................................................
.............................. CYCLE   20 ..............................
........................................................................
   1    -35.2892372 -0.352892E+02  0.804E-03   10.15       0.0  T
   2    -35.2892372 -0.695152E-08  0.471E-03   10.15       3.9  T
   3    -35.2892372 -0.276815E-08  0.261E-04   10.15      69.9  T
   4    -35.2892372 -0.202412E-09  0.168E-04   10.15     108.9  T
     SCC iter.                  ...        0 min,  0.010 sec
     gradient                   ...        0 min,  0.002 sec
 * total energy  :   -34.8519158 Eh     change       -0.3353759E-05 Eh
   gradient norm :     0.0003451 Eh/α   predicted    -0.1438603E-05 ( -57.10%)
   displ. norm   :     0.0344548 α      lambda       -0.1952928E-05
   maximum displ.:     0.0266383 α      in ANC's #2, #5, #8, ...

   *** GEOMETRY OPTIMIZATION CONVERGED AFTER 20 ITERATIONS ***

------------------------------------------------------------------------
 total energy gain   :        -0.0058716 Eh       -3.6845 kcal/mol
 total RMSD          :         0.3908557 a0        0.2068 Å
 total power (kW/mol):        -0.7707923 (step)  -34.6093 (real)
------------------------------------------------------------------------

 ANCopt (total)                0 d,  0 h,  0 min,  0.445 sec
 optimizer setup                ...        0 min,  0.000 sec (  0.026%)
 model hessian                  ...        0 min,  0.014 sec (  3.207%)
 ANC generation                 ...        0 min,  0.003 sec (  0.784%)
 coordinate transformation      ...        0 min,  0.000 sec (  0.110%)
 single point calculation       ...        0 min,  0.420 sec ( 94.332%)
 optimization log               ...        0 min,  0.002 sec (  0.520%)
 hessian update                 ...        0 min,  0.001 sec (  0.131%)
 rational function              ...        0 min,  0.002 sec (  0.415%)

================
 final structure:
================
30
 xtb: 6.5.1 (fef0646)
N            0.79917406791844        1.82455537133517       -1.41696728568678
C            2.25193621807018        2.08312557929352       -1.48662726843018
C            2.92615410604918        1.59851308313024       -0.20816091050784
C            4.45138821473956        1.60692696960823       -0.31054993960102
C            5.03742015289353        3.00886054772254       -0.47488742226610
C            6.56435892660194        2.99209762425132       -0.44330994930908
C            7.15352334157308        4.38482236328885       -0.65692405769192
C            8.67990919964831        4.37934673427096       -0.62154617188502
C            9.25711461631553        5.76948187045442       -0.86272854381020
Cl           0.26330827113367       -1.15994969015435       -1.00131569354854
H            0.32242974816975        2.11652683263805       -2.27281161855303
H            0.38685892302606        2.30145315474455       -0.61167448765752
H            0.62225353106141        0.79576469757283       -1.28724731783276
H            2.41831624593376        3.15072268351483       -1.62854886130209
H            2.66148491864569        1.53700107568273       -2.33588214335004
H            2.59102790159858        0.57718062704873       -0.01579723068981
H            2.62236580407456        2.21942575685097        0.63565629703788
H            4.76154504868473        0.98270433305982       -1.15077106886444
H            4.86309422075211        1.15731110394657        0.59531407540115
H            4.67220626010221        3.65126754613750        0.32876554969923
H            4.71677022065229        3.43658128324362       -1.42511695877729
H            6.93485546303797        2.32131472480349       -1.22225915516118
H            6.90647109368914        2.59808160882346        0.51677778850023
H            6.78014833978091        5.05838842604623        0.11790119931630
H            6.82090396240051        4.77310198090404       -1.62229737119291
H            9.05605687545728        3.69341668810221       -1.38417192670727
H            9.01765153557585        4.00917173754316        0.34927719394811
H            8.95397779157170        6.14336902367872       -1.83811817595971
H           10.34355181873367        5.74508691842473       -0.82688256098997
H            8.90400318210803        6.46502934403241       -0.10469598412746

 Bond Distances (Angstroems)
 ---------------------------
N1-C2=1.4772         N1-H11=1.0223        N1-H12=1.0227        N1-H13=1.0519        C2-N1=1.4772         C2-C3=1.5244         
C2-H14=1.0898        C2-H15=1.0896        C3-C2=1.5244         C3-C4=1.5287         C3-H16=1.0920        C3-H17=1.0908        
C4-C3=1.5287         C4-C5=1.5284         C4-H18=1.0917        C4-H19=1.0919        C5-C4=1.5284         C5-C6=1.5274         
C5-H20=1.0918        C5-H21=1.0903        C6-C5=1.5274         C6-C7=1.5272         C6-H22=1.0927        C6-H23=1.0927        
C7-C6=1.5272         C7-C8=1.5268         C7-H24=1.0925        C7-H25=1.0924        C8-C7=1.5268         C8-C9=1.5244         
C8-H26=1.0925        C8-H27=1.0925        C9-C8=1.5244         C9-H28=1.0877        C9-H29=1.0873        C9-H30=1.0877        
H11-N1=1.0223        H12-N1=1.0227        H13-N1=1.0519        H14-C2=1.0898        H15-C2=1.0896        H16-C3=1.0920        
H17-C3=1.0908        H18-C4=1.0917        H19-C4=1.0919        H20-C5=1.0918        H21-C5=1.0903        H22-C6=1.0927        
H23-C6=1.0927        H24-C7=1.0925        H25-C7=1.0924        H26-C8=1.0925        H27-C8=1.0925        H28-C9=1.0877        
H29-C9=1.0873        H30-C9=1.0877        
 C  H  Rav=1.0909 sigma=0.0018  Rmin=1.0873  Rmax=1.0927    17
 C  C  Rav=1.5268 sigma=0.0016  Rmin=1.5244  Rmax=1.5287     7
 N  H  Rav=1.0323 sigma=0.0139  Rmin=1.0223  Rmax=1.0519     3
 N  C  Rav=1.4772 sigma=0.0000  Rmin=1.4772  Rmax=1.4772     1

 selected bond angles (degree)
 --------------------
H11-N1-C2=111.66               H12-N1-C2=110.61               H12-N1-H11=109.76              H13-N1-C2=110.02               
H13-N1-H11=107.71              H13-N1-H12=106.93              C3-C2-N1=109.86                H14-C2-N1=109.13               
H14-C2-C3=110.68               H15-C2-N1=108.58               H15-C2-C3=109.15               H15-C2-H14=109.40              
C4-C3-C2=112.54                H16-C3-C2=108.02               H16-C3-C4=108.85               H17-C3-C2=110.16               
H17-C3-C4=109.06               H17-C3-H16=108.10              C5-C4-C3=113.26                H18-C4-C3=109.38               
H18-C4-C5=109.44               H19-C4-C3=108.56               H19-C4-C5=108.80               H19-C4-H18=107.21              
C6-C5-C4=111.78                H20-C5-C4=109.41               H20-C5-C6=109.01               H21-C5-C4=109.93               
H21-C5-C6=108.44               H21-C5-H20=108.20              C7-C6-C5=111.89                H22-C6-C5=109.33               
H22-C6-C7=109.23               H23-C6-C5=109.58               H23-C6-C7=109.33               H23-C6-H22=107.39              
C8-C7-C6=112.28                H24-C7-C6=109.34               H24-C7-C8=109.11               H25-C7-C6=109.29               
H25-C7-C8=109.04               H25-C7-H24=107.67              C9-C8-C7=111.81                H26-C8-C7=109.29               
H26-C8-C9=109.37               H27-C8-C7=109.32               H27-C8-C9=109.42               H27-C8-H26=107.53              
H28-C9-C8=110.48               H29-C9-C8=110.65               H29-C9-H28=108.41              H30-C9-C8=110.48               
H30-C9-H28=108.34              H30-C9-H29=108.41              

 selected dihedral angles (degree)
 ---------------------------------
C3-C2-N1-H11=181.54           C3-C2-N1-H12= 59.00           C3-C2-N1-H13=301.09           H14-C2-N1-H11= 60.03          
H14-C2-N1-H12=297.48          H14-C2-N1-H13=179.57          H15-C2-N1-H11=300.85          H15-C2-N1-H12=178.31          
H15-C2-N1-H13= 60.39          C4-C3-C2-N1=169.86            C4-C3-C2-H14=290.44           C4-C3-C2-H15= 50.90           
H16-C3-C2-N1= 49.66           H16-C3-C2-H14=170.25          H16-C3-C2-H15=290.71          H17-C3-C2-N1=291.80           
H17-C3-C2-H14= 52.38          H17-C3-C2-H15=172.84          C5-C4-C3-C2= 64.63            C5-C4-C3-H16=184.34           
C5-C4-C3-H17=302.07           H18-C4-C3-C2=302.28           H18-C4-C3-H16= 61.99          H18-C4-C3-H17=179.72          
H19-C4-C3-C2=185.59           H19-C4-C3-H16=305.30          H19-C4-C3-H17= 63.03          C6-C5-C4-C3=174.70            
C6-C5-C4-H18=297.02           C6-C5-C4-H19= 53.88           H20-C5-C4-C3= 53.86           H20-C5-C4-H18=176.18          
H20-C5-C4-H19=293.04          H21-C5-C4-C3=295.18           H21-C5-C4-H18= 57.50          H21-C5-C4-H19=174.35          
C7-C6-C5-C4=177.97            C7-C6-C5-H20=299.05           C7-C6-C5-H21= 56.63           H22-C6-C5-C4= 56.84           
H22-C6-C5-H20=177.92          H22-C6-C5-H21=295.51          H23-C6-C5-C4=299.40           H23-C6-C5-H20= 60.48          
H23-C6-C5-H21=178.06          C8-C7-C6-C5=179.77            C8-C7-C6-H22=300.96           C8-C7-C6-H23= 58.20           
H24-C7-C6-C5= 58.52           H24-C7-C6-H22=179.71          H24-C7-C6-H23=296.94          H25-C7-C6-C5=300.89           
H25-C7-C6-H22= 62.08          H25-C7-C6-H23=179.32          C9-C8-C7-C6=178.89            C9-C8-C7-H24=300.28           
C9-C8-C7-H25= 57.63           H26-C8-C7-C6= 57.65           H26-C8-C7-H24=179.04          H26-C8-C7-H25=296.39          
H27-C8-C7-C6=300.22           H27-C8-C7-H24= 61.60          H27-C8-C7-H25=178.96          H28-C9-C8-C7=299.68           
H28-C9-C8-H26= 60.87          H28-C9-C8-H27=178.41          H29-C9-C8-C7=179.62           H29-C9-C8-H26=300.81          
H29-C9-C8-H27= 58.35          H30-C9-C8-C7= 59.55           H30-C9-C8-H26=180.74          H30-C9-C8-H27=298.28          

 CMA Distance (Angstroems)
 ---------------------------
R(CMA):  6.4752
           -------------------------------------------------
          |                Final Singlepoint                |
           -------------------------------------------------

          ...................................................
          :                      SETUP                      :
          :.................................................:
          :  # basis functions                  66          :
          :  # atomic orbitals                  65          :
          :  # shells                           41          :
          :  # electrons                        64          :
          :  max. iterations                   250          :
          :  Hamiltonian                  GFN2-xTB          :
          :  restarted?                      false          :
          :  GBSA solvation                   true          :
          :  PC potential                    false          :
          :  electronic temp.          300.0000000     K    :
          :  accuracy                    1.0000000          :
          :  -> integral cutoff          0.2500000E+02      :
          :  -> integral neglect         0.1000000E-07      :
          :  -> SCF convergence          0.1000000E-05 Eh   :
          :  -> wf. convergence          0.1000000E-03 e    :
          :  Broyden damping             0.4000000          :
          ...................................................

 iter      E             dE          RMSdq      gap      omega  full diag
   1    -35.2892372 -0.352892E+02  0.810E-05   10.15       0.0  T
   2    -35.2892372 -0.225455E-10  0.662E-05   10.15     276.0  T
   3    -35.2892372 -0.375380E-10  0.255E-05   10.15     717.2  T

   *** convergence criteria satisfied after 3 iterations ***

         #    Occupation            Energy/Eh            Energy/eV
      -------------------------------------------------------------
         1        2.0000           -1.0059794             -27.3741
       ...           ...                  ...                  ...
        26        2.0000           -0.4222564             -11.4902
        27        2.0000           -0.4177205             -11.3668
        28        2.0000           -0.4144590             -11.2780
        29        2.0000           -0.4131969             -11.2437
        30        2.0000           -0.4021423             -10.9428
        31        2.0000           -0.4001852             -10.8896
        32        2.0000           -0.3997145             -10.8768 (HOMO)
        33                         -0.0268506              -0.7306 (LUMO)
        34                          0.0553835               1.5071
        35                          0.0753775               2.0511
        36                          0.0998482               2.7170
        37                          0.1008122               2.7432
       ...                                ...                  ...
        65                          0.3262970               8.8790
      -------------------------------------------------------------
                  HL-Gap            0.3728639 Eh           10.1461 eV
             Fermi-level           -0.2132825 Eh           -5.8037 eV

 SCC (total)                   0 d,  0 h,  0 min,  0.012 sec
 SCC setup                      ...        0 min,  0.000 sec (  1.682%)
 Dispersion                     ...        0 min,  0.000 sec (  1.643%)
 classical contributions        ...        0 min,  0.000 sec (  0.318%)
 integral evaluation            ...        0 min,  0.001 sec (  5.828%)
 iterations                     ...        0 min,  0.008 sec ( 65.752%)
 molecular gradient             ...        0 min,  0.002 sec ( 19.230%)
 printout                       ...        0 min,  0.001 sec (  4.362%)

         :::::::::::::::::::::::::::::::::::::::::::::::::::::
         ::                     SUMMARY                     ::
         :::::::::::::::::::::::::::::::::::::::::::::::::::::
         :: total energy             -34.851915828088 Eh    ::
         :: total w/o Gsasa/hb       -34.844131626417 Eh    ::
         :: gradient norm              0.000345518641 Eh/a0 ::
         :: HOMO-LUMO gap             10.146142051842 eV    ::
         ::.................................................::
         :: SCC energy               -35.289237227375 Eh    ::
         :: -> isotropic ES            0.121921566766 Eh    ::
         :: -> anisotropic ES         -0.023759080692 Eh    ::
         :: -> anisotropic XC          0.009979902694 Eh    ::
         :: -> dispersion             -0.018313174359 Eh    ::
         :: -> Gsolv                  -0.072754262607 Eh    ::
         ::    -> Gelec               -0.064970060937 Eh    ::
         ::    -> Gsasa               -0.001219547130 Eh    ::
         ::    -> Ghb                 -0.007645414239 Eh    ::
         ::    -> Gshift               0.001080759698 Eh    ::
         :: repulsion energy           0.437435713483 Eh    ::
         :: add. restraining           0.000000000000 Eh    ::
         :: total charge              -0.000000000000 e     ::
         :::::::::::::::::::::::::::::::::::::::::::::::::::::

           -------------------------------------------------
          |                Property Printout                |
           -------------------------------------------------

    * Orbital Energies and Occupations

         #    Occupation            Energy/Eh            Energy/eV
      -------------------------------------------------------------
         1        2.0000           -1.0059794             -27.3741
       ...           ...                  ...                  ...
        20        2.0000           -0.4629833             -12.5984
        21        2.0000           -0.4574597             -12.4481
        22        2.0000           -0.4514430             -12.2844
        23        2.0000           -0.4416946             -12.0191
        24        2.0000           -0.4319309             -11.7534
        25        2.0000           -0.4300885             -11.7033
        26        2.0000           -0.4222564             -11.4902
        27        2.0000           -0.4177205             -11.3668
        28        2.0000           -0.4144590             -11.2780
        29        2.0000           -0.4131969             -11.2437
        30        2.0000           -0.4021423             -10.9428
        31        2.0000           -0.4001852             -10.8896
        32        2.0000           -0.3997145             -10.8768 (HOMO)
        33                         -0.0268506              -0.7306 (LUMO)
        34                          0.0553835               1.5071
        35                          0.0753775               2.0511
        36                          0.0998482               2.7170
        37                          0.1008122               2.7432
        38                          0.1154123               3.1405
        39                          0.1170716               3.1857
        40                          0.1176581               3.2016
        41                          0.1179758               3.2103
        42                          0.1196841               3.2568
        43                          0.1199671               3.2645
       ...                                ...                  ...
        65                          0.3262970               8.8790
      -------------------------------------------------------------
                  HL-Gap            0.3728639 Eh           10.1461 eV
             Fermi-level           -0.2132825 Eh           -5.8037 eV

     #   Z          covCN         q      C6AA      α(0)
     1   7 N        3.484    -0.171    24.678     7.378
     2   6 C        3.732    -0.025    21.118     6.559
     3   6 C        3.803    -0.079    22.002     6.678
     4   6 C        3.803    -0.064    21.735     6.637
     5   6 C        3.803    -0.071    21.850     6.655
     6   6 C        3.803    -0.063    21.706     6.633
     7   6 C        3.803    -0.065    21.744     6.639
     8   6 C        3.801    -0.058    21.610     6.619
     9   6 C        3.752    -0.111    22.684     6.792
    10  17 Cl       0.047    -0.948   124.917    17.010
    11   1 H        0.859     0.304     0.703     1.313
    12   1 H        0.859     0.297     0.724     1.333
    13   1 H        0.904     0.292     0.733     1.339
    14   1 H        0.925     0.103     1.755     2.072
    15   1 H        0.925     0.096     1.824     2.112
    16   1 H        0.924     0.057     2.239     2.340
    17   1 H        0.924     0.060     2.202     2.321
    18   1 H        0.924     0.036     2.496     2.471
    19   1 H        0.924     0.036     2.506     2.476
    20   1 H        0.924     0.042     2.429     2.437
    21   1 H        0.924     0.044     2.394     2.419
    22   1 H        0.924     0.029     2.604     2.523
    23   1 H        0.924     0.027     2.634     2.538
    24   1 H        0.924     0.034     2.536     2.490
    25   1 H        0.924     0.035     2.513     2.479
    26   1 H        0.924     0.029     2.608     2.525
    27   1 H        0.924     0.028     2.621     2.532
    28   1 H        0.925     0.037     2.485     2.465
    29   1 H        0.925     0.034     2.528     2.486
    30   1 H        0.925     0.037     2.494     2.470

 Mol. C6AA /au·bohr⁶  :       6764.797340
 Mol. C8AA /au·bohr⁸  :     157038.192663
 Mol. α(0) /au        :        122.742012


Wiberg/Mayer (AO) data.
largest (>0.10) Wiberg bond orders for each atom

 ---------------------------------------------------------------------------
     #   Z sym  total        # sym  WBO       # sym  WBO       # sym  WBO
 ---------------------------------------------------------------------------
     1   7 N    3.645 --     2 C    0.967    12 H    0.897    11 H    0.894
                            13 H    0.834
     2   6 C    3.930 --     3 C    1.009    15 H    0.969     1 N    0.967
                            14 H    0.967
     3   6 C    3.992 --     2 C    1.009     4 C    1.005    17 H    0.974
                            16 H    0.972
     4   6 C    3.995 --     5 C    1.007     3 C    1.005    18 H    0.977
                            19 H    0.976
     5   6 C    3.996 --     4 C    1.007     6 C    1.007    20 H    0.977
                            21 H    0.975
     6   6 C    3.997 --     7 C    1.007     5 C    1.007    23 H    0.978
                            22 H    0.977
     7   6 C    3.997 --     8 C    1.008     6 C    1.007    24 H    0.977
                            25 H    0.977
     8   6 C    3.997 --     9 C    1.019     7 C    1.008    27 H    0.979
                            26 H    0.979
     9   6 C    3.996 --     8 C    1.019    30 H    0.988    28 H    0.988
                            29 H    0.987
    10  17 Cl   0.101
    11   1 H    0.908 --     1 N    0.894
    12   1 H    0.912 --     1 N    0.897
    13   1 H    0.915 --     1 N    0.834
    14   1 H    0.989 --     2 C    0.967
    15   1 H    0.991 --     2 C    0.969
    16   1 H    0.996 --     3 C    0.972
    17   1 H    0.996 --     3 C    0.974
    18   1 H    0.999 --     4 C    0.977
    19   1 H    0.998 --     4 C    0.976
    20   1 H    0.998 --     5 C    0.977
    21   1 H    0.998 --     5 C    0.975
    22   1 H    0.999 --     6 C    0.977
    23   1 H    0.999 --     6 C    0.978
    24   1 H    0.999 --     7 C    0.977
    25   1 H    0.999 --     7 C    0.977
    26   1 H    0.999 --     8 C    0.979
    27   1 H    0.999 --     8 C    0.979
    28   1 H    0.999 --     9 C    0.988
    29   1 H    0.998 --     9 C    0.987
    30   1 H    0.999 --     9 C    0.988
 ---------------------------------------------------------------------------

Topologies differ in total number of bonds
Writing topology from bond orders to xtbtopo.mol

molecular dipole:
                 x           y           z       tot (Debye)
 q only:        1.141       5.399      -0.712
   full:        0.903       4.668      -0.614      12.186
molecular quadrupole (traceless):
                xx          xy          yy          xz          yz          zz
 q only:       -2.520      10.909       4.452      -5.162     -19.324      -1.933
  q+dip:       -5.661       8.348       6.588      -4.103     -16.494      -0.927
   full:       -4.391       8.951       6.439      -4.023     -16.891      -2.048

           -------------------------------------------------
          |                Geometry Summary                 |
           -------------------------------------------------

      molecular mass/u    :      165.7043430
   center of mass at/Å    :        4.1162018       2.1593809      -0.7934672
  moments of inertia/u·Å² :        0.1419279E+03   0.2418591E+04   0.2505278E+04
rotational constants/cm⁻¹ :        0.1187760E+00   0.6970023E-02   0.6728846E-02

 * 28 selected distances

     #   Z          #   Z                                           value/Å
     1   7 N        2   6 C                                       1.4772371
     2   6 C        3   6 C                                       1.5244329
     3   6 C        4   6 C                                       1.5286902 (max)
     4   6 C        5   6 C                                       1.5283515
     5   6 C        6   6 C                                       1.5273574
     6   6 C        7   6 C                                       1.5272290
     7   6 C        8   6 C                                       1.5268057
     8   6 C        9   6 C                                       1.5244052
     1   7 N       11   1 H                                       1.0222535 (min)
     1   7 N       12   1 H                                       1.0227081
     1   7 N       13   1 H                                       1.0519214
     2   6 C       14   1 H                                       1.0897650
     2   6 C       15   1 H                                       1.0895945
     3   6 C       16   1 H                                       1.0919861
     3   6 C       17   1 H                                       1.0908013
     4   6 C       18   1 H                                       1.0917064
     4   6 C       19   1 H                                       1.0919002
     5   6 C       20   1 H                                       1.0917538
     5   6 C       21   1 H                                       1.0902742
     6   6 C       22   1 H                                       1.0926937
     6   6 C       23   1 H                                       1.0927296
     7   6 C       24   1 H                                       1.0924534
     7   6 C       25   1 H                                       1.0924022
     8   6 C       26   1 H                                       1.0925133
     8   6 C       27   1 H                                       1.0925189
     9   6 C       28   1 H                                       1.0876896
     9   6 C       29   1 H                                       1.0873022
     9   6 C       30   1 H                                       1.0876983

 * 4 distinct bonds (by element types)

   Z      Z             #   av. dist./Å        max./Å        min./Å
   1 H    6 C          17     1.0909284     1.0927296     1.0873022
   6 C    6 C           7     1.5267531     1.5286902     1.5244052
   1 H    7 N           3     1.0322943     1.0519214     1.0222535
   6 C    7 N           1     1.4772371     1.4772371     1.4772371


optimized geometry written to: xtbopt.xyz


           -------------------------------------------------
          | TOTAL ENERGY              -34.851915828088 Eh   |
          | GRADIENT NORM               0.000345518641 Eh/α |
          | HOMO-LUMO GAP              10.146142051842 eV   |
           -------------------------------------------------

------------------------------------------------------------------------
 * finished run on 2023/01/24 at 14:57:51.849     
------------------------------------------------------------------------
 total:
 * wall-time:     0 d,  0 h,  0 min,  0.520 sec
 *  cpu-time:     0 d,  0 h,  0 min, 51.458 sec
 * ratio c/w:    98.958 speedup
 SCF:
 * wall-time:     0 d,  0 h,  0 min,  0.043 sec
 *  cpu-time:     0 d,  0 h,  0 min,  6.059 sec
 * ratio c/w:   141.368 speedup
 ANC optimizer:
 * wall-time:     0 d,  0 h,  0 min,  0.459 sec
 *  cpu-time:     0 d,  0 h,  0 min, 43.037 sec
 * ratio c/w:    93.847 speedup

