25
 energy: -33.909654817226 gnorm: 0.000417487770 xtb: 6.5.1 (fef0646)
N            1.10132730395536        0.38879643094178        0.25716477511539
C            2.57474716062529        0.30579700019029        0.18930325890287
C            3.05539728359956       -0.96986419576308        0.86898371344651
C            4.55597457557104       -1.18787568060035        0.64539622167739
C            5.01935690058986       -2.43798845839224        1.33790132858170
C            4.72637038910475       -3.68551370051484        0.79914509857277
C            5.12391278504282       -4.84353667965935        1.44221963821250
C            5.82288277079661       -4.77056126062840        2.63609287713146
C            6.11850720623577       -3.53355703973606        3.18195642146695
C            5.71648146047575       -2.37644859916305        2.53713854719325
Cl          -0.07029666811413       -2.07374616886282       -1.13330460983062
H            0.74742889511355        1.22077227273971       -0.22010128395709
H            0.78163267675513        0.38327501754194        1.22861663783633
H            0.68143867425248       -0.45200213489649       -0.21561635974682
H            3.01312607572928        1.18116213625323        0.67021420147034
H            2.87043406137500        0.28684002329115       -0.85948340479471
H            2.50056768166541       -1.81531385221612        0.45806007137236
H            2.86098752618835       -0.92774016187929        1.94154353175798
H            5.11067010016808       -0.33005161733525        1.02778516089430
H            4.74829621685505       -1.27501942693630       -0.42548970630761
H            4.18120416303362       -3.74953961179555       -0.13224711386685
H            4.88929197276366       -5.80636221319192        1.01116262638813
H            6.13520853840064       -5.67525098150496        3.13661350347789
H            6.66358003158681       -3.47121204840253        4.11234251630754
H            5.95205221822979       -1.41493904947933        2.96940234869875
