15
 energy: -16.107643299612 gnorm: 0.000262663523 xtb: 6.5.1 (fef0646)
N            0.92135382243528       -0.01551218085411        0.05652962863643
C            2.41977728884744       -0.05155460980354        0.07066125165917
C            2.91996439005810       -1.16851301829568        0.97930722736957
C            4.42605056482373       -1.19434989866735        0.98118955460642
C            5.14229217664375       -2.23485330701294        0.60503678043676
H            0.56766254971942        0.73308652338787       -0.55250801285560
H            0.56745808291602        0.13718986503439        1.01059135554426
H            0.55638259496194       -0.91686985208982       -0.27944004301173
H            2.78565954635674        0.91498109132812        0.42030683563553
H            2.77260086709029       -0.21066013453419       -0.94926902219525
H            2.54583460324381       -2.13433289436731        0.63540647397365
H            2.57007838157607       -0.99962600796838        2.00128070245121
H            4.90155377199645       -0.28970214499453        1.33091486593983
H            4.68927698875428       -3.15117704021339        0.26409850215151
H            6.21686437057668       -2.21867639094915        0.63504389965823
