 Entering Gaussian System
 *********************************************
 Gaussian 98:
 frequency output generated by the xtb code
 *********************************************
                         Standard orientation:
 --------------------------------------------------------------------
  Center     Atomic     Atomic              Coordinates (Angstroms)
  Number     Number      Type              X           Y           Z
 --------------------------------------------------------------------
    1          7             0       -2.601347    1.662646    1.394716
    2          6             0       -1.182315    1.570230    1.832872
    3          6             0       -0.218280    1.374562    0.667108
    4          6             0       -0.401710    0.039382   -0.052549
    5          6             0        0.620265   -0.174345   -1.155692
    6         35             0        2.419727   -0.259824   -0.492308
    7         17             0       -3.709377   -1.326251   -0.060325
    8          1             0       -2.725405    2.417296    0.700735
    9          1             0       -3.241403    1.857761    2.186868
   10          1             0       -2.918693    0.784017    0.953719
   11          1             0       -1.072337    0.745190    2.547023
   12          1             0       -0.919379    2.478369    2.390529
   13          1             0        0.818541    1.451898    1.018845
   14          1             0       -0.339789    2.194722   -0.050543
   15          1             0       -1.418202   -0.025453   -0.462415
   16          1             0       -0.324952   -0.778767    0.675213
   17          1             0        0.586027    0.638974   -1.884003
   18          1             0        0.439618   -1.104445   -1.700750
 --------------------------------------------------------------------
     1 basis functions        1 primitive gaussians
     1 alpha electrons        1 beta electrons

 Harmonic frequencies (cm**-1), IR intensities (km*mol⁻¹),
 Raman scattering activities (A**4/amu), Raman depolarization ratios,
 reduced masses (AMU), force constants (mDyne/A) and normal coordinates:
                      1                      2                      3
                        a                      a                      a 
 Frequencies --  -125.1575               -35.2422                58.6823
 Red. masses --    22.0696                20.8578                35.8681
 Frc consts  --     0.0000                 0.0000                 0.0000
 IR Inten    --   124.9767                 7.3431                31.7852
 Raman Activ --     0.0000                 0.0000                 0.0000
 Depolar     --     0.0000                 0.0000                 0.0000
 Atom AN      X      Y      Z        X      Y      Z        X      Y      Z
   1   7    -0.19  -0.50  -0.21     0.02  -0.13   0.12     0.07  -0.08  -0.03
   2   6    -0.19  -0.16  -0.10     0.08   0.07  -0.03     0.08  -0.18  -0.08
   3   6    -0.08  -0.05  -0.02    -0.00   0.25  -0.12     0.06  -0.11  -0.11
   4   6     0.01  -0.03  -0.08    -0.04   0.37  -0.32     0.06  -0.05  -0.23
   5   6     0.05   0.04  -0.05     0.09   0.43  -0.22     0.17  -0.03  -0.13
   6  35     0.05  -0.02   0.01    -0.12  -0.29   0.19     0.30   0.21   0.13
   7  17     0.23   0.55   0.31     0.07  -0.23   0.10    -0.75  -0.01   0.20
   8   1    -0.07  -0.17  -0.09    -0.04  -0.05   0.02     0.03  -0.03  -0.02
   9   1    -0.07  -0.13  -0.07     0.02  -0.04   0.05     0.04   0.01   0.00
  10   1    -0.03  -0.18  -0.03     0.02  -0.05   0.06    -0.03  -0.02   0.02
  11   1    -0.02  -0.03  -0.01     0.08   0.02  -0.02     0.02  -0.07  -0.04
  12   1    -0.11  -0.03  -0.04     0.00   0.02  -0.01     0.04  -0.07  -0.01
  13   1    -0.03  -0.01   0.02     0.01   0.06  -0.05     0.02  -0.05  -0.03
  14   1    -0.02  -0.01  -0.00    -0.01   0.10   0.00     0.02  -0.01  -0.01
  15   1     0.01  -0.01  -0.03     0.00   0.15  -0.13     0.03   0.02  -0.10
  16   1     0.00  -0.02  -0.03    -0.06   0.07  -0.12    -0.02  -0.03  -0.08
  17   1     0.02   0.02  -0.00     0.11   0.17  -0.01     0.06  -0.01  -0.04
  18   1     0.02   0.02  -0.03    -0.00   0.17  -0.13     0.08  -0.01  -0.04
                      4                      5                      6
                        a                      a                      a 
 Frequencies --    89.1189               129.5883               162.8250
 Red. masses --    30.8226                14.6367                12.8020
 Frc consts  --     0.0000                 0.0000                 0.0000
 IR Inten    --     4.3701                13.5141                18.8543
 Raman Activ --     0.0000                 0.0000                 0.0000
 Depolar     --     0.0000                 0.0000                 0.0000
 Atom AN      X      Y      Z        X      Y      Z        X      Y      Z
   1   7    -0.23   0.02  -0.18    -0.18  -0.10   0.41     0.19  -0.49  -0.06
   2   6    -0.28   0.13   0.09    -0.02   0.10  -0.05     0.22   0.29  -0.02
   3   6    -0.02   0.13   0.29    -0.31   0.22  -0.32     0.25   0.17   0.04
   4   6     0.12   0.13   0.25     0.06  -0.06   0.09     0.03   0.13   0.17
   5   6     0.05   0.28   0.16     0.04  -0.09   0.08    -0.08  -0.15   0.13
   6  35     0.36  -0.23  -0.29     0.26  -0.10  -0.04    -0.14   0.07  -0.00
   7  17    -0.27  -0.13   0.04    -0.10   0.11  -0.12    -0.21  -0.03  -0.18
   8   1    -0.04  -0.03  -0.10    -0.15   0.05   0.21    -0.04  -0.19  -0.06
   9   1    -0.09   0.04  -0.09    -0.01  -0.17   0.18     0.03  -0.16  -0.03
  10   1    -0.04  -0.02  -0.01    -0.02   0.01   0.00     0.14  -0.19   0.02
  11   1    -0.10   0.05   0.05     0.09   0.04  -0.02     0.16   0.18   0.09
  12   1    -0.13   0.05   0.02    -0.00   0.04  -0.03    -0.04   0.18  -0.11
  13   1    -0.03   0.04   0.14    -0.07   0.22  -0.19     0.07   0.02   0.02
  14   1     0.03   0.04   0.07    -0.26  -0.01  -0.14     0.10   0.04  -0.01
  15   1     0.03   0.01   0.08     0.01  -0.14   0.06     0.01   0.07   0.05
  16   1     0.07   0.03   0.06     0.11   0.05   0.10    -0.02   0.05   0.07
  17   1     0.02   0.12   0.09    -0.00  -0.04   0.01    -0.04  -0.09  -0.02
  18   1    -0.03   0.12  -0.01     0.01  -0.04   0.04    -0.04  -0.08   0.11
                      7                      8                      9
                        a                      a                      a 
 Frequencies --   232.5192               268.7485               324.3157
 Red. masses --    12.1037                 9.1594                 2.4921
 Frc consts  --     0.0000                 0.0000                 0.0000
 IR Inten    --     1.9932                 3.4438                 0.2087
 Raman Activ --     0.0000                 0.0000                 0.0000
 Depolar     --     0.0000                 0.0000                 0.0000
 Atom AN      X      Y      Z        X      Y      Z        X      Y      Z
   1   7     0.13  -0.03  -0.09    -0.15   0.01   0.26    -0.08   0.02  -0.05
   2   6     0.12   0.05  -0.09    -0.02   0.38  -0.02    -0.05   0.13  -0.08
   3   6     0.02  -0.15  -0.11    -0.06  -0.35   0.05     0.15  -0.13   0.09
   4   6     0.28  -0.35   0.22    -0.23  -0.23  -0.16     0.04  -0.05  -0.05
   5   6     0.04   0.36  -0.11     0.00   0.05  -0.03     0.04   0.04  -0.07
   6  35    -0.25   0.03   0.10     0.17   0.01  -0.01    -0.03   0.00   0.01
   7  17    -0.06   0.01  -0.01     0.04   0.04  -0.05    -0.02  -0.02   0.08
   8   1     0.04  -0.04  -0.06    -0.11  -0.12  -0.05    -0.16   0.34   0.38
   9   1     0.04   0.03  -0.03     0.01   0.12   0.08    -0.07  -0.52   0.07
  10   1     0.02  -0.02   0.01    -0.04  -0.08   0.23     0.16   0.16  -0.45
  11   1     0.05   0.05   0.02     0.03   0.27   0.17    -0.02   0.08   0.02
  12   1     0.04   0.04  -0.08     0.02   0.23  -0.22    -0.02   0.07  -0.07
  13   1     0.02   0.06  -0.08    -0.03  -0.21   0.07     0.02  -0.11   0.11
  14   1    -0.07  -0.11  -0.10     0.12  -0.09  -0.00     0.16  -0.03   0.02
  15   1     0.03  -0.26   0.20    -0.04   0.01  -0.11     0.02   0.02  -0.02
  16   1     0.31  -0.07   0.07    -0.15  -0.12  -0.10    -0.01  -0.04  -0.04
  17   1    -0.01   0.25   0.13     0.01   0.07   0.05     0.01   0.03  -0.00
  18   1     0.03   0.21  -0.21     0.04   0.06  -0.09     0.02   0.02  -0.04
                     10                     11                     12
                        a                      a                      a 
 Frequencies --   376.2826               491.0094               597.0690
 Red. masses --    12.0231                 8.5107                17.3466
 Frc consts  --     0.0000                 0.0000                 0.0000
 IR Inten    --     7.7220                 9.4716                 9.9179
 Raman Activ --     0.0000                 0.0000                 0.0000
 Depolar     --     0.0000                 0.0000                 0.0000
 Atom AN      X      Y      Z        X      Y      Z        X      Y      Z
   1   7    -0.33   0.06   0.24     0.14   0.00  -0.08    -0.01  -0.01  -0.01
   2   6    -0.14   0.02  -0.15    -0.07   0.17   0.46    -0.01   0.02   0.03
   3   6     0.28   0.05   0.09    -0.31  -0.02   0.19     0.05   0.05   0.04
   4   6     0.46   0.06  -0.03     0.20  -0.02  -0.19    -0.11   0.04   0.00
   5   6     0.20  -0.18  -0.25     0.21  -0.14  -0.30    -0.62  -0.00  -0.50
   6  35    -0.21   0.01   0.01    -0.07  -0.01  -0.00     0.30  -0.02   0.16
   7  17     0.02   0.00  -0.03    -0.01   0.01   0.01    -0.00  -0.00  -0.00
   8   1    -0.14  -0.05   0.00     0.13  -0.01  -0.05    -0.00  -0.01  -0.01
   9   1     0.02   0.13   0.12    -0.12  -0.03  -0.14    -0.01  -0.00  -0.01
  10   1    -0.18  -0.01   0.18     0.16  -0.01  -0.08     0.00  -0.01  -0.00
  11   1    -0.04   0.00  -0.04    -0.03   0.14   0.24    -0.01  -0.00  -0.00
  12   1    -0.04   0.00  -0.04    -0.02   0.13   0.01    -0.02  -0.00   0.02
  13   1     0.03  -0.00   0.17    -0.06   0.11  -0.05     0.01  -0.05   0.03
  14   1     0.18   0.03   0.03    -0.24  -0.00   0.08     0.06   0.04   0.04
  15   1     0.10  -0.00   0.07     0.06  -0.07  -0.05    -0.13  -0.11   0.24
  16   1     0.20   0.03  -0.00     0.12  -0.02  -0.08     0.21   0.04   0.01
  17   1     0.04  -0.12  -0.15     0.06  -0.12  -0.17    -0.14  -0.03  -0.17
  18   1     0.03  -0.11   0.03     0.05  -0.10   0.02    -0.15  -0.05  -0.06
                     13                     14                     15
                        a                      a                      a 
 Frequencies --   784.6172               808.0680               863.3911
 Red. masses --     3.7802                 4.0641                 3.5393
 Frc consts  --     0.0000                 0.0000                 0.0000
 IR Inten    --    10.6102                18.4995                12.7632
 Raman Activ --     0.0000                 0.0000                 0.0000
 Depolar     --     0.0000                 0.0000                 0.0000
 Atom AN      X      Y      Z        X      Y      Z        X      Y      Z
   1   7     0.13  -0.01   0.05     0.03  -0.07  -0.03     0.01   0.10  -0.03
   2   6    -0.02   0.05  -0.05     0.03  -0.27  -0.14     0.05   0.12  -0.08
   3   6    -0.26   0.01  -0.11    -0.05  -0.20   0.04     0.00  -0.22   0.07
   4   6    -0.15   0.08  -0.12     0.05   0.20   0.00     0.08   0.01   0.05
   5   6     0.18   0.16   0.15    -0.06   0.26   0.11    -0.06   0.34   0.04
   6  35    -0.04  -0.02  -0.03     0.00  -0.03   0.00     0.01  -0.03   0.01
   7  17    -0.01   0.00   0.00     0.01  -0.01  -0.00    -0.01   0.01  -0.00
   8   1     0.03  -0.04  -0.02     0.19   0.12   0.11    -0.33  -0.10  -0.09
   9   1    -0.02  -0.02  -0.03     0.14   0.11   0.07     0.02  -0.12   0.04
  10   1     0.12  -0.03   0.01    -0.33   0.14  -0.10     0.26  -0.13   0.13
  11   1     0.02  -0.05  -0.09     0.09   0.20   0.26    -0.16  -0.11  -0.15
  12   1     0.05  -0.04   0.06    -0.04   0.16  -0.39     0.14  -0.11   0.14
  13   1    -0.11  -0.40   0.17    -0.00   0.03  -0.04     0.02   0.11  -0.09
  14   1     0.33   0.16   0.09    -0.13  -0.04   0.04    -0.16  -0.18  -0.09
  15   1    -0.07  -0.39   0.10    -0.00   0.03   0.05     0.03   0.11  -0.04
  16   1     0.32   0.16   0.10     0.08   0.03  -0.03    -0.01  -0.15  -0.15
  17   1     0.04  -0.11  -0.13    -0.04  -0.13  -0.19    -0.10  -0.18  -0.29
  18   1     0.07  -0.06   0.21    -0.04  -0.08   0.30    -0.02  -0.12   0.37
                     16                     17                     18
                        a                      a                      a 
 Frequencies --   918.4472               952.5607               968.3780
 Red. masses --     8.7221                 3.8436                 5.4217
 Frc consts  --     0.0000                 0.0000                 0.0000
 IR Inten    --    14.1230                25.1087                 7.4462
 Raman Activ --     0.0000                 0.0000                 0.0000
 Depolar     --     0.0000                 0.0000                 0.0000
 Atom AN      X      Y      Z        X      Y      Z        X      Y      Z
   1   7     0.48  -0.02   0.03    -0.01  -0.06   0.24    -0.13   0.17   0.09
   2   6    -0.25   0.00  -0.33    -0.13   0.05  -0.01     0.06  -0.24  -0.03
   3   6    -0.38   0.01   0.18    -0.07   0.04  -0.19    -0.04  -0.19  -0.15
   4   6     0.18   0.06   0.09     0.23  -0.11   0.10     0.25   0.27  -0.06
   5   6    -0.08  -0.13  -0.08    -0.14   0.15  -0.02    -0.19  -0.12   0.15
   6  35     0.01   0.01   0.01     0.01  -0.01   0.02     0.01   0.02   0.01
   7  17     0.00  -0.00  -0.00    -0.00   0.00   0.00    -0.01   0.01   0.00
   8   1    -0.07  -0.00   0.04     0.44   0.00  -0.00    -0.09  -0.10  -0.12
   9   1     0.30  -0.04   0.15    -0.32   0.09  -0.22    -0.27  -0.09  -0.14
  10   1     0.06  -0.02   0.09     0.09   0.04  -0.12     0.36  -0.10   0.03
  11   1    -0.08  -0.00  -0.09     0.23  -0.04  -0.11    -0.09   0.08   0.18
  12   1     0.02  -0.01  -0.10    -0.06  -0.01   0.04     0.28   0.01  -0.26
  13   1    -0.19   0.04   0.28    -0.10  -0.02   0.19    -0.01  -0.07  -0.02
  14   1     0.01   0.00   0.03     0.22  -0.10  -0.22    -0.02   0.07   0.10
  15   1     0.09   0.12  -0.09     0.13   0.16  -0.16     0.08   0.02  -0.05
  16   1    -0.10  -0.02   0.00    -0.16  -0.12  -0.06     0.05   0.15   0.08
  17   1    -0.01   0.06   0.08    -0.16  -0.03  -0.08     0.03   0.09   0.17
  18   1    -0.10   0.03  -0.11    -0.04  -0.03   0.12    -0.20   0.07  -0.08
                     19                     20                     21
                        a                      a                      a 
 Frequencies --  1047.4999              1068.1103              1081.4811
 Red. masses --     7.6697                 9.0377                 4.0122
 Frc consts  --     0.0000                 0.0000                 0.0000
 IR Inten    --     7.4299                20.2162                 0.4129
 Raman Activ --     0.0000                 0.0000                 0.0000
 Depolar     --     0.0000                 0.0000                 0.0000
 Atom AN      X      Y      Z        X      Y      Z        X      Y      Z
   1   7    -0.21  -0.06  -0.25     0.22  -0.05   0.05     0.06   0.09  -0.01
   2   6     0.42   0.12   0.19    -0.41   0.12   0.15    -0.11  -0.20   0.06
   3   6    -0.28   0.01  -0.00     0.26  -0.02  -0.16     0.10   0.26  -0.11
   4   6     0.33  -0.05  -0.08     0.19  -0.06  -0.39     0.03  -0.26   0.05
   5   6    -0.20   0.00   0.08    -0.26   0.01   0.32    -0.00   0.15  -0.10
   6  35     0.01   0.00   0.02     0.00   0.01   0.00     0.00  -0.04   0.01
   7  17     0.00  -0.00   0.00    -0.00  -0.00   0.00    -0.00   0.00  -0.00
   8   1    -0.16   0.06   0.03     0.04   0.02   0.05    -0.13  -0.03  -0.03
   9   1     0.15   0.02   0.09     0.13   0.02   0.07     0.06  -0.04   0.05
  10   1    -0.28   0.04  -0.01    -0.04   0.01   0.03     0.10  -0.03   0.06
  11   1     0.12  -0.06  -0.05    -0.20   0.02   0.04    -0.13   0.09   0.20
  12   1     0.03  -0.01   0.15    -0.20   0.01   0.12    -0.01   0.04  -0.14
  13   1    -0.06  -0.20   0.02     0.11  -0.01  -0.16     0.03  -0.05  -0.03
  14   1     0.08   0.09   0.08    -0.01  -0.00  -0.03     0.04   0.24   0.17
  15   1     0.19  -0.04  -0.26     0.06  -0.14  -0.11     0.09  -0.04  -0.20
  16   1    -0.06  -0.00   0.00     0.15  -0.01  -0.10    -0.20   0.07   0.18
  17   1    -0.14   0.03   0.07    -0.00   0.03   0.11    -0.50  -0.01  -0.06
  18   1    -0.16   0.02   0.04    -0.15   0.03   0.07     0.37  -0.07   0.04
                     22                     23                     24
                        a                      a                      a 
 Frequencies --  1126.4127              1181.3935              1200.4197
 Red. masses --     7.6701                 5.1581                 3.5984
 Frc consts  --     0.0000                 0.0000                 0.0000
 IR Inten    --     0.6065                 7.6443                21.6852
 Raman Activ --     0.0000                 0.0000                 0.0000
 Depolar     --     0.0000                 0.0000                 0.0000
 Atom AN      X      Y      Z        X      Y      Z        X      Y      Z
   1   7    -0.08   0.06   0.05    -0.02  -0.16   0.13     0.02   0.00  -0.12
   2   6     0.18  -0.09  -0.24     0.03   0.28  -0.23     0.02  -0.02   0.25
   3   6     0.01   0.28   0.35    -0.00  -0.26   0.22    -0.07  -0.09  -0.21
   4   6    -0.02  -0.27  -0.37     0.05   0.22  -0.12     0.07   0.16  -0.15
   5   6    -0.16   0.00   0.24    -0.03  -0.06   0.02    -0.11  -0.05   0.15
   6  35    -0.00  -0.00  -0.01    -0.00  -0.02   0.00    -0.01  -0.02  -0.01
   7  17    -0.00   0.00   0.00    -0.00  -0.00   0.00    -0.00  -0.00  -0.00
   8   1     0.02  -0.03  -0.04     0.22   0.01   0.04    -0.11   0.02   0.02
   9   1    -0.12  -0.01  -0.06    -0.10   0.07  -0.08     0.06  -0.04   0.03
  10   1     0.10  -0.00  -0.02    -0.08   0.05  -0.11    -0.08  -0.02   0.06
  11   1     0.18   0.00  -0.06    -0.13  -0.08  -0.22     0.00   0.01   0.08
  12   1     0.03   0.02  -0.11     0.14  -0.07   0.10     0.11  -0.01   0.02
  13   1    -0.06   0.29   0.21     0.06   0.01  -0.15    -0.15   0.15   0.30
  14   1    -0.09   0.11   0.14    -0.21  -0.01   0.14     0.14  -0.16  -0.24
  15   1    -0.05  -0.14   0.01     0.02  -0.06  -0.03    -0.14   0.24   0.31
  16   1     0.15  -0.18  -0.23     0.03   0.21   0.15     0.12  -0.01  -0.11
  17   1     0.01  -0.00   0.06    -0.38   0.06   0.10    -0.14   0.03   0.09
  18   1     0.09  -0.01   0.03     0.32  -0.02  -0.09     0.50  -0.04  -0.09
                     25                     26                     27
                        a                      a                      a 
 Frequencies --  1238.0955              1270.9701              1290.9960
 Red. masses --     2.7938                 2.7623                 2.3101
 Frc consts  --     0.0000                 0.0000                 0.0000
 IR Inten    --    14.3004                 5.9574                21.8943
 Raman Activ --     0.0000                 0.0000                 0.0000
 Depolar     --     0.0000                 0.0000                 0.0000
 Atom AN      X      Y      Z        X      Y      Z        X      Y      Z
   1   7     0.02   0.22  -0.04    -0.02  -0.02  -0.04     0.01  -0.00  -0.00
   2   6    -0.07  -0.14  -0.01     0.04  -0.02   0.09    -0.03   0.04  -0.02
   3   6    -0.01  -0.15   0.12     0.13  -0.04   0.03    -0.07   0.01  -0.11
   4   6     0.00   0.19  -0.03    -0.18   0.00  -0.17     0.03  -0.06  -0.05
   5   6     0.03  -0.06  -0.00     0.24   0.00  -0.06     0.29  -0.06   0.03
   6  35     0.00  -0.01   0.01     0.02   0.00   0.02     0.01  -0.00   0.02
   7  17    -0.00   0.00   0.00     0.00   0.00   0.00     0.00  -0.00  -0.00
   8   1    -0.14  -0.03  -0.07    -0.03   0.00   0.00     0.03   0.02   0.02
   9   1     0.03  -0.07   0.04     0.03   0.01   0.02    -0.02  -0.02  -0.01
  10   1     0.18  -0.04   0.09    -0.03   0.00  -0.01     0.00  -0.02   0.03
  11   1     0.60  -0.02  -0.07    -0.04   0.01   0.05     0.02  -0.01  -0.04
  12   1    -0.52   0.08   0.05     0.11  -0.02  -0.00    -0.01   0.01  -0.00
  13   1     0.05  -0.08  -0.13    -0.10   0.35   0.33     0.02  -0.14  -0.11
  14   1    -0.05  -0.15  -0.08     0.05  -0.21  -0.22    -0.03   0.22   0.22
  15   1     0.03  -0.07  -0.05    -0.01  -0.22  -0.10    -0.18   0.32   0.38
  16   1     0.06   0.09   0.03    -0.02   0.22   0.20     0.09  -0.21  -0.25
  17   1    -0.22   0.03   0.06    -0.38   0.03   0.03    -0.47   0.05   0.10
  18   1     0.07   0.00  -0.05    -0.44   0.05   0.05    -0.35   0.04   0.05
                     28                     29                     30
                        a                      a                      a 
 Frequencies --  1319.3416              1334.9672              1379.1363
 Red. masses --     3.4315                 3.7647                 2.8242
 Frc consts  --     0.0000                 0.0000                 0.0000
 IR Inten    --    17.2552                10.4371               153.4035
 Raman Activ --     0.0000                 0.0000                 0.0000
 Depolar     --     0.0000                 0.0000                 0.0000
 Atom AN      X      Y      Z        X      Y      Z        X      Y      Z
   1   7    -0.08  -0.05  -0.06     0.07   0.02   0.16    -0.29  -0.10  -0.08
   2   6    -0.16  -0.07   0.06     0.35  -0.11  -0.16     0.11   0.00  -0.04
   3   6    -0.03   0.27   0.21    -0.11   0.11   0.05     0.01  -0.09  -0.11
   4   6    -0.07   0.17   0.10    -0.03   0.13   0.05    -0.03   0.05   0.07
   5   6     0.05  -0.09   0.01     0.03  -0.06   0.00    -0.00  -0.01   0.00
   6  35     0.00  -0.00   0.01     0.00  -0.00   0.00     0.00  -0.00  -0.00
   7  17     0.00   0.00   0.00     0.00   0.00   0.00    -0.01   0.00   0.00
   8   1     0.06   0.05   0.04    -0.05  -0.12  -0.09     0.25   0.22   0.19
   9   1     0.12   0.07   0.07    -0.13  -0.03  -0.07     0.33   0.36   0.19
  10   1     0.07  -0.05  -0.01    -0.05   0.10  -0.09     0.53  -0.21  -0.03
  11   1     0.05  -0.01   0.01    -0.52   0.07   0.17    -0.11   0.04   0.07
  12   1     0.40  -0.03  -0.17    -0.46   0.06   0.09    -0.18  -0.01   0.10
  13   1     0.12  -0.21  -0.26    -0.01  -0.09  -0.01    -0.05   0.09   0.11
  14   1     0.13  -0.22  -0.30     0.09  -0.15  -0.20    -0.03   0.07   0.08
  15   1     0.08  -0.17  -0.17     0.03  -0.06  -0.05     0.02  -0.01  -0.05
  16   1     0.17  -0.22  -0.29     0.09  -0.12  -0.17     0.06  -0.05  -0.06
  17   1    -0.19   0.01   0.05    -0.13   0.02   0.04    -0.00  -0.00   0.00
  18   1     0.03   0.02  -0.08     0.02   0.01  -0.05     0.04   0.00  -0.02
                     31                     32                     33
                        a                      a                      a 
 Frequencies --  1384.1381              1405.8971              1453.4242
 Red. masses --     4.7085                 1.5527                 1.9349
 Frc consts  --     0.0000                 0.0000                 0.0000
 IR Inten    --    11.1096                58.1136                88.1595
 Raman Activ --     0.0000                 0.0000                 0.0000
 Depolar     --     0.0000                 0.0000                 0.0000
 Atom AN      X      Y      Z        X      Y      Z        X      Y      Z
   1   7     0.08   0.02   0.00     0.02   0.05  -0.16    -0.19   0.17  -0.00
   2   6    -0.05   0.06   0.07     0.06  -0.00  -0.08     0.01   0.03  -0.02
   3   6     0.14  -0.19  -0.27    -0.01   0.03   0.04    -0.03  -0.04  -0.01
   4   6    -0.17   0.23   0.31    -0.03  -0.01   0.01     0.02   0.02   0.01
   5   6     0.01  -0.07  -0.04    -0.00  -0.00   0.00    -0.00   0.00   0.02
   6  35     0.00  -0.00   0.00     0.00  -0.00   0.00     0.00  -0.00   0.00
   7  17     0.00   0.00   0.00     0.00   0.00  -0.01    -0.00   0.00  -0.00
   8   1    -0.07  -0.03  -0.03     0.24   0.33   0.30     0.49  -0.24  -0.36
   9   1    -0.08  -0.08  -0.05    -0.22  -0.29  -0.12     0.24  -0.53   0.34
  10   1    -0.16   0.05   0.02    -0.13  -0.28   0.65    -0.03   0.02   0.02
  11   1     0.07  -0.04  -0.06    -0.09   0.03   0.03    -0.03   0.05   0.06
  12   1     0.01   0.02   0.00    -0.06  -0.00   0.02     0.03  -0.05   0.08
  13   1    -0.08   0.20   0.23     0.00  -0.03  -0.00     0.00   0.08  -0.04
  14   1    -0.11   0.22   0.25    -0.02  -0.04  -0.03     0.08   0.04   0.02
  15   1     0.14  -0.23  -0.31     0.03   0.00  -0.07    -0.01  -0.04   0.02
  16   1     0.19  -0.27  -0.32     0.06   0.03   0.02    -0.05  -0.02  -0.02
  17   1    -0.07   0.01   0.02    -0.01  -0.01  -0.01    -0.01  -0.03  -0.03
  18   1     0.05  -0.00  -0.06    -0.00   0.00  -0.00     0.00   0.02  -0.03
                     34                     35                     36
                        a                      a                      a 
 Frequencies --  1461.0082              1478.7249              1484.8179
 Red. masses --     1.9155                 1.9953                 1.8754
 Frc consts  --     0.0000                 0.0000                 0.0000
 IR Inten    --     9.7516                57.0598                 8.1469
 Raman Activ --     0.0000                 0.0000                 0.0000
 Depolar     --     0.0000                 0.0000                 0.0000
 Atom AN      X      Y      Z        X      Y      Z        X      Y      Z
   1   7     0.01  -0.01   0.01    -0.02   0.02   0.02     0.02  -0.01  -0.00
   2   6     0.00   0.00   0.01     0.01   0.00   0.03    -0.07  -0.01  -0.26
   3   6    -0.01  -0.02   0.00     0.01   0.03   0.02     0.03   0.04  -0.01
   4   6    -0.01  -0.05   0.01    -0.21  -0.20   0.03    -0.03  -0.01   0.02
   5   6    -0.00   0.03   0.28    -0.01  -0.01  -0.04     0.00  -0.01   0.01
   6  35     0.01   0.00   0.01     0.00   0.00  -0.00     0.00  -0.00   0.00
   7  17     0.00  -0.00   0.00     0.00  -0.00   0.00     0.00  -0.00   0.00
   8   1    -0.03  -0.00   0.01     0.04  -0.06  -0.07    -0.07  -0.01  -0.00
   9   1    -0.01   0.03  -0.02     0.04  -0.04   0.04    -0.04   0.03  -0.04
  10   1    -0.00   0.01  -0.02     0.00   0.03  -0.06    -0.05   0.03  -0.04
  11   1     0.00  -0.02  -0.02    -0.02  -0.06  -0.07     0.20   0.42   0.44
  12   1    -0.01   0.02  -0.02    -0.01   0.05  -0.07     0.16  -0.37   0.52
  13   1     0.00   0.02  -0.02    -0.01  -0.06   0.03    -0.02  -0.13   0.07
  14   1     0.02   0.02   0.02    -0.06  -0.03  -0.02    -0.14  -0.03  -0.01
  15   1     0.02   0.11  -0.05     0.09   0.53  -0.34     0.02   0.07  -0.05
  16   1     0.09   0.04   0.05     0.62   0.18   0.15     0.09   0.00  -0.01
  17   1    -0.10  -0.44  -0.48     0.03   0.07   0.09    -0.01  -0.01  -0.01
  18   1    -0.06   0.35  -0.56    -0.00  -0.06   0.09    -0.00   0.01  -0.02
                     37                     38                     39
                        a                      a                      a 
 Frequencies --  1496.7946              2915.2586              2917.8132
 Red. masses --     1.9506                 1.9200                 1.9416
 Frc consts  --     0.0000                 0.0000                 0.0000
 IR Inten    --     6.8964               386.3666              1034.6998
 Raman Activ --     0.0000                 0.0000                 0.0000
 Depolar     --     0.0000                 0.0000                 0.0000
 Atom AN      X      Y      Z        X      Y      Z        X      Y      Z
   1   7    -0.04   0.02   0.00    -0.04  -0.14  -0.07    -0.05  -0.18  -0.09
   2   6     0.02   0.03   0.05     0.00   0.05   0.02     0.01   0.08   0.02
   3   6     0.20   0.17  -0.09    -0.07   0.03  -0.05     0.06  -0.03   0.05
   4   6     0.04   0.02  -0.02     0.16  -0.04   0.11    -0.12   0.03  -0.08
   5   6    -0.00   0.01   0.02     0.00  -0.00  -0.01    -0.00  -0.00   0.00
   6  35     0.00   0.00   0.00    -0.00   0.00  -0.00     0.00  -0.00   0.00
   7  17    -0.00  -0.00   0.00     0.00   0.01   0.00     0.00   0.01   0.00
   8   1     0.08  -0.03  -0.05    -0.00   0.01  -0.02    -0.01   0.01  -0.03
   9   1     0.05  -0.06   0.05    -0.02  -0.00   0.02    -0.03  -0.00   0.03
  10   1     0.02   0.00  -0.01     0.15   0.47   0.23     0.20   0.62   0.30
  11   1    -0.04  -0.08  -0.09     0.00  -0.01   0.01     0.01  -0.07   0.07
  12   1    -0.01   0.07  -0.09    -0.04  -0.15  -0.09    -0.06  -0.22  -0.13
  13   1    -0.09  -0.51   0.40     0.27   0.02   0.09    -0.20  -0.02  -0.06
  14   1    -0.63  -0.15  -0.08     0.01  -0.14   0.12    -0.02   0.15  -0.13
  15   1    -0.02  -0.06   0.06    -0.59  -0.03  -0.25     0.43   0.03   0.18
  16   1    -0.09  -0.01  -0.01     0.00   0.20  -0.16     0.00  -0.13   0.11
  17   1    -0.01  -0.03  -0.03    -0.00  -0.02   0.02     0.00   0.02  -0.02
  18   1    -0.01   0.02  -0.03     0.00   0.03   0.01     0.00   0.00   0.00
                     40                     41                     42
                        a                      a                      a 
 Frequencies --  2930.9993              2945.0099              2949.5149
 Red. masses --     1.9467                 1.9056                 1.6029
 Frc consts  --     0.0000                 0.0000                 0.0000
 IR Inten    --    33.5605               101.7884                 8.3473
 Raman Activ --     0.0000                 0.0000                 0.0000
 Depolar     --     0.0000                 0.0000                 0.0000
 Atom AN      X      Y      Z        X      Y      Z        X      Y      Z
   1   7     0.00   0.01   0.00     0.02   0.08   0.04     0.00   0.01   0.00
   2   6     0.00   0.02  -0.01     0.04   0.25   0.02     0.01   0.03  -0.00
   3   6     0.17  -0.12   0.16    -0.06  -0.03   0.01     0.08   0.05  -0.01
   4   6     0.11  -0.01   0.07    -0.01  -0.01   0.00    -0.04  -0.15   0.11
   5   6     0.00   0.00  -0.01     0.00   0.01  -0.00     0.00   0.09  -0.02
   6  35    -0.00  -0.00  -0.00     0.00   0.00   0.00    -0.00   0.00  -0.00
   7  17    -0.00  -0.00  -0.00    -0.00  -0.00  -0.00    -0.00  -0.00  -0.00
   8   1    -0.00   0.00   0.00     0.00   0.00   0.01     0.00  -0.00   0.00
   9   1     0.00   0.00  -0.00     0.01   0.00  -0.01     0.00  -0.00  -0.00
  10   1    -0.02  -0.04  -0.02    -0.08  -0.26  -0.13    -0.00  -0.02  -0.01
  11   1     0.01  -0.08   0.07     0.05  -0.31   0.29     0.01  -0.04   0.04
  12   1     0.00   0.01   0.00    -0.18  -0.60  -0.37    -0.02  -0.07  -0.04
  13   1    -0.53  -0.05  -0.17     0.26   0.01   0.10    -0.32  -0.01  -0.12
  14   1    -0.06   0.47  -0.41    -0.03   0.13  -0.12     0.04  -0.19   0.17
  15   1    -0.40  -0.02  -0.17     0.03  -0.00   0.01     0.23  -0.01   0.11
  16   1     0.01   0.06  -0.05    -0.00   0.02  -0.02    -0.07   0.57  -0.51
  17   1     0.00  -0.03   0.02     0.00  -0.02   0.02     0.01  -0.18   0.17
  18   1     0.00   0.01   0.00    -0.00  -0.02  -0.01    -0.03  -0.15  -0.09
                     43                     44                     45
                        a                      a                      a 
 Frequencies --  2956.6872              2966.4462              2976.4648
 Red. masses --     1.7175                 1.8469                 1.5734
 Frc consts  --     0.0000                 0.0000                 0.0000
 IR Inten    --     2.4560                17.7891                 8.6311
 Raman Activ --     0.0000                 0.0000                 0.0000
 Depolar     --     0.0000                 0.0000                 0.0000
 Atom AN      X      Y      Z        X      Y      Z        X      Y      Z
   1   7     0.00   0.02   0.01    -0.00  -0.00  -0.00    -0.01  -0.02  -0.01
   2   6     0.02   0.08   0.02    -0.01  -0.03  -0.03    -0.05   0.07  -0.20
   3   6     0.11   0.11  -0.05    -0.05  -0.06   0.03    -0.01   0.03  -0.03
   4   6     0.03   0.03  -0.01    -0.04  -0.10   0.06     0.00   0.01  -0.01
   5   6    -0.01  -0.17   0.02    -0.02  -0.23   0.01     0.01   0.02   0.03
   6  35    -0.00  -0.00  -0.00     0.00  -0.00   0.00     0.00   0.00   0.00
   7  17    -0.00  -0.00  -0.00    -0.00   0.00   0.00     0.00   0.00   0.00
   8   1     0.00  -0.01   0.01    -0.00   0.00  -0.00    -0.00   0.02  -0.02
   9   1     0.01   0.00  -0.01    -0.00   0.00   0.00    -0.00  -0.00   0.00
  10   1    -0.02  -0.07  -0.03     0.01   0.01   0.01     0.02   0.06   0.03
  11   1     0.01  -0.06   0.06     0.00  -0.04   0.02     0.08  -0.65   0.52
  12   1    -0.06  -0.21  -0.13     0.04   0.14   0.08     0.11   0.39   0.19
  13   1    -0.47  -0.01  -0.18     0.23   0.00   0.09     0.01   0.00  -0.00
  14   1     0.08  -0.37   0.34    -0.05   0.21  -0.19     0.02  -0.09   0.09
  15   1    -0.12  -0.00  -0.05     0.16  -0.00   0.08    -0.02   0.00  -0.01
  16   1     0.02  -0.12   0.11    -0.04   0.33  -0.30     0.01  -0.04   0.03
  17   1    -0.01   0.30  -0.27    -0.01   0.34  -0.32    -0.00   0.06  -0.05
  18   1     0.06   0.30   0.19     0.09   0.47   0.28    -0.02  -0.13  -0.07
                     46                     47                     48
                        a                      a                      a 
 Frequencies --  2979.1340              3150.7505              3197.4842
 Red. masses --     1.5072                 1.8148                 1.6952
 Frc consts  --     0.0000                 0.0000                 0.0000
 IR Inten    --    16.6765                51.1786                29.6985
 Raman Activ --     0.0000                 0.0000                 0.0000
 Depolar     --     0.0000                 0.0000                 0.0000
 Atom AN      X      Y      Z        X      Y      Z        X      Y      Z
   1   7     0.00   0.00   0.00    -0.15   0.01   0.20     0.04  -0.17   0.15
   2   6     0.01  -0.01   0.03    -0.00  -0.00   0.00     0.01  -0.01   0.01
   3   6    -0.00  -0.01   0.01    -0.00  -0.00  -0.00     0.00   0.00  -0.00
   4   6     0.01  -0.02   0.02     0.00   0.00  -0.00     0.00   0.00   0.00
   5   6     0.03   0.01   0.20    -0.00  -0.00   0.00     0.00  -0.00  -0.00
   6  35     0.00  -0.00   0.00     0.00   0.00   0.00    -0.00  -0.00   0.00
   7  17    -0.00  -0.00  -0.00     0.00   0.00   0.00     0.00   0.00  -0.00
   8   1     0.00  -0.00   0.00    -0.02   0.08  -0.05    -0.10   0.70  -0.65
   9   1    -0.00   0.00   0.00     0.58  -0.18  -0.75    -0.06  -0.00   0.10
  10   1    -0.00  -0.00  -0.00     0.00   0.05   0.04    -0.01  -0.07  -0.01
  11   1    -0.01   0.10  -0.08     0.00   0.00  -0.00    -0.00   0.02  -0.02
  12   1    -0.02  -0.06  -0.03     0.00   0.00  -0.00    -0.00  -0.01  -0.00
  13   1     0.01  -0.00   0.00     0.00   0.00   0.00    -0.01   0.00  -0.00
  14   1    -0.01   0.04  -0.03    -0.00   0.00  -0.00     0.00  -0.00   0.00
  15   1    -0.01  -0.00  -0.00    -0.00  -0.00  -0.00    -0.00  -0.00  -0.00
  16   1    -0.01   0.08  -0.07     0.00  -0.00   0.00    -0.00  -0.00   0.00
  17   1    -0.01   0.54  -0.44    -0.00   0.00  -0.00    -0.00   0.00  -0.00
  18   1    -0.11  -0.58  -0.30    -0.00  -0.00  -0.00    -0.00   0.00   0.00
