      -----------------------------------------------------------      
     |                   =====================                   |     
     |                           x T B                           |     
     |                   =====================                   |     
     |                         S. Grimme                         |     
     |          Mulliken Center for Theoretical Chemistry        |     
     |                    University of Bonn                     |     
      -----------------------------------------------------------      

   * xtb version 6.5.1 (fef0646) compiled by 'conda@b96dff2e9fd6' on 2023-01-04

   xtb is free software: you can redistribute it and/or modify it under
   the terms of the GNU Lesser General Public License as published by
   the Free Software Foundation, either version 3 of the License, or
   (at your option) any later version.
   
   xtb is distributed in the hope that it will be useful,
   but WITHOUT ANY WARRANTY; without even the implied warranty of
   MERCHANTABILITY or FITNESS FOR A PARTICULAR PURPOSE.  See the
   GNU Lesser General Public License for more details.
   
   Cite this work as:
   * C. Bannwarth, E. Caldeweyher, S. Ehlert, A. Hansen, P. Pracht,
     J. Seibert, S. Spicher, S. Grimme, WIREs Comput. Mol. Sci., 2020, 11,
     e01493. DOI: 10.1002/wcms.1493
   
   for GFN2-xTB:
   * C. Bannwarth, S. Ehlert and S. Grimme., J. Chem. Theory Comput., 2019,
     15, 1652-1671. DOI: 10.1021/acs.jctc.8b01176
   for GFN1-xTB:
   * S. Grimme, C. Bannwarth, P. Shushkov, J. Chem. Theory Comput., 2017,
     13, 1989-2009. DOI: 10.1021/acs.jctc.7b00118
   for GFN0-xTB:
   * P. Pracht, E. Caldeweyher, S. Ehlert, S. Grimme, ChemRxiv, 2019, preprint.
     DOI: 10.26434/chemrxiv.8326202.v1
   for GFN-FF:
   * S. Spicher and S. Grimme, Angew. Chem. Int. Ed., 2020, 59, 15665-15673.
     DOI: 10.1002/anie.202004239
   
   for ALPB and GBSA implicit solvation:
   * S. Ehlert, M. Stahn, S. Spicher, S. Grimme, J. Chem. Theory Comput.,
     2021, 17, 4250-4261. DOI: 10.1021/acs.jctc.1c00471
   
   for DFT-D4:
   * E. Caldeweyher, C. Bannwarth and S. Grimme, J. Chem. Phys., 2017,
     147, 034112. DOI: 10.1063/1.4993215
   * E. Caldeweyher, S. Ehlert, A. Hansen, H. Neugebauer, S. Spicher,
     C. Bannwarth and S. Grimme, J. Chem. Phys., 2019, 150, 154122.
     DOI: 10.1063/1.5090222
   * E. Caldeweyher, J.-M. Mewes, S. Ehlert and S. Grimme, Phys. Chem. Chem. Phys.
     2020, 22, 8499-8512. DOI: 10.1039/D0CP00502A
   
   for sTDA-xTB:
   * S. Grimme and C. Bannwarth, J. Chem. Phys., 2016, 145, 054103.
     DOI: 10.1063/1.4959605
   
   in the mass-spec context:
   * V. Asgeirsson, C. Bauer and S. Grimme, Chem. Sci., 2017, 8, 4879.
     DOI: 10.1039/c7sc00601b
   * J. Koopman and S. Grimme, ACS Omega 2019, 4, 12, 15120-15133.
     DOI: 10.1021/acsomega.9b02011
   
   for metadynamics refer to:
   * S. Grimme, J. Chem. Theory Comput., 2019, 155, 2847-2862
     DOI: 10.1021/acs.jctc.9b00143
   
   for SPH calculations refer to:
   * S. Spicher and S. Grimme, J. Chem. Theory Comput., 2021, 17, 1701-1714
     DOI: 10.1021/acs.jctc.0c01306
   
   with help from (in alphabetical order)
   P. Atkinson, C. Bannwarth, F. Bohle, G. Brandenburg, E. Caldeweyher
   M. Checinski, S. Dohm, S. Ehlert, S. Ehrlich, I. Gerasimov, C. Hölzer
   A. Katbashev, J. Koopman, C. Lavigne, S. Lehtola, F. März, M. Müller,
   F. Musil, H. Neugebauer, J. Pisarek, C. Plett, P. Pracht, F. Pultar,
   J. Seibert, P. Shushkov, S. Spicher, M. Stahn, M. Steiner, T. Strunk,
   J. Stückrath, T. Rose, and J. Unsleber
   
 * started run on 2023/01/24 at 16:04:49.255     

           -------------------------------------------------
          |                Calculation Setup                |
           -------------------------------------------------

          program call               : xtb init.xyz --opt -c 1 -u 0 -P 16 --alpb water
          hostname                   : gpg-woodward
          coordinate file            : init.xyz
          omp threads                :                    16

   ID    Z sym.   atoms
    1    7 N      1
    2    6 C      2-6
    3    8 O      7, 8
    4    1 H      9-20

           -------------------------------------------------
          |                 G F N 2 - x T B                 |
           -------------------------------------------------

        Reference                      10.1021/acs.jctc.8b01176
      * Hamiltonian:
        H0-scaling (s, p, d)           1.850000    2.230000    2.230000
        zeta-weighting                 0.500000
      * Dispersion:
        s8                             2.700000
        a1                             0.520000
        a2                             5.000000
        s9                             5.000000
      * Repulsion:
        kExp                           1.500000    1.000000
        rExp                           1.000000
      * Coulomb:
        alpha                          2.000000
        third order                    shell-resolved
        anisotropic                    true
        a3                             3.000000
        a5                             4.000000
        cn-shift                       1.200000
        cn-exp                         4.000000
        max-rad                        5.000000

      * Solvation model:               ALPB
        Solvent                        water
        Parameter file                 internal GFN2-xTB/ALPB
        Dielectric constant                8.0200E+01
        Reference state                gsolv [1 M gas/solution]
        Free energy shift                  1.0808E-03 Eh       6.7819E-01 kcal/mol
        Temperature                        2.9815E+02 K
        Density                            1.0000E+00 kg/L
        Solvent mass                       1.8000E+01 g/mol
        Interaction kernel             P16
        Born radius scaling (c1)           1.4744E+00
        Born radii integrator          GBOBC
        Born offset                        0.0000E+00 a0       0.0000E+00 AA
        H-bond correction              true
        Ion screening                  false
        Surface tension                    1.0000E-05 Eh       1.5569E+01 dyn/cm
        Grid points                               230 per atom

          ...................................................
          :                      SETUP                      :
          :.................................................:
          :  # basis functions                  44          :
          :  # atomic orbitals                  44          :
          :  # shells                           28          :
          :  # electrons                        48          :
          :  max. iterations                   250          :
          :  Hamiltonian                  GFN2-xTB          :
          :  restarted?                      false          :
          :  GBSA solvation                   true          :
          :  PC potential                    false          :
          :  electronic temp.          300.0000000     K    :
          :  accuracy                    1.0000000          :
          :  -> integral cutoff          0.2500000E+02      :
          :  -> integral neglect         0.1000000E-07      :
          :  -> SCF convergence          0.1000000E-05 Eh   :
          :  -> wf. convergence          0.1000000E-03 e    :
          :  Broyden damping             0.4000000          :
          ...................................................

 iter      E             dE          RMSdq      gap      omega  full diag
   1    -27.7721603 -0.277722E+02  0.449E+00    4.89       0.0  T
   2    -27.8631104 -0.909500E-01  0.224E+00    4.60       1.0  T
   3    -27.8673008 -0.419046E-02  0.116E+00    4.98       1.0  T
   4    -27.8680555 -0.754687E-03  0.301E-01    4.75       1.0  T
   5    -27.8687032 -0.647679E-03  0.890E-02    4.85       1.0  T
   6    -27.8687110 -0.780964E-05  0.343E-02    4.84       1.0  T
   7    -27.8687126 -0.163309E-05  0.807E-03    4.84       2.8  T
   8    -27.8687127 -0.693644E-07  0.367E-03    4.84       6.1  T
   9    -27.8687127 -0.306781E-07  0.112E-03    4.84      20.0  T
  10    -27.8687127 -0.345052E-08  0.417E-04    4.84      53.6  T
  11    -27.8687127 -0.954653E-09  0.108E-04    4.84     207.6  T

   *** convergence criteria satisfied after 11 iterations ***

         #    Occupation            Energy/Eh            Energy/eV
      -------------------------------------------------------------
         1        2.0000           -0.7403225             -20.1452
       ...           ...                  ...                  ...
        18        2.0000           -0.4889655             -13.3054
        19        2.0000           -0.4756895             -12.9442
        20        2.0000           -0.4685642             -12.7503
        21        2.0000           -0.4662324             -12.6868
        22        2.0000           -0.4412214             -12.0062
        23        2.0000           -0.4365235             -11.8784
        24        2.0000           -0.4208510             -11.4519 (HOMO)
        25                         -0.2428727              -6.6089 (LUMO)
        26                         -0.0564836              -1.5370
        27                          0.0408382               1.1113
        28                          0.0563627               1.5337
        29                          0.0754677               2.0536
       ...                                ...                  ...
        44                          0.5767321              15.6937
      -------------------------------------------------------------
                  HL-Gap            0.1779783 Eh            4.8430 eV
             Fermi-level           -0.3318619 Eh           -9.0304 eV

 SCC (total)                   0 d,  0 h,  0 min,  0.016 sec
 SCC setup                      ...        0 min,  0.000 sec (  2.183%)
 Dispersion                     ...        0 min,  0.000 sec (  1.588%)
 classical contributions        ...        0 min,  0.000 sec (  0.425%)
 integral evaluation            ...        0 min,  0.001 sec (  3.806%)
 iterations                     ...        0 min,  0.013 sec ( 80.257%)
 molecular gradient             ...        0 min,  0.002 sec (  9.478%)
 printout                       ...        0 min,  0.000 sec (  0.820%)

         :::::::::::::::::::::::::::::::::::::::::::::::::::::
         ::                     SUMMARY                     ::
         :::::::::::::::::::::::::::::::::::::::::::::::::::::
         :: total energy             -27.566179600236 Eh    ::
         :: total w/o Gsasa/hb       -27.550954297812 Eh    ::
         :: gradient norm              0.036365550982 Eh/a0 ::
         :: HOMO-LUMO gap              4.843035344999 eV    ::
         ::.................................................::
         :: SCC energy               -27.868712724774 Eh    ::
         :: -> isotropic ES            0.204485453478 Eh    ::
         :: -> anisotropic ES         -0.014579455069 Eh    ::
         :: -> anisotropic XC          0.010855239636 Eh    ::
         :: -> dispersion             -0.010542713927 Eh    ::
         :: -> Gsolv                  -0.147065171302 Eh    ::
         ::    -> Gelec               -0.131839868878 Eh    ::
         ::    -> Gsasa                0.002851808034 Eh    ::
         ::    -> Ghb                 -0.019157870156 Eh    ::
         ::    -> Gshift               0.001080759698 Eh    ::
         :: repulsion energy           0.302531127467 Eh    ::
         :: add. restraining           0.000000000000 Eh    ::
         :: total charge               1.000000000000 e     ::
         :::::::::::::::::::::::::::::::::::::::::::::::::::::

      ----------------------------------------------------------- 
     |                   =====================                   |
     |                        A N C O P T                        |
     |                   =====================                   |
     |               Approximate Normal Coordinate               |
     |                Rational Function Optimizer                |
      ----------------------------------------------------------- 

          ...................................................
          :                      SETUP                      :
          :.................................................:
          :   optimization level            normal          :
          :   max. optcycles                   200          :
          :   ANC micro-cycles                  20          :
          :   degrees of freedom                54          :
          :.................................................:
          :   RF solver                   davidson          :
          :   write xtbopt.log                true          :
          :   linear?                        false          :
          :   energy convergence         0.5000000E-05 Eh   :
          :   grad. convergence          0.1000000E-02 Eh/α :
          :   maximium RF displ.         1.0000000          :
          :   Hlow (freq-cutoff)         0.1000000E-01      :
          :   Hmax (freq-cutoff)         5.0000000          :
          :   S6 in model hess.         20.0000000          :
          ...................................................

generating ANC from model Hessian ...
Using Lindh-Hessian (1995)
 Shifting diagonal of input Hessian by    8.2263943555226475E-003
 Lowest  eigenvalues of input Hessian
    0.000000    0.000000    0.000000    0.000000    0.000000    0.000000
    0.010000    0.010389    0.010787    0.015195    0.017080    0.018999
    0.021317    0.023023    0.033564    0.042090    0.052606    0.055082
 Highest eigenvalues
    1.319563    1.394185    1.403243    1.457176    1.707619    2.258132


........................................................................
.............................. CYCLE    1 ..............................
........................................................................
   1    -27.8687127 -0.278687E+02  0.273E-05    4.84       0.0  T
   2    -27.8687127 -0.233413E-11  0.162E-05    4.84    1377.8  T
   3    -27.8687127 -0.405009E-12  0.976E-06    4.84    2290.4  T
     SCC iter.                  ...        0 min,  0.003 sec
     gradient                   ...        0 min,  0.001 sec
 * total energy  :   -27.5661796 Eh     change       -0.5758949E-10 Eh
   gradient norm :     0.0363651 Eh/α   predicted     0.0000000E+00 (-100.00%)
   displ. norm   :     0.1614014 α      lambda       -0.3764074E-02
   maximum displ.:     0.0567649 α      in ANC's #35, #18, #6, ...

........................................................................
.............................. CYCLE    2 ..............................
........................................................................
   1    -27.8792054 -0.278792E+02  0.187E-01    4.99       0.0  T
   2    -27.8792216 -0.161359E-04  0.111E-01    4.97       1.0  T
   3    -27.8792210  0.608955E-06  0.202E-02    4.98       1.1  T
   4    -27.8792240 -0.306265E-05  0.511E-03    4.97       4.4  T
   5    -27.8792241 -0.554385E-07  0.280E-03    4.97       8.0  T
   6    -27.8792241 -0.950045E-08  0.833E-04    4.97      26.9  T
   7    -27.8792241 -0.162643E-08  0.246E-04    4.97      91.0  T
     SCC iter.                  ...        0 min,  0.007 sec
     gradient                   ...        0 min,  0.001 sec
 * total energy  :   -27.5684278 Eh     change       -0.2248210E-02 Eh
   gradient norm :     0.0129575 Eh/α   predicted    -0.1931092E-02 ( -14.11%)
   displ. norm   :     0.1305477 α      lambda       -0.7933396E-03
   maximum displ.:     0.0527640 α      in ANC's #6, #4, #12, ...

........................................................................
.............................. CYCLE    3 ..............................
........................................................................
   1    -27.8828181 -0.278828E+02  0.811E-02    5.02       0.0  T
   2    -27.8828244 -0.622737E-05  0.473E-02    5.02       1.0  T
   3    -27.8828245 -0.116505E-06  0.116E-02    5.02       1.9  T
   4    -27.8828249 -0.435611E-06  0.292E-03    5.02       7.7  T
   5    -27.8828249 -0.421277E-07  0.133E-03    5.02      16.8  T
   6    -27.8828249 -0.156571E-08  0.459E-04    5.02      48.7  T
   7    -27.8828249 -0.259174E-09  0.103E-04    5.02     217.1  T
     SCC iter.                  ...        0 min,  0.007 sec
     gradient                   ...        0 min,  0.001 sec
 * total energy  :   -27.5687946 Eh     change       -0.3667472E-03 Eh
   gradient norm :     0.0088333 Eh/α   predicted    -0.4034331E-03 (  10.00%)
   displ. norm   :     0.0935138 α      lambda       -0.2300242E-03
   maximum displ.:     0.0452023 α      in ANC's #6, #1, #7, ...

........................................................................
.............................. CYCLE    4 ..............................
........................................................................
   1    -27.8824054 -0.278824E+02  0.502E-02    5.01       0.0  T
   2    -27.8824084 -0.291465E-05  0.289E-02    5.01       1.0  T
   3    -27.8824084 -0.890349E-07  0.656E-03    5.00       3.4  T
   4    -27.8824085 -0.457587E-07  0.102E-03    5.01      22.0  T
   5    -27.8824085 -0.615842E-08  0.462E-04    5.01      48.4  T
   6    -27.8824085 -0.257550E-09  0.178E-04    5.01     125.8  T
     SCC iter.                  ...        0 min,  0.006 sec
     gradient                   ...        0 min,  0.001 sec
 * total energy  :   -27.5689358 Eh     change       -0.1411961E-03 Eh
   gradient norm :     0.0026736 Eh/α   predicted    -0.1160195E-03 ( -17.83%)
   displ. norm   :     0.1106415 α      lambda       -0.1046047E-03
   maximum displ.:     0.0487130 α      in ANC's #3, #1, #5, ...

........................................................................
.............................. CYCLE    5 ..............................
........................................................................
   1    -27.8815792 -0.278816E+02  0.414E-02    4.99       0.0  T
   2    -27.8815801 -0.914815E-06  0.243E-02    4.99       1.0  T
   3    -27.8815802 -0.494737E-07  0.339E-03    4.99       6.6  T
   4    -27.8815802 -0.525379E-07  0.982E-04    4.99      22.8  T
   5    -27.8815802 -0.409784E-08  0.530E-04    4.99      42.2  T
     SCC iter.                  ...        0 min,  0.005 sec
     gradient                   ...        0 min,  0.001 sec
 * total energy  :   -27.5690190 Eh     change       -0.8323662E-04 Eh
   gradient norm :     0.0043698 Eh/α   predicted    -0.5294289E-04 ( -36.39%)
   displ. norm   :     0.2380402 α      lambda       -0.1703882E-03
   maximum displ.:     0.1173657 α      in ANC's #5, #3, #4, ...

........................................................................
.............................. CYCLE    6 ..............................
........................................................................
   1    -27.8802360 -0.278802E+02  0.817E-02    4.97       0.0  T
   2    -27.8802374 -0.141055E-05  0.480E-02    4.97       1.0  T
   3    -27.8802377 -0.266876E-06  0.415E-03    4.97       5.4  T
   4    -27.8802378 -0.102085E-06  0.188E-03    4.97      11.9  T
   5    -27.8802378 -0.592586E-08  0.952E-04    4.97      23.5  T
   6    -27.8802378 -0.139392E-08  0.238E-04    4.97      94.1  T
     SCC iter.                  ...        0 min,  0.006 sec
     gradient                   ...        0 min,  0.001 sec
 * total energy  :   -27.5691331 Eh     change       -0.1140743E-03 Eh
   gradient norm :     0.0094033 Eh/α   predicted    -0.9002384E-04 ( -21.08%)
   displ. norm   :     0.1731748 α      lambda       -0.1045864E-03
   maximum displ.:     0.1008307 α      in ANC's #5, #3, #4, ...

........................................................................
.............................. CYCLE    7 ..............................
........................................................................
   1    -27.8801938 -0.278802E+02  0.563E-02    4.98       0.0  T
   2    -27.8801942 -0.459062E-06  0.329E-02    4.98       1.0  T
   3    -27.8801944 -0.170921E-06  0.220E-03    4.98      10.2  T
   4    -27.8801944 -0.753823E-08  0.110E-03    4.98      20.3  T
   5    -27.8801944 -0.119591E-08  0.389E-04    4.98      57.5  T
   6    -27.8801944 -0.302844E-09  0.102E-04    4.98     218.9  T
     SCC iter.                  ...        0 min,  0.006 sec
     gradient                   ...        0 min,  0.001 sec
 * total energy  :   -27.5692145 Eh     change       -0.8145101E-04 Eh
   gradient norm :     0.0088216 Eh/α   predicted    -0.5386179E-04 ( -33.87%)
   displ. norm   :     0.2122285 α      lambda       -0.1450975E-03
   maximum displ.:     0.1331771 α      in ANC's #5, #3, #4, ...

........................................................................
.............................. CYCLE    8 ..............................
........................................................................
   1    -27.8813255 -0.278813E+02  0.716E-02    5.00       0.0  T
   2    -27.8813273 -0.187899E-05  0.414E-02    5.00       1.0  T
   3    -27.8813276 -0.265941E-06  0.434E-03    5.00       5.2  T
   4    -27.8813277 -0.496528E-07  0.160E-03    5.00      14.0  T
   5    -27.8813277 -0.621628E-08  0.865E-04    5.00      25.8  T
   6    -27.8813277 -0.107512E-08  0.233E-04    5.00      96.0  T
     SCC iter.                  ...        0 min,  0.006 sec
     gradient                   ...        0 min,  0.001 sec
 * total energy  :   -27.5693114 Eh     change       -0.9683897E-04 Eh
   gradient norm :     0.0040062 Eh/α   predicted    -0.7581604E-04 ( -21.71%)
   displ. norm   :     0.1387074 α      lambda       -0.5745883E-04
   maximum displ.:     0.0776945 α      in ANC's #3, #5, #4, ...

........................................................................
.............................. CYCLE    9 ..............................
........................................................................
   1    -27.8817971 -0.278818E+02  0.544E-02    5.00       0.0  T
   2    -27.8817975 -0.379153E-06  0.318E-02    5.00       1.0  T
   3    -27.8817976 -0.128578E-06  0.199E-03    5.00      11.3  T
   4    -27.8817976 -0.918530E-08  0.109E-03    5.00      20.6  T
   5    -27.8817976 -0.156996E-08  0.434E-04    5.00      51.6  T
   6    -27.8817976 -0.512934E-09  0.110E-04    5.00     203.5  T
     SCC iter.                  ...        0 min,  0.006 sec
     gradient                   ...        0 min,  0.001 sec
 * total energy  :   -27.5693530 Eh     change       -0.4167877E-04 Eh
   gradient norm :     0.0025842 Eh/α   predicted    -0.2928567E-04 ( -29.73%)
   displ. norm   :     0.1136776 α      lambda       -0.4890015E-04
   maximum displ.:     0.0700921 α      in ANC's #3, #4, #5, ...

........................................................................
.............................. CYCLE   10 ..............................
........................................................................
   1    -27.8828212 -0.278828E+02  0.482E-02    5.01       0.0  T
   2    -27.8828217 -0.551185E-06  0.281E-02    5.01       1.0  T
   3    -27.8828218 -0.100366E-06  0.219E-03    5.01      10.2  T
   4    -27.8828219 -0.107903E-07  0.947E-04    5.01      23.6  T
   5    -27.8828219 -0.101144E-08  0.452E-04    5.01      49.5  T
     SCC iter.                  ...        0 min,  0.005 sec
     gradient                   ...        0 min,  0.001 sec
 * total energy  :   -27.5693882 Eh     change       -0.3520900E-04 Eh
   gradient norm :     0.0014983 Eh/α   predicted    -0.2477258E-04 ( -29.64%)
   displ. norm   :     0.3076789 α      lambda       -0.5398812E-04
   maximum displ.:     0.1994026 α      in ANC's #3, #4, #5, ...

........................................................................
.............................. CYCLE   11 ..............................
........................................................................
   1    -27.8809411 -0.278809E+02  0.130E-01    4.98       0.0  T
   2    -27.8809439 -0.286761E-05  0.764E-02    4.98       1.0  T
   3    -27.8809440 -0.117324E-06  0.882E-03    4.98       2.5  T
   4    -27.8809449 -0.855864E-06  0.304E-03    4.98       7.4  T
   5    -27.8809449 -0.853868E-08  0.105E-03    4.98      21.3  T
   6    -27.8809449 -0.230310E-08  0.271E-04    4.98      82.4  T
   7    -27.8809449 -0.958025E-10  0.967E-05    4.98     231.1  T
     SCC iter.                  ...        0 min,  0.007 sec
     gradient                   ...        0 min,  0.001 sec
 * total energy  :   -27.5694045 Eh     change       -0.1625020E-04 Eh
   gradient norm :     0.0074083 Eh/α   predicted    -0.2813142E-04 (  73.11%)
   displ. norm   :     0.0911383 α      lambda       -0.9479783E-04
   maximum displ.:     0.0578093 α      in ANC's #2, #1, #5, ...

........................................................................
.............................. CYCLE   12 ..............................
........................................................................
   1    -27.8826641 -0.278827E+02  0.267E-02    5.02       0.0  T
   2    -27.8826651 -0.937668E-06  0.159E-02    5.01       1.4  T
   3    -27.8826651  0.206724E-07  0.464E-03    5.01       4.8  T
   4    -27.8826652 -0.114145E-06  0.885E-04    5.01      25.3  T
   5    -27.8826652 -0.236534E-08  0.468E-04    5.01      47.7  T
     SCC iter.                  ...        0 min,  0.005 sec
     gradient                   ...        0 min,  0.001 sec
 * total energy  :   -27.5694690 Eh     change       -0.6452115E-04 Eh
   gradient norm :     0.0036336 Eh/α   predicted    -0.4779693E-04 ( -25.92%)
   displ. norm   :     0.1317347 α      lambda       -0.5611982E-04
   maximum displ.:     0.0718377 α      in ANC's #2, #3, #1, ...

........................................................................
.............................. CYCLE   13 ..............................
........................................................................
   1    -27.8829884 -0.278830E+02  0.436E-02    5.03       0.0  T
   2    -27.8829887 -0.233628E-06  0.257E-02    5.03       1.0  T
   3    -27.8829887 -0.339840E-07  0.242E-03    5.03       9.2  T
   4    -27.8829887 -0.569362E-07  0.100E-03    5.03      22.4  T
   5    -27.8829887 -0.777039E-09  0.320E-04    5.03      70.0  T
   6    -27.8829887 -0.219448E-09  0.758E-05    5.03     295.0  T
     SCC iter.                  ...        0 min,  0.006 sec
     gradient                   ...        0 min,  0.001 sec
 * total energy  :   -27.5695133 Eh     change       -0.4426967E-04 Eh
   gradient norm :     0.0033312 Eh/α   predicted    -0.2854757E-04 ( -35.51%)
   displ. norm   :     0.2807856 α      lambda       -0.7820156E-04
   maximum displ.:     0.1660717 α      in ANC's #3, #2, #1, ...

........................................................................
.............................. CYCLE   14 ..............................
........................................................................
   1    -27.8817011 -0.278817E+02  0.102E-01    5.01       0.0  T
   2    -27.8817020 -0.931924E-06  0.599E-02    5.02       1.0  T
   3    -27.8817024 -0.387650E-06  0.374E-03    5.01       6.0  T
   4    -27.8817025 -0.670246E-07  0.217E-03    5.02      10.3  T
   5    -27.8817025 -0.614774E-08  0.740E-04    5.02      30.2  T
   6    -27.8817025 -0.103187E-08  0.161E-04    5.02     139.1  T
     SCC iter.                  ...        0 min,  0.004 sec
     gradient                   ...        0 min,  0.001 sec
 * total energy  :   -27.5695578 Eh     change       -0.4456178E-04 Eh
   gradient norm :     0.0029164 Eh/α   predicted    -0.4218660E-04 (  -5.33%)
   displ. norm   :     0.0542258 α      lambda       -0.2273253E-04
   maximum displ.:     0.0412517 α      in ANC's #1, #5, #2, ...

........................................................................
.............................. CYCLE   15 ..............................
........................................................................
   1    -27.8822390 -0.278822E+02  0.179E-02    5.03       0.0  T
   2    -27.8822402 -0.117640E-05  0.993E-03    5.02       2.3  T
   3    -27.8822402 -0.554462E-07  0.464E-03    5.03       4.8  T
   4    -27.8822403 -0.276619E-07  0.126E-03    5.02      17.8  T
   5    -27.8822403 -0.768181E-08  0.318E-04    5.02      70.3  T
   6    -27.8822403 -0.153150E-09  0.911E-05    5.02     245.5  T
     SCC iter.                  ...        0 min,  0.004 sec
     gradient                   ...        0 min,  0.001 sec
 * total energy  :   -27.5695701 Eh     change       -0.1224878E-04 Eh
   gradient norm :     0.0016420 Eh/α   predicted    -0.1139990E-04 (  -6.93%)
   displ. norm   :     0.1032848 α      lambda       -0.1211539E-04
   maximum displ.:     0.0676166 α      in ANC's #3, #1, #2, ...

........................................................................
.............................. CYCLE   16 ..............................
........................................................................
   1    -27.8822622 -0.278823E+02  0.398E-02    5.02       0.0  T
   2    -27.8822623 -0.151019E-06  0.233E-02    5.02       1.0  T
   3    -27.8822624 -0.535562E-07  0.172E-03    5.02      13.0  T
   4    -27.8822624 -0.223590E-07  0.892E-04    5.02      25.1  T
   5    -27.8822624 -0.936488E-09  0.195E-04    5.02     114.4  T
     SCC iter.                  ...        0 min,  0.004 sec
     gradient                   ...        0 min,  0.001 sec
 * total energy  :   -27.5695806 Eh     change       -0.1055582E-04 Eh
   gradient norm :     0.0022396 Eh/α   predicted    -0.6087178E-05 ( -42.33%)
   displ. norm   :     0.0283516 α      lambda       -0.8062002E-05
   maximum displ.:     0.0173184 α      in ANC's #3, #1, #2, ...

........................................................................
.............................. CYCLE   17 ..............................
........................................................................
   1    -27.8825438 -0.278825E+02  0.123E-02    5.02       0.0  T
   2    -27.8825439 -0.768296E-07  0.724E-03    5.02       3.1  T
   3    -27.8825439  0.365482E-08  0.129E-03    5.02      17.3  T
   4    -27.8825439 -0.134565E-07  0.314E-04    5.02      71.2  T
   5    -27.8825439 -0.434259E-09  0.158E-04    5.02     141.7  T
     SCC iter.                  ...        0 min,  0.004 sec
     gradient                   ...        0 min,  0.001 sec
 * total energy  :   -27.5695868 Eh     change       -0.6137160E-05 Eh
   gradient norm :     0.0018671 Eh/α   predicted    -0.4039036E-05 ( -34.19%)
   displ. norm   :     0.1054533 α      lambda       -0.1055860E-04
   maximum displ.:     0.0810683 α      in ANC's #3, #1, #6, ...

........................................................................
.............................. CYCLE   18 ..............................
........................................................................
   1    -27.8824273 -0.278824E+02  0.495E-02    5.02       0.0  T
   2    -27.8824275 -0.220708E-06  0.291E-02    5.02       1.0  T
   3    -27.8824276 -0.726434E-07  0.158E-03    5.02      14.1  T
   4    -27.8824276 -0.105303E-07  0.886E-04    5.02      25.2  T
   5    -27.8824276 -0.158483E-08  0.431E-04    5.02      51.9  T
     SCC iter.                  ...        0 min,  0.004 sec
     gradient                   ...        0 min,  0.001 sec
 * total energy  :   -27.5695952 Eh     change       -0.8462051E-05 Eh
   gradient norm :     0.0027280 Eh/α   predicted    -0.5307107E-05 ( -37.28%)
   displ. norm   :     0.0273007 α      lambda       -0.6934732E-05
   maximum displ.:     0.0186273 α      in ANC's #3, #2, #1, ...

........................................................................
.............................. CYCLE   19 ..............................
........................................................................
   1    -27.8827188 -0.278827E+02  0.122E-02    5.02       0.0  T
   2    -27.8827189 -0.100261E-06  0.709E-03    5.02       3.2  T
   3    -27.8827189 -0.367838E-08  0.114E-03    5.02      19.6  T
   4    -27.8827189 -0.445322E-08  0.307E-04    5.02      72.9  T
   5    -27.8827189 -0.648296E-09  0.157E-04    5.02     142.1  T
     SCC iter.                  ...        0 min,  0.004 sec
     gradient                   ...        0 min,  0.001 sec
 * total energy  :   -27.5696007 Eh     change       -0.5438448E-05 Eh
   gradient norm :     0.0017188 Eh/α   predicted    -0.3472075E-05 ( -36.16%)
   displ. norm   :     0.2191741 α      lambda       -0.2251380E-04
   maximum displ.:     0.1785075 α      in ANC's #3, #1, #2, ...

........................................................................
.............................. CYCLE   20 ..............................
........................................................................
   1    -27.8819694 -0.278820E+02  0.109E-01    5.02       0.0  T
   2    -27.8819701 -0.706558E-06  0.641E-02    5.03       1.0  T
   3    -27.8819705 -0.366872E-06  0.309E-03    5.03       7.2  T
   4    -27.8819705 -0.166289E-07  0.180E-03    5.03      12.5  T
   5    -27.8819705 -0.535592E-08  0.566E-04    5.03      39.5  T
   6    -27.8819705 -0.104843E-08  0.163E-04    5.03     137.4  T
     SCC iter.                  ...        0 min,  0.004 sec
     gradient                   ...        0 min,  0.001 sec
 * total energy  :   -27.5696187 Eh     change       -0.1798049E-04 Eh
   gradient norm :     0.0025136 Eh/α   predicted    -0.1150008E-04 ( -36.04%)
   displ. norm   :     0.0823576 α      lambda       -0.1670580E-04
   maximum displ.:     0.0591680 α      in ANC's #3, #2, #1, ...
 * RMSD in coord.:     0.4497829 α      energy gain  -0.3439068E-02 Eh

generating ANC from model Hessian ...
Using Lindh-Hessian (1995)
 Shifting diagonal of input Hessian by    8.1481084550167112E-003
 Lowest  eigenvalues of input Hessian
    0.000000    0.000000    0.000000    0.000000    0.000000    0.000000
    0.010000    0.010286    0.010902    0.015076    0.017771    0.018844
    0.020916    0.023034    0.033628    0.045119    0.053184    0.055221
 Highest eigenvalues
    1.340328    1.418239    1.420744    1.448598    1.785915    2.291446


........................................................................
.............................. CYCLE   21 ..............................
........................................................................
   1    -27.8823993 -0.278824E+02  0.410E-02    5.02       0.0  T
   2    -27.8823994 -0.876989E-07  0.241E-02    5.03       1.0  T
   3    -27.8823995 -0.456778E-07  0.123E-03    5.02      18.2  T
   4    -27.8823995 -0.622037E-08  0.733E-04    5.02      30.5  T
   5    -27.8823995 -0.878860E-09  0.128E-04    5.02     174.9  T
     SCC iter.                  ...        0 min,  0.004 sec
     gradient                   ...        0 min,  0.001 sec
 * total energy  :   -27.5696272 Eh     change       -0.8544518E-05 Eh
   gradient norm :     0.0018092 Eh/α   predicted     0.0000000E+00 (-100.00%)
   displ. norm   :     0.0206800 α      lambda       -0.7662835E-05
   maximum displ.:     0.0106573 α      in ANC's #2, #3, #4, ...

........................................................................
.............................. CYCLE   22 ..............................
........................................................................
   1    -27.8828179 -0.278828E+02  0.110E-02    5.03       0.0  T
   2    -27.8828179 -0.781437E-07  0.643E-03    5.03       3.5  T
   3    -27.8828179 -0.344247E-09  0.124E-03    5.03      18.0  T
   4    -27.8828179 -0.769236E-08  0.292E-04    5.03      76.6  T
   5    -27.8828179 -0.294374E-09  0.159E-04    5.03     140.6  T
     SCC iter.                  ...        0 min,  0.004 sec
     gradient                   ...        0 min,  0.001 sec
 * total energy  :   -27.5696346 Eh     change       -0.7375293E-05 Eh
   gradient norm :     0.0005124 Eh/α   predicted    -0.4110168E-05 ( -44.27%)
   displ. norm   :     0.0215696 α      lambda       -0.2496831E-05
   maximum displ.:     0.0124176 α      in ANC's #2, #3, #4, ...

........................................................................
.............................. CYCLE   23 ..............................
........................................................................
   1    -27.8827632 -0.278828E+02  0.957E-03    5.03       0.0  T
   2    -27.8827632 -0.111983E-07  0.567E-03    5.03       3.9  T
   3    -27.8827632 -0.194008E-08  0.386E-04    5.03      57.9  T
   4    -27.8827632 -0.794856E-09  0.180E-04    5.03     124.2  T
     SCC iter.                  ...        0 min,  0.003 sec
     gradient                   ...        0 min,  0.001 sec
 * total energy  :   -27.5696371 Eh     change       -0.2497592E-05 Eh
   gradient norm :     0.0004079 Eh/α   predicted    -0.1252479E-05 ( -49.85%)
   displ. norm   :     0.0253733 α      lambda       -0.1687158E-05
   maximum displ.:     0.0148201 α      in ANC's #3, #2, #4, ...

   *** GEOMETRY OPTIMIZATION CONVERGED AFTER 23 ITERATIONS ***

------------------------------------------------------------------------
 total energy gain   :        -0.0034575 Eh       -2.1696 kcal/mol
 total RMSD          :         0.4535240 a0        0.2400 Å
 total power (kW/mol):        -0.3946794 (step)  -49.0866 (real)
------------------------------------------------------------------------

 ANCopt (total)                0 d,  0 h,  0 min,  0.185 sec
 optimizer setup                ...        0 min,  0.000 sec (  0.088%)
 model hessian                  ...        0 min,  0.012 sec (  6.430%)
 ANC generation                 ...        0 min,  0.002 sec (  0.967%)
 coordinate transformation      ...        0 min,  0.001 sec (  0.299%)
 single point calculation       ...        0 min,  0.163 sec ( 87.981%)
 optimization log               ...        0 min,  0.002 sec (  1.190%)
 hessian update                 ...        0 min,  0.000 sec (  0.262%)
 rational function              ...        0 min,  0.003 sec (  1.385%)

================
 final structure:
================
20
 xtb: 6.5.1 (fef0646)
N            0.89787594641369        0.02589858522726       -0.11021762268712
C            2.36737338329535       -0.15925778121887       -0.02602867494259
C            2.98665413883841       -0.11740089256029       -1.42060466865612
C            4.51405453669966       -0.09124758472131       -1.37442686946410
C            5.12177162131128       -1.38391355174007       -0.82816246153905
C            6.62144529767598       -1.40029134909625       -0.99774011037926
O            7.24749825713108       -2.49786320878922       -0.56628810681051
O            7.25846700124831       -0.49671229432011       -1.48853555032857
H            0.47205622565437       -0.00568091899952        0.82288438956668
H            0.47983151072755       -0.71207306896626       -0.68917114213840
H            0.67986651708538        0.93270339147015       -0.53980009416152
H            2.57153219341318       -1.11595945170086        0.45211442206668
H            2.79336667863662        0.63622548384571        0.58548148321872
H            2.66092173815211        0.78519362714312       -1.93809457973665
H            2.66678309161536       -0.98004597953627       -2.00569977210849
H            4.86358612028928        0.74815121400411       -0.77149310040042
H            4.90370127049087        0.06625758692482       -2.38170284579581
H            4.71502558325741       -2.24602014011257       -1.36215538020493
H            4.91053238976768       -1.49720617771148        0.23643408554383
H            6.65386649829636       -3.17478748914216       -0.19213340104245

 Bond Distances (Angstroems)
 ---------------------------
N1-C2=1.4835         N1-H9=1.0262         N1-H10=1.0269        N1-H11=1.0268        C2-N1=1.4835         C2-C3=1.5265         
C2-H12=1.0888        C2-H13=1.0900        C3-C2=1.5265         C3-C4=1.5283         C3-H14=1.0902        C3-H15=1.0903        
C4-C3=1.5283         C4-C5=1.5293         C4-H16=1.0910        C4-H17=1.0914        C5-C4=1.5293         C5-C6=1.5093         
C5-H18=1.0926        C5-H19=1.0912        C6-C5=1.5093         C6-O7=1.3352         C6-O8=1.2096         O7-C6=1.3352         
O7-H20=0.9750        O8-C6=1.2096         H9-N1=1.0262         H10-N1=1.0269        H11-N1=1.0268        H12-C2=1.0888        
H13-C2=1.0900        H14-C3=1.0902        H15-C3=1.0903        H16-C4=1.0910        H17-C4=1.0914        H18-C5=1.0926        
H19-C5=1.0912        H20-O7=0.9750        
 C  H  Rav=1.0907 sigma=0.0011  Rmin=1.0888  Rmax=1.0926     8
 C  C  Rav=1.5233 sigma=0.0082  Rmin=1.5093  Rmax=1.5293     4
 N  H  Rav=1.0266 sigma=0.0003  Rmin=1.0262  Rmax=1.0269     3
 N  C  Rav=1.4835 sigma=0.0000  Rmin=1.4835  Rmax=1.4835     1
 O  H  Rav=0.9750 sigma=0.0000  Rmin=0.9750  Rmax=0.9750     1
 O  C  Rav=1.2724 sigma=0.0628  Rmin=1.2096  Rmax=1.3352     2

 selected bond angles (degree)
 --------------------
H9-N1-C2=110.83                H10-N1-C2=110.22               H10-N1-H9=108.76               H11-N1-C2=110.14               
H11-N1-H9=108.63               H11-N1-H10=108.20              C3-C2-N1=110.28                H12-C2-N1=108.68               
H12-C2-C3=110.44               H13-C2-N1=109.14               H13-C2-C3=109.51               H13-C2-H12=108.76              
C4-C3-C2=112.23                H14-C3-C2=109.58               H14-C3-C4=107.38               H15-C3-C2=110.46               
H15-C3-C4=108.84               H15-C3-H14=108.22              C5-C4-C3=113.17                H16-C4-C3=110.49               
H16-C4-C5=109.00               H17-C4-C3=109.35               H17-C4-C5=108.05               H17-C4-H16=106.54              
C6-C5-C4=111.34                H18-C5-C4=110.15               H18-C5-C6=107.84               H19-C5-C4=111.06               
H19-C5-C6=107.51               H19-C5-H18=108.83              O7-C6-C5=116.01                O8-C6-C5=124.11                
O8-C6-O7=119.88                H20-O7-C6=114.16               

 selected dihedral angles (degree)
 ---------------------------------
C3-C2-N1-H9=179.71            C3-C2-N1-H10= 59.26           C3-C2-N1-H11=299.95           H12-C2-N1-H9= 58.51           
H12-C2-N1-H10=298.06          H12-C2-N1-H11=178.75          H13-C2-N1-H9=300.04           H13-C2-N1-H10=179.59          
H13-C2-N1-H11= 60.28          C4-C3-C2-N1=171.35            C4-C3-C2-H12=291.49           C4-C3-C2-H13= 51.23           
H14-C3-C2-N1= 52.14           H14-C3-C2-H12=172.28          H14-C3-C2-H13=292.03          H15-C3-C2-N1=293.00           
H15-C3-C2-H12= 53.15          H15-C3-C2-H13=172.89          C5-C4-C3-C2= 66.66            C5-C4-C3-H14=187.15           
C5-C4-C3-H15=304.08           H16-C4-C3-C2=304.11           H16-C4-C3-H14= 64.59          H16-C4-C3-H15=181.53          
H17-C4-C3-C2=187.15           H17-C4-C3-H14=307.64          H17-C4-C3-H15= 64.58          C6-C5-C4-C3=171.21            
C6-C5-C4-H16=294.58           C6-C5-C4-H17= 49.97           H18-C5-C4-C3= 51.62           H18-C5-C4-H16=175.00          
H18-C5-C4-H17=290.39          H19-C5-C4-C3=290.98           H19-C5-C4-H16= 54.35          H19-C5-C4-H17=169.74          
O7-C6-C5-C4=180.83            O7-C6-C5-H18=301.77           O7-C6-C5-H19= 58.98           O8-C6-C5-C4=  0.85            
O8-C6-C5-H18=121.80           O8-C6-C5-H19=239.00           H20-O7-C6-C5=  0.45           H20-O7-C6-O8=180.42           
           -------------------------------------------------
          |                Final Singlepoint                |
           -------------------------------------------------

          ...................................................
          :                      SETUP                      :
          :.................................................:
          :  # basis functions                  44          :
          :  # atomic orbitals                  44          :
          :  # shells                           28          :
          :  # electrons                        48          :
          :  max. iterations                   250          :
          :  Hamiltonian                  GFN2-xTB          :
          :  restarted?                      false          :
          :  GBSA solvation                   true          :
          :  PC potential                    false          :
          :  electronic temp.          300.0000000     K    :
          :  accuracy                    1.0000000          :
          :  -> integral cutoff          0.2500000E+02      :
          :  -> integral neglect         0.1000000E-07      :
          :  -> SCF convergence          0.1000000E-05 Eh   :
          :  -> wf. convergence          0.1000000E-03 e    :
          :  Broyden damping             0.4000000          :
          ...................................................

 iter      E             dE          RMSdq      gap      omega  full diag
   1    -27.8827632 -0.278828E+02  0.794E-05    5.03       0.0  T
   2    -27.8827632 -0.878586E-11  0.482E-05    5.03     463.8  T
   3    -27.8827632 -0.426326E-12  0.203E-05    5.03    1103.2  T

   *** convergence criteria satisfied after 3 iterations ***

         #    Occupation            Energy/Eh            Energy/eV
      -------------------------------------------------------------
         1        2.0000           -0.7443534             -20.2549
       ...           ...                  ...                  ...
        18        2.0000           -0.4871614             -13.2563
        19        2.0000           -0.4761779             -12.9575
        20        2.0000           -0.4684817             -12.7480
        21        2.0000           -0.4653796             -12.6636
        22        2.0000           -0.4407397             -11.9931
        23        2.0000           -0.4380686             -11.9205
        24        2.0000           -0.4219941             -11.4830 (HOMO)
        25                         -0.2371674              -6.4537 (LUMO)
        26                         -0.0529585              -1.4411
        27                          0.0498587               1.3567
        28                          0.0504673               1.3733
        29                          0.0779739               2.1218
       ...                                ...                  ...
        44                          0.6041140              16.4388
      -------------------------------------------------------------
                  HL-Gap            0.1848266 Eh            5.0294 eV
             Fermi-level           -0.3295807 Eh           -8.9683 eV

 SCC (total)                   0 d,  0 h,  0 min,  0.004 sec
 SCC setup                      ...        0 min,  0.000 sec (  3.564%)
 Dispersion                     ...        0 min,  0.000 sec (  2.751%)
 classical contributions        ...        0 min,  0.000 sec (  0.594%)
 integral evaluation            ...        0 min,  0.000 sec (  8.111%)
 iterations                     ...        0 min,  0.002 sec ( 58.024%)
 molecular gradient             ...        0 min,  0.001 sec ( 22.810%)
 printout                       ...        0 min,  0.000 sec (  1.857%)

         :::::::::::::::::::::::::::::::::::::::::::::::::::::
         ::                     SUMMARY                     ::
         :::::::::::::::::::::::::::::::::::::::::::::::::::::
         :: total energy             -27.569637085275 Eh    ::
         :: total w/o Gsasa/hb       -27.554232574726 Eh    ::
         :: gradient norm              0.000408459590 Eh/a0 ::
         :: HOMO-LUMO gap              5.029388886960 eV    ::
         ::.................................................::
         :: SCC energy               -27.882763233326 Eh    ::
         :: -> isotropic ES            0.205183703528 Eh    ::
         :: -> anisotropic ES         -0.015685843740 Eh    ::
         :: -> anisotropic XC          0.010443644784 Eh    ::
         :: -> dispersion             -0.010547819687 Eh    ::
         :: -> Gsolv                  -0.147775725639 Eh    ::
         ::    -> Gelec               -0.132371215091 Eh    ::
         ::    -> Gsasa                0.002759388562 Eh    ::
         ::    -> Ghb                 -0.019244658808 Eh    ::
         ::    -> Gshift               0.001080759698 Eh    ::
         :: repulsion energy           0.313131519190 Eh    ::
         :: add. restraining           0.000000000000 Eh    ::
         :: total charge               1.000000000000 e     ::
         :::::::::::::::::::::::::::::::::::::::::::::::::::::

           -------------------------------------------------
          |                Property Printout                |
           -------------------------------------------------

    * Orbital Energies and Occupations

         #    Occupation            Energy/Eh            Energy/eV
      -------------------------------------------------------------
         1        2.0000           -0.7443534             -20.2549
       ...           ...                  ...                  ...
        12        2.0000           -0.5683583             -15.4658
        13        2.0000           -0.5540209             -15.0757
        14        2.0000           -0.5484397             -14.9238
        15        2.0000           -0.5171694             -14.0729
        16        2.0000           -0.5092480             -13.8573
        17        2.0000           -0.5028157             -13.6823
        18        2.0000           -0.4871614             -13.2563
        19        2.0000           -0.4761779             -12.9575
        20        2.0000           -0.4684817             -12.7480
        21        2.0000           -0.4653796             -12.6636
        22        2.0000           -0.4407397             -11.9931
        23        2.0000           -0.4380686             -11.9205
        24        2.0000           -0.4219941             -11.4830 (HOMO)
        25                         -0.2371674              -6.4537 (LUMO)
        26                         -0.0529585              -1.4411
        27                          0.0498587               1.3567
        28                          0.0504673               1.3733
        29                          0.0779739               2.1218
        30                          0.0826363               2.2486
        31                          0.1006415               2.7386
        32                          0.1266276               3.4457
        33                          0.1329235               3.6170
        34                          0.1501368               4.0854
        35                          0.1536090               4.1799
       ...                                ...                  ...
        44                          0.6041140              16.4388
      -------------------------------------------------------------
                  HL-Gap            0.1848266 Eh            5.0294 eV
             Fermi-level           -0.3295807 Eh           -8.9683 eV

     #   Z          covCN         q      C6AA      α(0)
     1   7 N        3.485    -0.163    24.506     7.352
     2   6 C        3.732    -0.040    21.381     6.600
     3   6 C        3.802    -0.089    22.200     6.708
     4   6 C        3.804    -0.067    21.775     6.643
     5   6 C        3.802    -0.120    22.793     6.797
     6   6 C        2.689     0.369    20.743     7.454
     7   8 O        1.659    -0.440    21.635     6.279
     8   8 O        0.856    -0.475    23.239     6.463
     9   1 H        0.859     0.317     0.665     1.278
    10   1 H        0.859     0.311     0.683     1.294
    11   1 H        0.859     0.307     0.692     1.303
    12   1 H        0.925     0.111     1.685     2.030
    13   1 H        0.925     0.109     1.704     2.041
    14   1 H        0.924     0.076     2.024     2.225
    15   1 H        0.924     0.074     2.038     2.233
    16   1 H        0.924     0.055     2.263     2.353
    17   1 H        0.924     0.051     2.313     2.378
    18   1 H        0.924     0.098     1.803     2.100
    19   1 H        0.924     0.099     1.796     2.096
    20   1 H        0.804     0.416     0.455     1.060

 Mol. C6AA /au·bohr⁶  :       2697.036941
 Mol. C8AA /au·bohr⁸  :      57832.960738
 Mol. α(0) /au        :         76.686563


Wiberg/Mayer (AO) data.
largest (>0.10) Wiberg bond orders for each atom

 ---------------------------------------------------------------------------
     #   Z sym  total        # sym  WBO       # sym  WBO       # sym  WBO
 ---------------------------------------------------------------------------
     1   7 N    3.652 --     2 C    0.967    11 H    0.890    10 H    0.889
                             9 H    0.886
     2   6 C    3.926 --     3 C    1.010     1 N    0.967    13 H    0.966
                            12 H    0.965
     3   6 C    3.989 --     2 C    1.010     4 C    1.006    15 H    0.972
                            14 H    0.970
     4   6 C    3.990 --     5 C    1.006     3 C    1.006    16 H    0.975
                            17 H    0.974
     5   6 C    3.989 --     4 C    1.006     6 C    0.983    18 H    0.945
                            19 H    0.945
     6   6 C    3.892 --     8 O    1.722     7 O    1.148     5 C    0.983
     7   8 O    2.160 --     6 C    1.148    20 H    0.805     8 O    0.156
     8   8 O    1.993 --     6 C    1.722     7 O    0.156
     9   1 H    0.899 --     1 N    0.886
    10   1 H    0.904 --     1 N    0.889
    11   1 H    0.906 --     1 N    0.890
    12   1 H    0.988 --     2 C    0.965
    13   1 H    0.988 --     2 C    0.966
    14   1 H    0.994 --     3 C    0.970
    15   1 H    0.994 --     3 C    0.972
    16   1 H    0.997 --     4 C    0.975
    17   1 H    0.997 --     4 C    0.974
    18   1 H    0.990 --     5 C    0.945
    19   1 H    0.990 --     5 C    0.945
    20   1 H    0.827 --     7 O    0.805
 ---------------------------------------------------------------------------

Topologies differ in total number of bonds
Writing topology from bond orders to xtbtopo.mol

molecular dipole:
                 x           y           z       tot (Debye)
 q only:        0.222      -1.226       0.512
   full:        0.067      -1.355       0.567       3.737
molecular quadrupole (traceless):
                xx          xy          yy          xz          yz          zz
 q only:      -39.296     -17.405      27.413      18.227      -0.679      11.883
  q+dip:      -44.294     -18.596      30.460      19.618       0.340      13.833
   full:      -43.793     -18.939      29.944      19.655       0.330      13.849

           -------------------------------------------------
          |                Geometry Summary                 |
           -------------------------------------------------

      molecular mass/u    :      118.1544816
   center of mass at/Å    :        4.5948872      -0.7788381      -0.8300856
  moments of inertia/u·Å² :        0.8802931E+02   0.7054252E+03   0.7597377E+03
rotational constants/cm⁻¹ :        0.1915002E+00   0.2389712E-01   0.2218875E-01

 * 18 selected distances

     #   Z          #   Z                                           value/Å
     1   7 N        2   6 C                                       1.4835073
     2   6 C        3   6 C                                       1.5264676
     3   6 C        4   6 C                                       1.5283222
     4   6 C        5   6 C                                       1.5292843 (max)
     6   6 C        7   8 O                                       1.3351994
     6   6 C        8   8 O                                       1.2096000
     1   7 N        9   1 H                                       1.0261575
     1   7 N       10   1 H                                       1.0269132
     1   7 N       11   1 H                                       1.0268225
     2   6 C       12   1 H                                       1.0888434
     2   6 C       13   1 H                                       1.0900499
     3   6 C       14   1 H                                       1.0902176
     3   6 C       15   1 H                                       1.0903259
     4   6 C       16   1 H                                       1.0910051
     4   6 C       17   1 H                                       1.0914383
     5   6 C       18   1 H                                       1.0926201
     5   6 C       19   1 H                                       1.0912485
     7   8 O       20   1 H                                       0.9749959 (min)

 * 6 distinct bonds (by element types)

   Z      Z             #   av. dist./Å        max./Å        min./Å
   1 H    6 C           8     1.0907186     1.0926201     1.0888434
   6 C    6 C           3     1.5280247     1.5292843     1.5264676
   1 H    7 N           3     1.0266311     1.0269132     1.0261575
   6 C    7 N           1     1.4835073     1.4835073     1.4835073
   1 H    8 O           1     0.9749959     0.9749959     0.9749959
   6 C    8 O           2     1.2723997     1.3351994     1.2096000


optimized geometry written to: xtbopt.xyz


           -------------------------------------------------
          | TOTAL ENERGY              -27.569637085275 Eh   |
          | GRADIENT NORM               0.000408459590 Eh/α |
          | HOMO-LUMO GAP               5.029388886960 eV   |
           -------------------------------------------------

------------------------------------------------------------------------
 * finished run on 2023/01/24 at 16:04:49.477     
------------------------------------------------------------------------
 total:
 * wall-time:     0 d,  0 h,  0 min,  0.222 sec
 *  cpu-time:     0 d,  0 h,  0 min, 23.672 sec
 * ratio c/w:   106.663 speedup
 SCF:
 * wall-time:     0 d,  0 h,  0 min,  0.016 sec
 *  cpu-time:     0 d,  0 h,  0 min,  2.339 sec
 * ratio c/w:   141.935 speedup
 ANC optimizer:
 * wall-time:     0 d,  0 h,  0 min,  0.190 sec
 *  cpu-time:     0 d,  0 h,  0 min, 19.335 sec
 * ratio c/w:   101.946 speedup

