 Entering Gaussian System
 *********************************************
 Gaussian 98:
 frequency output generated by the xtb code
 *********************************************
                         Standard orientation:
 --------------------------------------------------------------------
  Center     Atomic     Atomic              Coordinates (Angstroms)
  Number     Number      Type              X           Y           Z
 --------------------------------------------------------------------
    1          7             0       -2.428063    0.028831   -0.941372
    2          6             0       -2.022020   -1.390861   -0.737661
    3          6             0       -0.726538   -1.546846    0.053335
    4          6             0        0.510003   -0.886154   -0.604400
    5          6             0        1.810280   -1.671630   -0.300063
    6          6             0        3.027171   -1.041168   -0.999089
    7          6             0        3.192360    0.435412   -0.599552
    8          6             0        1.905844    1.229749   -0.881829
    9          6             0        0.699033    0.590766   -0.175963
   10         17             0       -2.141744    1.658035    2.112675
   11          1             0       -3.377734    0.109505   -1.346899
   12          1             0       -1.780953    0.517227   -1.582505
   13          1             0       -2.425228    0.541923   -0.042402
   14          1             0       -1.921406   -1.880153   -1.712080
   15          1             0       -2.834681   -1.925686   -0.227327
   16          1             0       -0.521523   -2.615407    0.202826
   17          1             0       -0.852502   -1.138274    1.062645
   18          1             0        0.367039   -0.905035   -1.696930
   19          1             0        1.694194   -2.725710   -0.585001
   20          1             0        1.970054   -1.678159    0.784576
   21          1             0        2.896787   -1.110519   -2.086638
   22          1             0        3.941199   -1.610202   -0.778131
   23          1             0        4.050711    0.886077   -1.116916
   24          1             0        3.430835    0.497943    0.469917
   25          1             0        1.722720    1.251838   -1.963748
   26          1             0        2.021190    2.281379   -0.583601
   27          1             0       -0.212555    1.174241   -0.348501
   28          1             0        0.855456    0.619767    0.908966
 --------------------------------------------------------------------
     1 basis functions        1 primitive gaussians
     1 alpha electrons        1 beta electrons

 Harmonic frequencies (cm**-1), IR intensities (km*mol⁻¹),
 Raman scattering activities (A**4/amu), Raman depolarization ratios,
 reduced masses (AMU), force constants (mDyne/A) and normal coordinates:
                      1                      2                      3
                        a                      a                      a 
 Frequencies --  -133.5968                58.1870                74.2963
 Red. masses --    21.5185                24.2969                13.3098
 Frc consts  --     0.0000                 0.0000                 0.0000
 IR Inten    --   131.8939                12.0395                 7.1598
 Raman Activ --     0.0000                 0.0000                 0.0000
 Depolar     --     0.0000                 0.0000                 0.0000
 Atom AN      X      Y      Z        X      Y      Z        X      Y      Z
   1   7    -0.03   0.25   0.54     0.02  -0.10  -0.17    -0.15   0.05   0.04
   2   6    -0.04   0.19   0.17    -0.07  -0.10  -0.02    -0.06   0.05  -0.11
   3   6     0.02   0.01   0.03    -0.10  -0.06   0.03    -0.06   0.08  -0.10
   4   6     0.01   0.01   0.02    -0.12   0.02   0.08    -0.02  -0.00  -0.10
   5   6     0.01   0.00  -0.01    -0.09   0.04   0.01    -0.05   0.10   0.27
   6   6     0.01  -0.00  -0.02    -0.12   0.13   0.03     0.06  -0.02   0.35
   7   6     0.03  -0.01  -0.01    -0.17   0.11   0.13    -0.02   0.05   0.12
   8   6     0.03   0.00   0.02    -0.20   0.09   0.22     0.02  -0.03  -0.28
   9   6     0.04   0.01   0.03    -0.16  -0.01   0.20    -0.12   0.10  -0.40
  10  17    -0.06  -0.34  -0.57     0.67  -0.09  -0.33     0.29  -0.27   0.13
  11   1    -0.03   0.09   0.21    -0.01  -0.02  -0.02    -0.06   0.02   0.06
  12   1    -0.05   0.09   0.12    -0.00  -0.06  -0.08    -0.08   0.03  -0.02
  13   1     0.06   0.04   0.18     0.06   0.00  -0.06     0.02  -0.01   0.03
  14   1    -0.04   0.11   0.02    -0.02  -0.06   0.01    -0.01   0.04  -0.04
  15   1     0.00   0.03   0.04    -0.03  -0.00   0.00    -0.01  -0.01  -0.05
  16   1    -0.01  -0.01  -0.03    -0.01  -0.02   0.01    -0.02   0.02  -0.01
  17   1     0.04  -0.03   0.03    -0.04  -0.02   0.01    -0.02   0.04  -0.03
  18   1    -0.00   0.01   0.01    -0.03   0.03   0.02     0.03  -0.07  -0.03
  19   1     0.00   0.00  -0.00    -0.02   0.02  -0.02     0.01   0.01   0.13
  20   1     0.01  -0.00  -0.00    -0.02  -0.01   0.00    -0.07   0.09   0.09
  21   1    -0.00   0.00  -0.00    -0.04   0.06   0.01     0.07  -0.06   0.10
  22   1     0.00  -0.00  -0.01    -0.03   0.04  -0.01     0.01   0.01   0.17
  23   1     0.01  -0.00  -0.00    -0.06   0.05   0.04     0.02  -0.01   0.06
  24   1     0.01  -0.00  -0.00    -0.04   0.01   0.04    -0.07   0.07   0.04
  25   1     0.00   0.00   0.01    -0.07   0.05   0.07     0.07  -0.07  -0.09
  26   1     0.01   0.00   0.01    -0.07   0.02   0.09    -0.02   0.01  -0.13
  27   1     0.01   0.01   0.02    -0.05  -0.01   0.09    -0.02   0.02  -0.22
  28   1     0.02  -0.00   0.01    -0.03  -0.03   0.06    -0.11   0.11  -0.11
                      4                      5                      6
                        a                      a                      a 
 Frequencies --    94.9205               140.8196               180.7864
 Red. masses --    14.3804                 8.7758                 9.3318
 Frc consts  --     0.0000                 0.0000                 0.0000
 IR Inten    --     7.3292                 4.0203                16.8559
 Raman Activ --     0.0000                 0.0000                 0.0000
 Depolar     --     0.0000                 0.0000                 0.0000
 Atom AN      X      Y      Z        X      Y      Z        X      Y      Z
   1   7     0.07   0.03  -0.30     0.22   0.21   0.02    -0.50  -0.22   0.16
   2   6     0.03   0.07   0.07     0.10   0.12  -0.29     0.09  -0.13  -0.34
   3   6    -0.08   0.33   0.30    -0.05  -0.18  -0.09    -0.04   0.10  -0.08
   4   6    -0.04   0.16   0.20     0.05  -0.12   0.18     0.05   0.12   0.10
   5   6    -0.09   0.06   0.13     0.09   0.00   0.30     0.01   0.05   0.11
   6   6    -0.12  -0.11  -0.07    -0.04  -0.02   0.06    -0.03  -0.08  -0.05
   7   6     0.05  -0.08  -0.22    -0.13   0.10  -0.31     0.12  -0.08  -0.10
   8   6     0.09   0.02  -0.10    -0.27  -0.06  -0.13     0.13   0.03   0.12
   9   6     0.12   0.17   0.09    -0.03  -0.13   0.20     0.12   0.08   0.17
  10  17    -0.03  -0.44  -0.04     0.00   0.02   0.07     0.08   0.10  -0.05
  11   1     0.05  -0.01  -0.16     0.08   0.09  -0.03    -0.17  -0.11   0.11
  12   1     0.08  -0.01  -0.04     0.09   0.10   0.07    -0.23   0.05   0.03
  13   1    -0.06   0.02  -0.09     0.02  -0.01   0.05    -0.10  -0.11   0.07
  14   1     0.06  -0.04   0.06     0.08   0.11  -0.12     0.15   0.09  -0.15
  15   1    -0.01   0.05   0.02    -0.01   0.00  -0.17     0.05  -0.19  -0.21
  16   1    -0.02   0.11   0.19    -0.04  -0.07  -0.09     0.01   0.04   0.02
  17   1    -0.06   0.19   0.04    -0.04  -0.11  -0.01    -0.08   0.05  -0.04
  18   1    -0.03   0.03   0.06     0.06  -0.03   0.04     0.04   0.06   0.03
  19   1    -0.07   0.01   0.07     0.05  -0.02   0.15    -0.02   0.01   0.06
  20   1     0.01   0.04   0.03     0.05   0.07   0.08     0.02   0.04   0.03
  21   1    -0.07  -0.06  -0.01    -0.04  -0.08   0.02    -0.05  -0.03  -0.01
  22   1    -0.04  -0.05  -0.04     0.02   0.04   0.03    -0.01  -0.04  -0.04
  23   1     0.01  -0.06  -0.10    -0.08   0.02  -0.18     0.02  -0.04  -0.08
  24   1     0.06  -0.01  -0.07     0.04   0.10  -0.11     0.09  -0.02  -0.04
  25   1    -0.01  -0.01  -0.02    -0.15  -0.06  -0.03     0.00   0.04   0.04
  26   1     0.07   0.01  -0.05    -0.08  -0.00  -0.08     0.07   0.00   0.05
  27   1     0.04   0.06   0.05    -0.03  -0.05   0.14     0.03   0.02   0.05
  28   1     0.08   0.06   0.02     0.07  -0.04   0.05     0.04   0.02   0.05
                      7                      8                      9
                        a                      a                      a 
 Frequencies --   251.1875               254.6720               278.2098
 Red. masses --     8.0130                 6.2055                 8.2528
 Frc consts  --     0.0000                 0.0000                 0.0000
 IR Inten    --    13.6492                 1.3066                 5.0643
 Raman Activ --     0.0000                 0.0000                 0.0000
 Depolar     --     0.0000                 0.0000                 0.0000
 Atom AN      X      Y      Z        X      Y      Z        X      Y      Z
   1   7     0.37  -0.08   0.22    -0.02   0.03  -0.13     0.19  -0.16   0.11
   2   6     0.21  -0.14  -0.15    -0.18   0.02   0.14    -0.14  -0.21   0.04
   3   6     0.03  -0.07   0.08     0.02  -0.15  -0.17     0.01  -0.17  -0.24
   4   6    -0.09   0.06   0.03     0.04  -0.04  -0.03    -0.15   0.31  -0.10
   5   6    -0.12   0.09   0.06     0.08   0.17   0.32    -0.27   0.16  -0.04
   6   6    -0.25  -0.03  -0.20    -0.09  -0.04  -0.14     0.00  -0.11   0.23
   7   6    -0.08  -0.15   0.11     0.15  -0.06  -0.18     0.09  -0.02  -0.13
   8   6     0.06   0.06   0.08     0.13   0.10   0.26     0.09   0.02  -0.08
   9   6    -0.18   0.16  -0.21    -0.06   0.00  -0.10     0.09   0.22   0.17
  10  17    -0.00   0.06  -0.01    -0.04  -0.04   0.01    -0.01   0.01   0.00
  11   1     0.15   0.04  -0.05    -0.06   0.02   0.09     0.08   0.03  -0.02
  12   1     0.19   0.03   0.19    -0.07  -0.08  -0.17     0.13  -0.07   0.08
  13   1    -0.00  -0.10   0.11     0.13   0.08  -0.08     0.03  -0.06   0.04
  14   1     0.15   0.04  -0.08    -0.17  -0.07   0.07    -0.12  -0.08   0.01
  15   1     0.03  -0.09  -0.15    -0.03   0.09   0.15    -0.03  -0.02   0.07
  16   1     0.05  -0.01   0.05    -0.00  -0.06  -0.15     0.09  -0.05  -0.18
  17   1    -0.04  -0.01   0.01     0.05  -0.13  -0.01     0.02  -0.16  -0.02
  18   1    -0.03  -0.03   0.01     0.07  -0.05  -0.02    -0.03   0.16  -0.03
  19   1    -0.06   0.01   0.08     0.04   0.00   0.26    -0.11   0.06  -0.03
  20   1     0.01   0.08   0.01     0.05   0.22   0.09    -0.14   0.02  -0.00
  21   1    -0.16   0.05  -0.05    -0.14  -0.02  -0.03     0.10  -0.11   0.06
  22   1    -0.07  -0.05  -0.16    -0.01  -0.03  -0.13    -0.04  -0.05   0.19
  23   1     0.01  -0.04   0.09    -0.00  -0.02  -0.13     0.01  -0.05  -0.10
  24   1    -0.06  -0.12   0.04     0.15  -0.04  -0.07     0.08   0.06  -0.05
  25   1     0.07   0.07   0.01     0.04   0.18   0.08    -0.02  -0.04  -0.02
  26   1     0.04  -0.00   0.07     0.06  -0.01   0.21     0.07   0.02  -0.07
  27   1    -0.02   0.06  -0.19     0.00   0.01  -0.13     0.05   0.12   0.14
  28   1    -0.17   0.11  -0.05    -0.13   0.02  -0.01     0.10   0.01   0.04
                     10                     11                     12
                        a                      a                      a 
 Frequencies --   311.2932               349.8657               381.6456
 Red. masses --     3.2153                 6.2483                 9.0646
 Frc consts  --     0.0000                 0.0000                 0.0000
 IR Inten    --     0.0804                 2.3826                 2.8545
 Raman Activ --     0.0000                 0.0000                 0.0000
 Depolar     --     0.0000                 0.0000                 0.0000
 Atom AN      X      Y      Z        X      Y      Z        X      Y      Z
   1   7    -0.20  -0.01   0.03     0.14  -0.01   0.07     0.15  -0.04   0.09
   2   6    -0.15   0.03   0.09     0.11  -0.03  -0.03    -0.26  -0.16  -0.14
   3   6    -0.05  -0.01  -0.04    -0.00   0.17   0.11    -0.38  -0.03   0.12
   4   6     0.00  -0.10  -0.09    -0.03  -0.09  -0.18    -0.21  -0.18   0.02
   5   6     0.06   0.03   0.04    -0.11  -0.15  -0.11    -0.01   0.11  -0.02
   6   6     0.06   0.05   0.03     0.08  -0.12   0.23     0.01   0.26  -0.02
   7   6     0.09   0.07  -0.04    -0.01   0.06  -0.28     0.32   0.21   0.03
   8   6     0.04   0.04   0.11    -0.07   0.19   0.26     0.19  -0.08  -0.03
   9   6     0.01  -0.11  -0.07    -0.12  -0.10  -0.13     0.17  -0.19  -0.06
  10  17     0.10  -0.00  -0.06    -0.02   0.01   0.01    -0.02   0.02   0.01
  11   1     0.15  -0.03  -0.47     0.01   0.02   0.08     0.02   0.12   0.10
  12   1     0.25   0.12   0.41     0.00  -0.01  -0.02     0.05  -0.06  -0.01
  13   1    -0.53  -0.10   0.06     0.10  -0.01   0.02     0.16  -0.04   0.04
  14   1    -0.07  -0.00   0.03     0.08   0.01  -0.01    -0.03  -0.02  -0.05
  15   1    -0.03   0.02   0.05     0.02  -0.03  -0.05    -0.11  -0.04  -0.10
  16   1    -0.03  -0.01  -0.01    -0.01   0.07   0.18    -0.10   0.01   0.16
  17   1     0.02   0.01  -0.01    -0.01   0.18  -0.02    -0.17   0.11  -0.02
  18   1     0.01  -0.05  -0.03    -0.03  -0.05  -0.05    -0.09  -0.08   0.01
  19   1     0.05  -0.01   0.05    -0.02  -0.03  -0.09     0.08   0.02   0.01
  20   1     0.00   0.05   0.01    -0.10  -0.10  -0.02    -0.00   0.06  -0.01
  21   1     0.01   0.00   0.01     0.16  -0.16   0.06    -0.04   0.13  -0.01
  22   1     0.02   0.02   0.01     0.02   0.02   0.23    -0.02   0.02  -0.06
  23   1     0.00   0.02  -0.05    -0.08  -0.02  -0.24     0.07   0.05  -0.04
  24   1     0.07   0.03  -0.02     0.16   0.10  -0.12     0.13   0.08  -0.00
  25   1     0.02   0.07   0.03    -0.03   0.27   0.08     0.08  -0.06  -0.01
  26   1    -0.01  -0.00   0.09     0.00  -0.00   0.27    -0.03  -0.01  -0.03
  27   1     0.00  -0.02  -0.01    -0.03  -0.04  -0.08     0.07   0.00   0.02
  28   1    -0.02  -0.05  -0.01    -0.11  -0.06  -0.03     0.08  -0.08  -0.02
                     13                     14                     15
                        a                      a                      a 
 Frequencies --   423.0619               445.5365               492.1649
 Red. masses --     8.3707                 7.5880                 8.4224
 Frc consts  --     0.0000                 0.0000                 0.0000
 IR Inten    --     1.2826                 4.0826                 5.1768
 Raman Activ --     0.0000                 0.0000                 0.0000
 Depolar     --     0.0000                 0.0000                 0.0000
 Atom AN      X      Y      Z        X      Y      Z        X      Y      Z
   1   7     0.05  -0.07   0.07    -0.08   0.04  -0.07    -0.09   0.06  -0.09
   2   6    -0.01  -0.07   0.01     0.00   0.05   0.01     0.36   0.17   0.10
   3   6     0.09   0.16  -0.18    -0.05  -0.29   0.11     0.21  -0.14   0.17
   4   6     0.14  -0.08  -0.23     0.02  -0.07   0.33    -0.21  -0.04  -0.21
   5   6    -0.11  -0.19   0.20    -0.07  -0.32  -0.01    -0.28   0.20  -0.03
   6   6    -0.36   0.04   0.08    -0.18   0.09   0.13    -0.21   0.12   0.11
   7   6    -0.20   0.05   0.08     0.07   0.14  -0.06     0.17   0.07   0.04
   8   6     0.03   0.29  -0.12     0.18   0.28  -0.09     0.05  -0.16   0.03
   9   6     0.34  -0.14  -0.05     0.13   0.16  -0.14     0.02  -0.21  -0.04
  10  17    -0.01   0.01   0.01     0.01  -0.01  -0.01     0.01  -0.01  -0.00
  11   1     0.01   0.01   0.03    -0.02  -0.03  -0.03    -0.04  -0.14  -0.01
  12   1     0.02  -0.03   0.02    -0.03   0.02  -0.02    -0.11   0.07  -0.07
  13   1     0.03  -0.02   0.02    -0.05   0.03  -0.03    -0.08   0.07  -0.06
  14   1    -0.06  -0.04   0.01     0.04   0.03  -0.01     0.21   0.09   0.02
  15   1     0.03  -0.01   0.07    -0.02   0.01  -0.05     0.08  -0.01  -0.07
  16   1     0.03   0.06   0.04    -0.02  -0.11  -0.16     0.04  -0.06  -0.07
  17   1     0.05   0.13  -0.08    -0.02  -0.25   0.10     0.14  -0.12   0.09
  18   1     0.09  -0.03  -0.07    -0.01  -0.04   0.09    -0.12  -0.03  -0.05
  19   1     0.01  -0.07   0.09    -0.04  -0.03  -0.23    -0.02   0.03   0.05
  20   1    -0.07  -0.01   0.06    -0.00  -0.32  -0.01    -0.15   0.12   0.00
  21   1    -0.20   0.04   0.03    -0.09   0.05   0.04    -0.08   0.07   0.03
  22   1    -0.06   0.03  -0.09    -0.03   0.03  -0.02    -0.10  -0.04  -0.00
  23   1     0.02  -0.06   0.08     0.03  -0.05  -0.07     0.01  -0.02  -0.08
  24   1    -0.13   0.01   0.04     0.06   0.09  -0.03     0.13   0.07  -0.01
  25   1     0.02   0.14  -0.03     0.07   0.13  -0.03     0.03  -0.09   0.00
  26   1    -0.01   0.06   0.04     0.04   0.06   0.03    -0.05  -0.03  -0.02
  27   1     0.05  -0.05   0.20     0.03   0.00  -0.14     0.03  -0.00   0.08
  28   1     0.26  -0.16  -0.03    -0.01   0.16  -0.04     0.06  -0.15  -0.02
                     16                     17                     18
                        a                      a                      a 
 Frequencies --   553.2077               804.3070               814.0600
 Red. masses --     5.6731                 5.1376                 6.2528
 Frc consts  --     0.0000                 0.0000                 0.0000
 IR Inten    --     0.2816                 8.6605                 0.9635
 Raman Activ --     0.0000                 0.0000                 0.0000
 Depolar     --     0.0000                 0.0000                 0.0000
 Atom AN      X      Y      Z        X      Y      Z        X      Y      Z
   1   7    -0.05   0.04  -0.04    -0.02  -0.02   0.02    -0.03   0.08  -0.02
   2   6    -0.00   0.02   0.00    -0.12  -0.01   0.11    -0.04  -0.03   0.04
   3   6    -0.12  -0.21   0.22    -0.06   0.06   0.08    -0.01  -0.19   0.08
   4   6    -0.16  -0.06   0.02    -0.06   0.12  -0.19     0.02  -0.15  -0.25
   5   6     0.03   0.19  -0.07     0.18  -0.11   0.12     0.01  -0.28  -0.11
   6   6     0.20  -0.13  -0.11     0.23  -0.13   0.08    -0.03  -0.12  -0.07
   7   6    -0.18  -0.10  -0.03     0.08  -0.07   0.10    -0.00   0.09   0.11
   8   6     0.05   0.27  -0.11    -0.11   0.04  -0.05     0.06   0.31   0.10
   9   6     0.16  -0.02  -0.08    -0.24   0.18  -0.11     0.01   0.24   0.18
  10  17     0.00  -0.00  -0.00    -0.00  -0.00   0.00    -0.00  -0.00   0.00
  11   1    -0.02  -0.01  -0.00     0.02   0.06  -0.04    -0.00   0.01  -0.02
  12   1    -0.03   0.01  -0.03     0.08  -0.18  -0.04     0.00  -0.02  -0.02
  13   1    -0.01   0.03  -0.02     0.03   0.12  -0.07    -0.01   0.05  -0.02
  14   1     0.10   0.05  -0.01     0.20   0.13  -0.02     0.06   0.05  -0.01
  15   1    -0.05  -0.02  -0.11    -0.07  -0.15  -0.19    -0.06  -0.04  -0.09
  16   1    -0.04  -0.07  -0.02     0.01   0.00  -0.10    -0.04  -0.04   0.15
  17   1    -0.03  -0.13   0.09     0.07  -0.08   0.07     0.04   0.07  -0.02
  18   1    -0.12  -0.05   0.02     0.01  -0.06  -0.05    -0.04   0.04  -0.06
  19   1     0.02   0.01   0.15     0.01  -0.00  -0.06     0.06  -0.17   0.28
  20   1     0.04   0.21  -0.02    -0.02  -0.12   0.04    -0.01   0.25  -0.02
  21   1     0.22  -0.15  -0.04    -0.20   0.14   0.04     0.08  -0.02  -0.03
  22   1     0.04   0.01   0.17     0.11  -0.08  -0.30     0.01   0.02   0.03
  23   1     0.06   0.01   0.21    -0.05  -0.01  -0.09    -0.03  -0.04  -0.08
  24   1    -0.25  -0.13   0.05     0.13   0.08  -0.00     0.14   0.03  -0.00
  25   1     0.03   0.28  -0.03     0.05   0.06  -0.03    -0.02  -0.28   0.02
  26   1     0.06   0.02   0.17     0.02  -0.01   0.03     0.02   0.19  -0.33
  27   1     0.02   0.01   0.17    -0.09   0.11   0.31    -0.01   0.03  -0.05
  28   1     0.21  -0.08  -0.04     0.19  -0.15  -0.06    -0.12   0.06   0.06
                     19                     20                     21
                        a                      a                      a 
 Frequencies --   825.9760               864.8875               878.7059
 Red. masses --     4.3844                 5.8722                 6.9920
 Frc consts  --     0.0000                 0.0000                 0.0000
 IR Inten    --    28.2188                 4.6295                 5.4726
 Raman Activ --     0.0000                 0.0000                 0.0000
 Depolar     --     0.0000                 0.0000                 0.0000
 Atom AN      X      Y      Z        X      Y      Z        X      Y      Z
   1   7    -0.02  -0.12   0.05    -0.10   0.25   0.04     0.06  -0.07   0.09
   2   6    -0.16   0.03   0.16    -0.10  -0.17   0.07     0.09   0.08   0.07
   3   6    -0.06   0.28  -0.00     0.14  -0.34  -0.01    -0.05   0.03  -0.14
   4   6     0.09   0.06  -0.00     0.11  -0.02  -0.09    -0.10  -0.05  -0.00
   5   6    -0.03  -0.03  -0.01     0.05   0.21   0.03    -0.18  -0.10   0.16
   6   6    -0.09   0.08  -0.05    -0.10   0.13   0.11     0.13  -0.13  -0.11
   7   6    -0.11   0.06  -0.06    -0.07  -0.12  -0.13     0.42   0.22  -0.15
   8   6     0.02  -0.10   0.08     0.07  -0.10  -0.04    -0.04   0.17  -0.10
   9   6     0.22  -0.17   0.02     0.01   0.05   0.10    -0.18  -0.08   0.16
  10  17    -0.00  -0.01   0.00     0.00  -0.01   0.00     0.00  -0.00   0.00
  11   1     0.05   0.11  -0.08     0.02   0.04  -0.10     0.03  -0.16  -0.04
  12   1     0.17  -0.32  -0.03     0.05  -0.16  -0.07    -0.00  -0.09  -0.05
  13   1     0.07   0.15  -0.09    -0.06   0.30  -0.12    -0.05   0.14  -0.07
  14   1     0.26   0.19  -0.02     0.01   0.16  -0.08     0.01   0.08  -0.02
  15   1    -0.05  -0.24  -0.22    -0.05  -0.15  -0.12     0.05  -0.03   0.01
  16   1     0.00   0.04  -0.29     0.05  -0.04   0.36    -0.06   0.01   0.02
  17   1     0.10  -0.17   0.11     0.01   0.23  -0.13    -0.01   0.06  -0.06
  18   1     0.04   0.05  -0.01     0.10   0.05  -0.03     0.04   0.02  -0.01
  19   1     0.01  -0.02   0.05     0.05   0.10  -0.18    -0.08  -0.01  -0.02
  20   1     0.01   0.05  -0.01    -0.06  -0.11   0.02    -0.09  -0.10   0.05
  21   1     0.09  -0.07  -0.02    -0.08  -0.02   0.04    -0.04  -0.11  -0.02
  22   1    -0.02   0.08   0.12    -0.02   0.04   0.02     0.00  -0.10  -0.05
  23   1    -0.01   0.03   0.03     0.03  -0.05   0.05     0.29   0.13   0.31
  24   1    -0.07  -0.03  -0.01    -0.12  -0.05  -0.01    -0.23  -0.11   0.05
  25   1    -0.05  -0.07   0.03    -0.05   0.05   0.00    -0.12   0.04  -0.01
  26   1    -0.04  -0.01  -0.01     0.11  -0.06   0.05    -0.08   0.06  -0.03
  27   1     0.09  -0.07  -0.23     0.03   0.03  -0.05    -0.05  -0.04  -0.02
  28   1    -0.14   0.05   0.03    -0.05   0.04   0.03    -0.13  -0.01   0.05
                     22                     23                     24
                        a                      a                      a 
 Frequencies --   908.8669               915.6378               923.3637
 Red. masses --     4.8144                 7.4205                 4.3752
 Frc consts  --     0.0000                 0.0000                 0.0000
 IR Inten    --    12.3804                11.6297                 5.5294
 Raman Activ --     0.0000                 0.0000                 0.0000
 Depolar     --     0.0000                 0.0000                 0.0000
 Atom AN      X      Y      Z        X      Y      Z        X      Y      Z
   1   7    -0.13   0.15  -0.20    -0.15   0.19  -0.05     0.01   0.07   0.05
   2   6    -0.12  -0.18  -0.04    -0.10  -0.20  -0.05     0.02  -0.06  -0.01
   3   6     0.14  -0.02   0.25     0.24  -0.01   0.04     0.01  -0.06  -0.04
   4   6     0.02   0.09  -0.20     0.19   0.05   0.23    -0.01   0.12   0.10
   5   6    -0.02  -0.04   0.08    -0.15   0.13  -0.06    -0.12  -0.11  -0.15
   6   6     0.11  -0.04   0.06    -0.09  -0.20  -0.13     0.21  -0.16   0.09
   7   6     0.05   0.07  -0.14     0.21   0.08   0.17    -0.03   0.09   0.12
   8   6    -0.02  -0.02   0.00    -0.15   0.18  -0.02    -0.15  -0.11  -0.15
   9   6     0.07  -0.05   0.11    -0.09  -0.18  -0.14     0.21  -0.09   0.04
  10  17    -0.00   0.01  -0.01    -0.00  -0.00   0.00     0.00  -0.00   0.00
  11   1    -0.06   0.34   0.08    -0.01   0.28  -0.03     0.02  -0.07  -0.04
  12   1     0.00   0.21   0.11     0.10  -0.09   0.02    -0.01  -0.03  -0.04
  13   1     0.13  -0.32   0.15     0.06   0.02   0.00    -0.05   0.13  -0.05
  14   1     0.10  -0.17   0.07    -0.03  -0.01  -0.04    -0.06   0.04  -0.03
  15   1    -0.11   0.03  -0.06     0.01  -0.10  -0.01     0.02  -0.02   0.02
  16   1     0.10  -0.01  -0.03     0.13   0.02   0.05     0.05   0.00   0.07
  17   1     0.14  -0.08   0.11     0.02   0.00   0.00    -0.08   0.03  -0.04
  18   1    -0.04   0.06  -0.04     0.07  -0.05   0.06    -0.09   0.23   0.03
  19   1     0.02  -0.00  -0.03    -0.19   0.05  -0.00    -0.08  -0.10   0.22
  20   1    -0.16  -0.05   0.04     0.11   0.02  -0.04    -0.08   0.23  -0.03
  21   1    -0.17  -0.01   0.04     0.12  -0.05  -0.05    -0.08   0.26   0.02
  22   1     0.07  -0.01  -0.15    -0.13  -0.17   0.10     0.06  -0.15  -0.24
  23   1     0.10   0.06   0.14     0.02   0.00  -0.03    -0.06   0.01  -0.07
  24   1    -0.19  -0.01   0.01     0.16  -0.01   0.02    -0.01   0.27   0.02
  25   1    -0.16   0.02   0.03     0.10  -0.03  -0.03    -0.06   0.23  -0.03
  26   1     0.02  -0.01   0.01    -0.22   0.08  -0.04    -0.07  -0.10   0.22
  27   1     0.06  -0.00  -0.13    -0.11  -0.15   0.09     0.05  -0.09  -0.20
  28   1    -0.15   0.00   0.05     0.10  -0.03  -0.05    -0.02   0.21   0.01
                     25                     26                     27
                        a                      a                      a 
 Frequencies --   956.4086               963.3018              1009.4038
 Red. masses --     7.5857                 7.0079                 5.8370
 Frc consts  --     0.0000                 0.0000                 0.0000
 IR Inten    --     0.1939                17.0557                 6.0753
 Raman Activ --     0.0000                 0.0000                 0.0000
 Depolar     --     0.0000                 0.0000                 0.0000
 Atom AN      X      Y      Z        X      Y      Z        X      Y      Z
   1   7    -0.02   0.17   0.01    -0.12   0.08  -0.04     0.10  -0.21  -0.07
   2   6     0.05  -0.17  -0.01     0.04  -0.07  -0.00    -0.21   0.25   0.11
   3   6     0.05  -0.08  -0.01     0.17   0.08  -0.07    -0.05  -0.20   0.01
   4   6    -0.15   0.17  -0.01    -0.12  -0.09   0.07     0.28   0.03  -0.07
   5   6    -0.13  -0.22   0.24    -0.01  -0.35  -0.05    -0.13  -0.00   0.03
   6   6     0.14  -0.01  -0.23    -0.16   0.24  -0.02    -0.07  -0.02  -0.11
   7   6    -0.14   0.26  -0.02     0.15   0.06  -0.06     0.07   0.13   0.07
   8   6     0.02  -0.21   0.23     0.09  -0.27  -0.13    -0.08  -0.19  -0.03
   9   6     0.18   0.08  -0.22    -0.27   0.19   0.08     0.01   0.13  -0.02
  10  17     0.00  -0.00   0.00    -0.00  -0.00  -0.00    -0.00   0.00  -0.00
  11   1    -0.00  -0.05  -0.02    -0.01   0.21  -0.02    -0.02  -0.10   0.08
  12   1    -0.04   0.04  -0.03     0.08  -0.08   0.03    -0.07   0.12   0.02
  13   1    -0.05   0.11  -0.04     0.07  -0.03   0.01     0.02  -0.21   0.07
  14   1    -0.06  -0.01  -0.03     0.01  -0.02  -0.00     0.19   0.05   0.06
  15   1     0.01  -0.02   0.03     0.08  -0.07   0.04    -0.22   0.09  -0.20
  16   1     0.13   0.01   0.06     0.04   0.02  -0.01    -0.19  -0.06   0.15
  17   1    -0.07   0.02  -0.03     0.07   0.02  -0.01     0.22   0.12  -0.04
  18   1    -0.02  -0.04  -0.00    -0.03   0.02   0.02     0.24   0.11  -0.04
  19   1    -0.15  -0.04   0.03     0.11  -0.17   0.22    -0.15   0.01   0.01
  20   1    -0.03  -0.11   0.06     0.09   0.15  -0.02     0.03  -0.02  -0.00
  21   1     0.04  -0.17  -0.05     0.16   0.04  -0.03     0.09  -0.03  -0.04
  22   1     0.12   0.16   0.01    -0.05   0.11   0.16    -0.07  -0.04   0.08
  23   1    -0.15   0.31   0.03     0.10  -0.00   0.06    -0.04   0.13   0.01
  24   1     0.03  -0.11  -0.01    -0.07   0.03   0.01     0.04   0.01   0.01
  25   1     0.11  -0.13   0.04     0.06   0.19  -0.03     0.09   0.10  -0.02
  26   1    -0.11  -0.03   0.02     0.11  -0.14   0.19    -0.07  -0.09   0.14
  27   1     0.13   0.16   0.01    -0.06   0.12   0.16    -0.02   0.01   0.04
  28   1     0.11  -0.06  -0.06     0.09   0.06   0.00     0.13   0.13  -0.03
                     28                     29                     30
                        a                      a                      a 
 Frequencies --  1021.7631              1065.4745              1070.6541
 Red. masses --     6.1991                 6.9393                 3.2063
 Frc consts  --     0.0000                 0.0000                 0.0000
 IR Inten    --    17.1210                 2.3092                 0.7515
 Raman Activ --     0.0000                 0.0000                 0.0000
 Depolar     --     0.0000                 0.0000                 0.0000
 Atom AN      X      Y      Z        X      Y      Z        X      Y      Z
   1   7     0.20   0.24   0.01     0.01   0.17  -0.07    -0.01  -0.02  -0.02
   2   6    -0.10  -0.35   0.10     0.12  -0.23   0.22     0.02   0.04   0.04
   3   6    -0.14   0.10   0.03    -0.12   0.07  -0.21     0.01  -0.02  -0.05
   4   6     0.09   0.23  -0.07    -0.03  -0.15   0.07    -0.05   0.03   0.07
   5   6     0.15  -0.11  -0.01    -0.26   0.06   0.12    -0.10  -0.04   0.06
   6   6    -0.16   0.07   0.02     0.22   0.08  -0.13     0.15   0.20  -0.04
   7   6     0.12  -0.05   0.00    -0.18  -0.03   0.05    -0.02  -0.19   0.01
   8   6    -0.03   0.00  -0.06     0.23   0.08  -0.10     0.04   0.12  -0.09
   9   6    -0.10  -0.11  -0.01    -0.10  -0.10   0.12    -0.10  -0.17   0.05
  10  17     0.01  -0.00  -0.00    -0.00   0.00  -0.00    -0.00   0.00   0.00
  11   1     0.00  -0.33   0.04    -0.02   0.04   0.03    -0.00   0.07   0.00
  12   1    -0.22   0.31  -0.08    -0.04   0.13   0.01     0.03  -0.02   0.01
  13   1    -0.18   0.10  -0.02    -0.01  -0.04   0.03     0.02  -0.05   0.02
  14   1     0.09  -0.05   0.02     0.20  -0.06   0.08     0.04   0.01   0.02
  15   1    -0.20   0.01  -0.14     0.01  -0.09  -0.02     0.02  -0.01   0.00
  16   1     0.19   0.06  -0.10    -0.12  -0.00  -0.04    -0.04  -0.01   0.03
  17   1    -0.06  -0.08   0.05     0.10   0.04  -0.05     0.05   0.05  -0.03
  18   1     0.05   0.13  -0.02     0.18  -0.10  -0.01    -0.09   0.33   0.02
  19   1     0.08  -0.05   0.04    -0.28   0.05  -0.00     0.11  -0.02   0.00
  20   1     0.10   0.04  -0.01     0.09  -0.07   0.01    -0.32   0.02   0.06
  21   1     0.06  -0.03  -0.00     0.15   0.20  -0.06    -0.08  -0.13   0.02
  22   1    -0.04   0.06   0.10     0.06   0.02  -0.05     0.19   0.27  -0.05
  23   1     0.10  -0.11   0.02    -0.09  -0.03  -0.09    -0.06   0.00  -0.05
  24   1     0.01  -0.04   0.01     0.01   0.17  -0.01     0.19  -0.30  -0.03
  25   1     0.02   0.03  -0.02     0.01   0.02  -0.02     0.31  -0.01  -0.08
  26   1    -0.07  -0.01   0.03     0.28   0.01  -0.06    -0.09   0.04  -0.01
  27   1    -0.08  -0.11   0.02    -0.04  -0.06  -0.00    -0.17  -0.27   0.01
  28   1    -0.02  -0.03  -0.01    -0.09  -0.06   0.04     0.10   0.23  -0.01
                     31                     32                     33
                        a                      a                      a 
 Frequencies --  1077.1718              1096.9738              1112.9229
 Red. masses --     7.4185                 7.1228                 7.9524
 Frc consts  --     0.0000                 0.0000                 0.0000
 IR Inten    --     6.5137                 2.0016                 0.6422
 Raman Activ --     0.0000                 0.0000                 0.0000
 Depolar     --     0.0000                 0.0000                 0.0000
 Atom AN      X      Y      Z        X      Y      Z        X      Y      Z
   1   7     0.05  -0.17   0.07     0.02   0.09   0.08    -0.04   0.02   0.00
   2   6    -0.23   0.22  -0.23     0.03  -0.16  -0.11     0.13  -0.03   0.03
   3   6     0.20  -0.06   0.24    -0.12   0.11   0.17    -0.16  -0.02   0.02
   4   6     0.17   0.22   0.01     0.46  -0.22  -0.05     0.10   0.10  -0.05
   5   6    -0.14  -0.11   0.02    -0.26   0.06  -0.10     0.22   0.07  -0.12
   6   6     0.08   0.11  -0.02     0.07   0.09   0.03    -0.17  -0.31   0.05
   7   6    -0.08   0.01  -0.07     0.04  -0.01  -0.08    -0.17   0.37   0.01
   8   6     0.24   0.01  -0.03    -0.07  -0.10   0.08     0.35  -0.08  -0.06
   9   6    -0.20  -0.20  -0.01    -0.01   0.23  -0.03    -0.21  -0.14   0.08
  10  17     0.00   0.00   0.00     0.00  -0.00   0.00    -0.00   0.00   0.00
  11   1     0.02  -0.10  -0.01     0.02  -0.06  -0.03    -0.00   0.07  -0.01
  12   1    -0.00  -0.08  -0.03    -0.02  -0.02  -0.03     0.03  -0.04   0.01
  13   1    -0.02   0.03  -0.02    -0.05   0.12  -0.03     0.02   0.01   0.00
  14   1    -0.19   0.08  -0.08    -0.09  -0.08  -0.02     0.02  -0.04   0.03
  15   1    -0.09   0.11  -0.04     0.03   0.01   0.06     0.06  -0.01   0.06
  16   1     0.18   0.01   0.06    -0.09  -0.01  -0.14    -0.11  -0.02  -0.01
  17   1    -0.07  -0.04   0.06    -0.13  -0.15   0.10    -0.09  -0.03   0.01
  18   1    -0.01  -0.04   0.01     0.04  -0.14  -0.00    -0.01   0.19  -0.01
  19   1    -0.25  -0.03   0.11     0.05  -0.01   0.02     0.04   0.02  -0.03
  20   1     0.00   0.05   0.00    -0.30   0.09   0.01     0.02   0.03  -0.03
  21   1     0.05   0.11  -0.01    -0.05   0.02   0.01    -0.18  -0.23   0.04
  22   1     0.11   0.16  -0.04    -0.05  -0.09  -0.02    -0.05  -0.09  -0.01
  23   1     0.03  -0.08  -0.01    -0.08   0.24   0.05    -0.09   0.20   0.02
  24   1    -0.07   0.09  -0.01    -0.01  -0.11  -0.01    -0.08   0.13   0.01
  25   1     0.01  -0.03   0.00    -0.03  -0.01   0.02     0.29   0.00  -0.05
  26   1     0.21   0.00  -0.06     0.21  -0.04  -0.02     0.12  -0.03   0.01
  27   1    -0.08  -0.08   0.06    -0.13  -0.12   0.10    -0.08  -0.07   0.05
  28   1    -0.11  -0.23   0.01     0.10   0.08  -0.02    -0.03  -0.05   0.02
                     34                     35                     36
                        a                      a                      a 
 Frequencies --  1115.9709              1156.4000              1184.8753
 Red. masses --     6.9635                 7.9035                 3.5761
 Frc consts  --     0.0000                 0.0000                 0.0000
 IR Inten    --     7.3230                 3.0300                 3.2540
 Raman Activ --     0.0000                 0.0000                 0.0000
 Depolar     --     0.0000                 0.0000                 0.0000
 Atom AN      X      Y      Z        X      Y      Z        X      Y      Z
   1   7     0.14  -0.02  -0.01    -0.03  -0.01   0.10    -0.04  -0.06  -0.09
   2   6    -0.32   0.00  -0.05     0.03  -0.01  -0.22     0.07   0.14   0.18
   3   6     0.36   0.18  -0.10     0.00   0.04   0.24    -0.08  -0.13  -0.08
   4   6    -0.24  -0.30   0.19    -0.10  -0.04  -0.32    -0.06   0.20  -0.00
   5   6    -0.02   0.09  -0.04     0.03   0.02   0.27    -0.00  -0.12   0.12
   6   6     0.04  -0.12   0.01    -0.04  -0.01  -0.27     0.00   0.10  -0.04
   7   6    -0.10   0.10   0.01     0.03  -0.00   0.27     0.04  -0.10   0.01
   8   6     0.11   0.02  -0.00    -0.05   0.00  -0.29    -0.07   0.07   0.01
   9   6    -0.02   0.03   0.08     0.05   0.01   0.28     0.06  -0.09  -0.12
  10  17     0.00  -0.00  -0.00     0.00  -0.00   0.00    -0.00   0.00  -0.00
  11   1     0.00  -0.17   0.03     0.02  -0.02  -0.05    -0.02   0.10   0.02
  12   1    -0.09   0.11  -0.04     0.02  -0.09  -0.01     0.03   0.01   0.04
  13   1    -0.07  -0.01   0.00    -0.01   0.11  -0.04     0.06  -0.12   0.03
  14   1    -0.01   0.08  -0.05    -0.13  -0.09  -0.03     0.04   0.12   0.01
  15   1    -0.15  -0.02  -0.14     0.01   0.10   0.06     0.01  -0.01  -0.02
  16   1     0.24   0.07  -0.03     0.05   0.00  -0.06     0.26   0.04   0.09
  17   1     0.23   0.06  -0.01     0.04  -0.08   0.10    -0.27   0.01  -0.06
  18   1    -0.15  -0.11   0.06     0.04  -0.01  -0.08     0.01   0.12  -0.01
  19   1     0.20   0.01  -0.06     0.07   0.05  -0.13     0.27  -0.05  -0.02
  20   1    -0.05  -0.01  -0.00     0.01  -0.18   0.06     0.02  -0.03   0.03
  21   1    -0.08  -0.06   0.01     0.16  -0.08  -0.08     0.12   0.12  -0.03
  22   1    -0.07  -0.16  -0.03    -0.08  -0.04   0.12    -0.22  -0.29   0.08
  23   1    -0.12   0.21   0.00    -0.11   0.03  -0.10    -0.15   0.29   0.01
  24   1    -0.00   0.01  -0.00     0.18   0.07   0.02     0.03  -0.05  -0.00
  25   1     0.09  -0.00  -0.01     0.03   0.18  -0.07    -0.15  -0.00   0.02
  26   1     0.15   0.00  -0.03     0.04  -0.05   0.10     0.34   0.00  -0.09
  27   1    -0.04  -0.05   0.01     0.02  -0.03  -0.11    -0.09  -0.18  -0.00
  28   1     0.03   0.11   0.01    -0.11   0.11   0.08    -0.02  -0.08  -0.03
                     37                     38                     39
                        a                      a                      a 
 Frequencies --  1209.8948              1236.3460              1241.1154
 Red. masses --     4.0337                 3.0226                 3.6093
 Frc consts  --     0.0000                 0.0000                 0.0000
 IR Inten    --     2.9020                 0.3707                 0.5974
 Raman Activ --     0.0000                 0.0000                 0.0000
 Depolar     --     0.0000                 0.0000                 0.0000
 Atom AN      X      Y      Z        X      Y      Z        X      Y      Z
   1   7     0.05  -0.03  -0.17    -0.05  -0.02   0.01     0.00  -0.01  -0.03
   2   6    -0.03   0.06   0.27     0.05   0.05   0.02     0.01   0.00   0.03
   3   6    -0.01   0.01  -0.09    -0.06  -0.00   0.03    -0.01   0.00   0.03
   4   6     0.17  -0.09  -0.01     0.06  -0.08  -0.05    -0.05   0.01  -0.11
   5   6    -0.03   0.06  -0.05    -0.13  -0.01   0.05     0.01  -0.03  -0.13
   6   6    -0.02  -0.06  -0.12     0.13   0.01   0.00    -0.01   0.07   0.31
   7   6     0.02   0.06   0.17    -0.17  -0.02  -0.21     0.02  -0.08  -0.10
   8   6    -0.01  -0.05  -0.15     0.15   0.01   0.06    -0.05   0.06  -0.19
   9   6    -0.01   0.09   0.14    -0.09   0.02   0.12     0.04  -0.02   0.20
  10  17    -0.00   0.00  -0.00    -0.00  -0.00   0.00    -0.00   0.00  -0.00
  11   1    -0.03   0.01   0.07    -0.00   0.01  -0.01    -0.01  -0.01   0.01
  12   1    -0.01   0.13   0.04     0.03  -0.03   0.02     0.00   0.03   0.02
  13   1     0.04  -0.17   0.04     0.04   0.01  -0.01     0.01  -0.02   0.00
  14   1    -0.06   0.29  -0.07     0.04  -0.04   0.03    -0.05   0.07  -0.03
  15   1     0.06  -0.19  -0.03    -0.08   0.11  -0.03     0.03  -0.04   0.01
  16   1     0.22   0.05   0.02     0.27   0.05  -0.01     0.05   0.01   0.00
  17   1    -0.41  -0.06  -0.04    -0.17  -0.04   0.00    -0.05  -0.03   0.01
  18   1    -0.08  -0.27   0.02     0.23  -0.03  -0.04     0.08  -0.20  -0.03
  19   1    -0.00   0.02  -0.03     0.23  -0.02  -0.04    -0.27  -0.01   0.09
  20   1    -0.22   0.03   0.02    -0.07  -0.01   0.02     0.36   0.05  -0.09
  21   1    -0.07  -0.20  -0.01     0.14   0.27  -0.03    -0.12   0.08   0.09
  22   1     0.11   0.19  -0.00    -0.12  -0.25  -0.03     0.00  -0.02  -0.05
  23   1     0.03  -0.13  -0.05     0.05  -0.11   0.00    -0.15   0.34   0.04
  24   1     0.08   0.07   0.02    -0.14   0.02  -0.04     0.16  -0.44  -0.03
  25   1    -0.01   0.10  -0.03     0.37  -0.07  -0.05     0.19   0.08  -0.08
  26   1    -0.08  -0.04   0.09    -0.43   0.05   0.04    -0.06  -0.00   0.03
  27   1     0.05   0.10  -0.01     0.07   0.15   0.01     0.07   0.06  -0.07
  28   1    -0.10  -0.07   0.05     0.00   0.04   0.03    -0.12  -0.02   0.07
                     40                     41                     42
                        a                      a                      a 
 Frequencies --  1246.8119              1253.4361              1292.0264
 Red. masses --     2.9233                 2.9283                 2.8642
 Frc consts  --     0.0000                 0.0000                 0.0000
 IR Inten    --    12.2954                 2.4158                 1.7323
 Raman Activ --     0.0000                 0.0000                 0.0000
 Depolar     --     0.0000                 0.0000                 0.0000
 Atom AN      X      Y      Z        X      Y      Z        X      Y      Z
   1   7     0.12   0.01  -0.15    -0.06  -0.03   0.03     0.01   0.02  -0.04
   2   6    -0.08  -0.04   0.04     0.10   0.08   0.02    -0.00   0.02  -0.06
   3   6    -0.00   0.03   0.16    -0.10  -0.02  -0.03    -0.17  -0.01   0.15
   4   6    -0.05   0.01  -0.19    -0.14  -0.13  -0.18    -0.11  -0.08   0.09
   5   6     0.04  -0.00   0.13     0.00   0.07  -0.01    -0.19   0.04  -0.14
   6   6     0.00   0.00  -0.00    -0.04  -0.08   0.05     0.04  -0.05   0.03
   7   6    -0.03   0.00  -0.13     0.05   0.08  -0.04     0.02   0.01   0.08
   8   6     0.02  -0.02   0.14    -0.05  -0.08   0.16    -0.02   0.03  -0.01
   9   6     0.01   0.01   0.01     0.07   0.09   0.02    -0.05  -0.06  -0.08
  10  17     0.00   0.00  -0.00     0.00   0.00   0.00    -0.00  -0.00  -0.00
  11   1    -0.02  -0.03   0.06     0.00   0.07  -0.03    -0.01  -0.04   0.01
  12   1    -0.04   0.14  -0.01     0.04  -0.09  -0.00     0.01   0.02   0.01
  13   1    -0.04  -0.14   0.03     0.02   0.00   0.01     0.01  -0.04   0.01
  14   1    -0.32   0.35  -0.20     0.08  -0.07   0.06    -0.13   0.10  -0.07
  15   1     0.28  -0.37   0.12    -0.10   0.16  -0.04     0.15  -0.11   0.10
  16   1    -0.16  -0.04  -0.02     0.38   0.08  -0.00     0.24   0.04  -0.01
  17   1     0.08  -0.04   0.07    -0.15  -0.02  -0.02     0.20  -0.01   0.07
  18   1    -0.06   0.10  -0.04     0.06  -0.13  -0.06     0.62   0.18  -0.06
  19   1    -0.08   0.02  -0.03    -0.19   0.04  -0.01     0.25  -0.03  -0.01
  20   1     0.13  -0.08   0.01     0.25  -0.03  -0.04     0.09   0.07  -0.06
  21   1     0.10   0.16  -0.02    -0.06  -0.05   0.02    -0.12  -0.16   0.03
  22   1    -0.06  -0.10   0.01     0.13   0.19  -0.04     0.12   0.14  -0.07
  23   1     0.06  -0.06   0.02     0.10  -0.11   0.03    -0.00  -0.01  -0.00
  24   1    -0.12   0.08  -0.01    -0.08   0.10   0.01     0.04   0.01   0.01
  25   1     0.12  -0.07   0.01     0.01  -0.05   0.04    -0.13   0.02   0.02
  26   1    -0.05   0.01  -0.01     0.12  -0.02  -0.01     0.09   0.01  -0.04
  27   1    -0.11  -0.17   0.01    -0.22  -0.34   0.02     0.09   0.15   0.00
  28   1     0.12   0.22  -0.02     0.20   0.37  -0.03     0.04  -0.03  -0.03
                     43                     44                     45
                        a                      a                      a 
 Frequencies --  1314.2058              1331.4965              1336.8547
 Red. masses --     3.6769                 3.5103                 4.0516
 Frc consts  --     0.0000                 0.0000                 0.0000
 IR Inten    --     3.3211                12.1745                 1.5675
 Raman Activ --     0.0000                 0.0000                 0.0000
 Depolar     --     0.0000                 0.0000                 0.0000
 Atom AN      X      Y      Z        X      Y      Z        X      Y      Z
   1   7    -0.04  -0.07  -0.02    -0.06  -0.17  -0.04    -0.02   0.00  -0.01
   2   6     0.05  -0.04   0.06     0.28  -0.21   0.15     0.08  -0.04   0.01
   3   6     0.05   0.10   0.03     0.08   0.09   0.00    -0.07  -0.03  -0.00
   4   6     0.06  -0.36  -0.04    -0.03   0.06   0.02    -0.09   0.25   0.04
   5   6     0.15   0.04   0.05    -0.14   0.01  -0.01     0.20  -0.08  -0.09
   6   6    -0.02   0.04   0.01     0.03  -0.02   0.00     0.06   0.08  -0.02
   7   6    -0.01   0.04  -0.00     0.01  -0.01   0.01    -0.13   0.25   0.01
   8   6    -0.08   0.06   0.03    -0.00  -0.01   0.00    -0.09  -0.01   0.02
   9   6    -0.13  -0.13  -0.06     0.03   0.03  -0.01    -0.04  -0.19   0.05
  10  17    -0.00  -0.00  -0.00    -0.00  -0.00  -0.00    -0.00  -0.00  -0.00
  11   1    -0.01   0.03   0.01    -0.02   0.21   0.06    -0.00  -0.00  -0.00
  12   1     0.01   0.07   0.08     0.00   0.09   0.10     0.01  -0.01   0.01
  13   1     0.06   0.06  -0.05     0.01   0.11  -0.10     0.02  -0.01   0.00
  14   1    -0.07   0.09  -0.05    -0.34   0.30  -0.19    -0.09   0.06  -0.04
  15   1    -0.12   0.11  -0.07    -0.36   0.34  -0.23    -0.04   0.05  -0.03
  16   1     0.12   0.03  -0.05    -0.23  -0.03  -0.05    -0.02  -0.01  -0.00
  17   1    -0.18  -0.07   0.02     0.03   0.00   0.01     0.15   0.05  -0.01
  18   1    -0.06   0.48  -0.01     0.04  -0.03   0.00     0.18  -0.39  -0.01
  19   1    -0.35   0.05   0.02     0.19  -0.02  -0.02    -0.09  -0.03   0.06
  20   1    -0.06  -0.04   0.03     0.15   0.00  -0.03    -0.32   0.06   0.04
  21   1     0.03   0.05  -0.00    -0.04  -0.06   0.01    -0.01  -0.04  -0.00
  22   1    -0.06  -0.06   0.03     0.05   0.05  -0.03    -0.14  -0.23   0.01
  23   1     0.02  -0.02   0.01     0.00  -0.01   0.00     0.14  -0.27  -0.01
  24   1     0.05  -0.10  -0.00    -0.01   0.05   0.00     0.12  -0.23  -0.01
  25   1    -0.05  -0.00   0.01     0.02  -0.01  -0.00     0.03  -0.01  -0.00
  26   1     0.18   0.02  -0.07    -0.02  -0.00   0.01     0.24  -0.03  -0.02
  27   1     0.21   0.35  -0.03    -0.05  -0.07   0.01     0.06   0.05  -0.05
  28   1     0.16   0.12  -0.05    -0.04  -0.05   0.01     0.14   0.23  -0.02
                     46                     47                     48
                        a                      a                      a 
 Frequencies --  1341.6471              1352.1834              1355.2868
 Red. masses --     4.0967                 4.4672                 4.5277
 Frc consts  --     0.0000                 0.0000                 0.0000
 IR Inten    --     2.1922                 8.5654                 3.1469
 Raman Activ --     0.0000                 0.0000                 0.0000
 Depolar     --     0.0000                 0.0000                 0.0000
 Atom AN      X      Y      Z        X      Y      Z        X      Y      Z
   1   7    -0.02  -0.01  -0.01    -0.03   0.01  -0.00    -0.04   0.04   0.00
   2   6     0.05  -0.03   0.02     0.10  -0.02   0.01     0.00  -0.02   0.01
   3   6    -0.04   0.00   0.01    -0.18  -0.01  -0.01     0.03  -0.00  -0.00
   4   6    -0.03   0.07   0.02     0.02  -0.04   0.01    -0.03   0.10   0.01
   5   6     0.17   0.04  -0.02     0.11  -0.08  -0.05     0.07  -0.04  -0.05
   6   6    -0.23  -0.24   0.03     0.14   0.33  -0.05    -0.09   0.06  -0.04
   7   6     0.06  -0.10  -0.01    -0.02  -0.21   0.05     0.22  -0.32  -0.05
   8   6     0.29   0.04  -0.04     0.25   0.02  -0.02    -0.27   0.13   0.09
   9   6    -0.12  -0.11   0.01    -0.03   0.06  -0.01    -0.00  -0.16   0.06
  10  17    -0.00  -0.00  -0.00    -0.00  -0.00  -0.00    -0.00  -0.00   0.00
  11   1    -0.00  -0.00  -0.01     0.00  -0.02  -0.03     0.01  -0.09  -0.05
  12   1     0.01   0.01   0.03     0.02  -0.05  -0.01     0.02  -0.00   0.02
  13   1     0.04   0.01  -0.01     0.04  -0.05   0.02     0.10  -0.02   0.01
  14   1    -0.06   0.05  -0.03    -0.10   0.07  -0.05    -0.01   0.00  -0.00
  15   1    -0.04   0.04  -0.02    -0.02   0.05  -0.01    -0.02   0.01  -0.02
  16   1     0.02   0.00  -0.02     0.20   0.05   0.01    -0.06  -0.01  -0.00
  17   1     0.06   0.03  -0.00     0.22   0.03   0.02    -0.01   0.00  -0.00
  18   1     0.09  -0.15  -0.00    -0.05  -0.00   0.01     0.08  -0.16  -0.00
  19   1    -0.02   0.02  -0.03    -0.27  -0.01   0.07    -0.05  -0.00   0.01
  20   1    -0.27   0.02   0.04    -0.05   0.03   0.00    -0.11   0.05   0.01
  21   1     0.22   0.33  -0.05    -0.22  -0.33   0.05    -0.02  -0.10  -0.00
  22   1     0.12   0.23   0.01    -0.19  -0.24   0.07     0.03   0.11   0.03
  23   1    -0.15   0.31   0.02    -0.12   0.09  -0.05    -0.08   0.23   0.03
  24   1     0.01  -0.02  -0.00    -0.08   0.20   0.01    -0.24   0.45   0.02
  25   1    -0.36   0.02   0.06    -0.22  -0.01   0.04     0.39  -0.05  -0.06
  26   1    -0.22   0.04  -0.00    -0.30   0.03   0.04     0.16   0.03  -0.07
  27   1    -0.00   0.03   0.02    -0.07  -0.07   0.05     0.14   0.17  -0.06
  28   1     0.14   0.21  -0.03    -0.01   0.01  -0.00     0.04   0.11   0.01
                     49                     50                     51
                        a                      a                      a 
 Frequencies --  1361.9274              1365.4847              1376.4579
 Red. masses --     4.2943                 4.5461                 2.6693
 Frc consts  --     0.0000                 0.0000                 0.0000
 IR Inten    --     1.2284                18.1965               108.3947
 Raman Activ --     0.0000                 0.0000                 0.0000
 Depolar     --     0.0000                 0.0000                 0.0000
 Atom AN      X      Y      Z        X      Y      Z        X      Y      Z
   1   7     0.00   0.05   0.02     0.07  -0.04  -0.00    -0.14   0.25   0.06
   2   6    -0.09   0.01   0.01    -0.11   0.00  -0.01     0.06  -0.06   0.07
   3   6     0.21   0.01   0.02     0.34   0.06   0.06     0.10   0.06  -0.01
   4   6     0.07   0.13  -0.12    -0.32  -0.05   0.01    -0.08  -0.05   0.01
   5   6    -0.23  -0.04   0.02     0.18  -0.02  -0.08     0.02   0.02  -0.00
   6   6     0.12   0.10  -0.00     0.00   0.08  -0.00    -0.01  -0.03   0.01
   7   6    -0.06  -0.04   0.06     0.00  -0.04   0.01    -0.02   0.05  -0.00
   8   6     0.17   0.05   0.01     0.06  -0.02   0.01     0.00  -0.03  -0.01
   9   6    -0.19  -0.23   0.04     0.10   0.10  -0.04     0.05   0.07  -0.02
  10  17     0.00  -0.00   0.00     0.00  -0.00  -0.00    -0.00   0.01  -0.00
  11   1     0.01  -0.08  -0.04    -0.02   0.10   0.09     0.11  -0.40  -0.37
  12   1    -0.00  -0.02  -0.02    -0.04   0.04  -0.02     0.03  -0.24  -0.15
  13   1     0.03  -0.03   0.03    -0.15   0.05  -0.03     0.38  -0.38   0.25
  14   1     0.09  -0.08   0.05     0.10  -0.04   0.04    -0.12   0.08  -0.05
  15   1    -0.00  -0.04  -0.01    -0.01  -0.01   0.01    -0.12   0.07  -0.11
  16   1    -0.23  -0.06  -0.02    -0.26  -0.06  -0.02    -0.11  -0.01   0.02
  17   1    -0.29  -0.04  -0.02    -0.40  -0.09   0.00    -0.08  -0.07   0.02
  18   1    -0.05  -0.11  -0.02     0.48   0.07  -0.07     0.08   0.09  -0.01
  19   1     0.20  -0.03  -0.02    -0.17  -0.01   0.06    -0.01   0.00   0.00
  20   1     0.30  -0.00  -0.05    -0.19   0.02   0.01    -0.02  -0.02   0.00
  21   1    -0.14  -0.18   0.03    -0.03  -0.08   0.01     0.02   0.05  -0.00
  22   1    -0.02  -0.07  -0.02    -0.06  -0.07   0.01     0.01   0.00  -0.01
  23   1    -0.03  -0.00  -0.01    -0.03   0.02  -0.02     0.02  -0.03  -0.00
  24   1     0.04   0.03   0.00    -0.04   0.04   0.00     0.03  -0.07  -0.00
  25   1    -0.26  -0.01   0.05    -0.04  -0.00   0.01    -0.01   0.02   0.00
  26   1    -0.06   0.03  -0.02    -0.09   0.00   0.01    -0.00  -0.01   0.01
  27   1     0.11   0.17  -0.04    -0.11  -0.17   0.04    -0.05  -0.08   0.01
  28   1     0.27   0.34  -0.05    -0.07  -0.05   0.01    -0.04  -0.09   0.00
                     52                     53                     54
                        a                      a                      a 
 Frequencies --  1405.7147              1446.2342              1481.7235
 Red. masses --     1.6479                 1.9220                 1.8487
 Frc consts  --     0.0000                 0.0000                 0.0000
 IR Inten    --    94.9384                86.7542                 8.9684
 Raman Activ --     0.0000                 0.0000                 0.0000
 Depolar     --     0.0000                 0.0000                 0.0000
 Atom AN      X      Y      Z        X      Y      Z        X      Y      Z
   1   7    -0.13  -0.13  -0.00    -0.06   0.16  -0.19    -0.01   0.02  -0.00
   2   6    -0.10   0.02  -0.03     0.02   0.00  -0.02     0.05   0.07   0.05
   3   6     0.03  -0.01   0.00     0.02   0.02  -0.01     0.02  -0.13   0.21
   4   6    -0.03   0.02   0.00    -0.01  -0.00  -0.00    -0.01  -0.02   0.02
   5   6     0.00  -0.01  -0.01    -0.00   0.00   0.01     0.00   0.02  -0.02
   6   6     0.02   0.01  -0.00     0.00  -0.00   0.00     0.00   0.00  -0.00
   7   6    -0.02   0.02  -0.00    -0.00   0.01   0.00     0.00  -0.00  -0.00
   8   6     0.03  -0.02  -0.00     0.00  -0.01   0.00     0.00  -0.00  -0.00
   9   6     0.03   0.04  -0.02     0.03  -0.01  -0.03    -0.02   0.05   0.03
  10  17    -0.01  -0.00   0.01    -0.00   0.00  -0.00    -0.00   0.00   0.00
  11   1     0.07  -0.15  -0.21    -0.25  -0.40   0.50     0.00  -0.02  -0.01
  12   1     0.02   0.43   0.37     0.51  -0.18   0.35     0.01   0.02   0.02
  13   1     0.59   0.34  -0.19    -0.01   0.02  -0.03     0.04   0.01   0.00
  14   1     0.07  -0.03   0.02    -0.06  -0.08   0.02    -0.18  -0.17   0.07
  15   1     0.08  -0.08   0.06    -0.04  -0.01  -0.08    -0.02  -0.18  -0.20
  16   1    -0.02  -0.00   0.04    -0.03  -0.00   0.02     0.04  -0.08  -0.59
  17   1     0.00  -0.02   0.01     0.00  -0.03   0.01    -0.09   0.57  -0.23
  18   1     0.03  -0.02  -0.00    -0.01   0.02  -0.00     0.01   0.02   0.00
  19   1     0.00  -0.00   0.01     0.00   0.00  -0.01    -0.01  -0.02   0.07
  20   1    -0.00   0.00  -0.00     0.01  -0.00  -0.00    -0.00  -0.07  -0.00
  21   1    -0.02  -0.02   0.00     0.00   0.00  -0.00    -0.02   0.00   0.00
  22   1    -0.01  -0.02   0.00     0.00  -0.00  -0.00    -0.00   0.00   0.01
  23   1     0.01  -0.03  -0.00     0.00  -0.01  -0.01     0.00  -0.00  -0.00
  24   1     0.01  -0.01  -0.00    -0.00  -0.01   0.00    -0.00   0.00   0.00
  25   1    -0.02  -0.02   0.01    -0.01  -0.00   0.00     0.01   0.00  -0.00
  26   1    -0.02  -0.01   0.02     0.00  -0.00   0.00    -0.01   0.00  -0.00
  27   1    -0.08  -0.10   0.05    -0.03  -0.02   0.08    -0.01  -0.04  -0.11
  28   1    -0.04   0.00   0.01    -0.08   0.04   0.01     0.08  -0.10  -0.01
                     55                     56                     57
                        a                      a                      a 
 Frequencies --  1490.1517              1501.6675              1508.3882
 Red. masses --     1.9182                 1.9641                 1.9352
 Frc consts  --     0.0000                 0.0000                 0.0000
 IR Inten    --    11.9940                15.7753                 2.1022
 Raman Activ --     0.0000                 0.0000                 0.0000
 Depolar     --     0.0000                 0.0000                 0.0000
 Atom AN      X      Y      Z        X      Y      Z        X      Y      Z
   1   7    -0.02   0.02  -0.03     0.00   0.00   0.02    -0.00   0.01  -0.01
   2   6    -0.14  -0.20  -0.09    -0.01  -0.01   0.00    -0.00  -0.01  -0.00
   3   6     0.01  -0.06   0.09     0.00  -0.04   0.06     0.01  -0.00   0.01
   4   6     0.01   0.01  -0.00     0.02  -0.02  -0.01    -0.02  -0.02   0.01
   5   6    -0.00   0.02  -0.01    -0.01  -0.08   0.07     0.02  -0.14   0.10
   6   6     0.00   0.00  -0.00    -0.02   0.01   0.03    -0.03   0.01   0.02
   7   6     0.00  -0.00   0.00     0.03   0.03   0.03    -0.17  -0.07  -0.08
   8   6    -0.00  -0.01   0.00    -0.00   0.02  -0.03    -0.00   0.07  -0.06
   9   6    -0.02   0.02   0.02     0.14  -0.13  -0.16    -0.02   0.05   0.03
  10  17    -0.00   0.00  -0.00    -0.00   0.00   0.00     0.00   0.00  -0.00
  11   1    -0.03  -0.08   0.04     0.02   0.02  -0.05    -0.01  -0.01   0.01
  12   1     0.07  -0.05   0.04    -0.05  -0.01  -0.06     0.02  -0.01   0.01
  13   1     0.03  -0.05   0.02     0.00  -0.03   0.02     0.00  -0.00   0.00
  14   1     0.42   0.42  -0.17     0.02   0.03  -0.01     0.01   0.01  -0.00
  15   1     0.04   0.38   0.48     0.00   0.02   0.02     0.00   0.01   0.01
  16   1     0.00  -0.04  -0.23     0.00  -0.02  -0.16    -0.00  -0.01  -0.03
  17   1    -0.03   0.22  -0.09    -0.03   0.15  -0.06    -0.00   0.03  -0.01
  18   1    -0.03  -0.00   0.00    -0.02   0.01  -0.00     0.02   0.01  -0.00
  19   1     0.00  -0.01   0.04    -0.03   0.07  -0.23    -0.07   0.11  -0.38
  20   1     0.01  -0.05  -0.00     0.03   0.24  -0.00     0.01   0.41   0.00
  21   1    -0.01   0.01   0.00     0.08  -0.05  -0.01     0.07  -0.05  -0.01
  22   1    -0.00   0.00   0.01     0.01  -0.02  -0.10     0.00  -0.03  -0.08
  23   1    -0.00  -0.00  -0.00    -0.05  -0.02  -0.11     0.20   0.08   0.41
  24   1    -0.01  -0.00   0.00    -0.10  -0.07   0.03     0.40   0.20  -0.10
  25   1     0.01   0.02  -0.00    -0.01  -0.08  -0.00    -0.02  -0.22  -0.00
  26   1    -0.00   0.00  -0.01     0.03  -0.03   0.07     0.02  -0.07   0.22
  27   1    -0.00  -0.02  -0.07    -0.01   0.14   0.55    -0.01  -0.04  -0.12
  28   1     0.05  -0.05  -0.00    -0.48   0.34   0.06     0.09  -0.09  -0.01
                     58                     59                     60
                        a                      a                      a 
 Frequencies --  1512.8234              1515.6810              1523.7041
 Red. masses --     1.9689                 1.9057                 2.0019
 Frc consts  --     0.0000                 0.0000                 0.0000
 IR Inten    --     1.2663                 2.4766                 0.3809
 Raman Activ --     0.0000                 0.0000                 0.0000
 Depolar     --     0.0000                 0.0000                 0.0000
 Atom AN      X      Y      Z        X      Y      Z        X      Y      Z
   1   7    -0.00   0.00  -0.00    -0.00  -0.00  -0.01     0.00  -0.00   0.00
   2   6    -0.00   0.00  -0.00     0.00   0.00  -0.00     0.00   0.00   0.00
   3   6    -0.00   0.01  -0.01     0.00   0.00  -0.00    -0.01  -0.01  -0.00
   4   6     0.01  -0.01  -0.00    -0.01  -0.01   0.01     0.02   0.01  -0.01
   5   6    -0.01   0.05  -0.02     0.00  -0.12   0.09    -0.00   0.10  -0.06
   6   6    -0.13   0.09   0.13    -0.05   0.06   0.08    -0.10   0.09   0.10
   7   6     0.07   0.03   0.04     0.07   0.04   0.05    -0.13  -0.07  -0.05
   8   6     0.00   0.14  -0.10     0.02  -0.13   0.10     0.01  -0.11   0.07
   9   6    -0.04   0.03   0.03    -0.04   0.04   0.06     0.04  -0.04  -0.04
  10  17     0.00   0.00  -0.00     0.00  -0.00   0.00    -0.00  -0.00   0.00
  11   1    -0.00  -0.01   0.01    -0.00  -0.01   0.01     0.01   0.01  -0.01
  12   1     0.01  -0.00   0.01     0.02   0.01   0.02    -0.01   0.00  -0.01
  13   1     0.00  -0.00   0.00     0.01   0.01  -0.01     0.00  -0.00   0.00
  14   1     0.00   0.00  -0.00    -0.01  -0.01   0.00    -0.00  -0.00   0.00
  15   1    -0.00   0.00   0.00    -0.00  -0.00  -0.01     0.00  -0.00  -0.00
  16   1     0.01   0.01   0.02    -0.01  -0.00  -0.00     0.01   0.00  -0.00
  17   1     0.00  -0.02   0.01     0.01   0.00  -0.00     0.00   0.01  -0.00
  18   1    -0.01   0.01   0.00    -0.01  -0.01   0.01    -0.03  -0.01   0.00
  19   1     0.01  -0.03   0.11    -0.05   0.10  -0.34     0.03  -0.07   0.25
  20   1    -0.01  -0.12   0.00     0.02   0.37   0.00    -0.02  -0.28   0.00
  21   1     0.40  -0.25  -0.03     0.22  -0.15  -0.01     0.31  -0.21  -0.03
  22   1     0.06  -0.09  -0.46     0.03  -0.06  -0.26     0.03  -0.08  -0.36
  23   1    -0.10  -0.02  -0.18    -0.11  -0.05  -0.21     0.15   0.06   0.31
  24   1    -0.18  -0.08   0.05    -0.21  -0.11   0.06     0.31   0.16  -0.08
  25   1    -0.04  -0.39   0.00     0.03   0.39   0.01     0.02   0.30   0.00
  26   1     0.06  -0.11   0.38    -0.06   0.12  -0.37    -0.05   0.08  -0.28
  27   1     0.01  -0.01  -0.11    -0.00  -0.06  -0.18    -0.01   0.03   0.15
  28   1     0.11  -0.06  -0.01     0.16  -0.12  -0.01    -0.14   0.10   0.02
                     61                     62                     63
                        a                      a                      a 
 Frequencies --  2850.5452              2881.2650              2898.2754
 Red. masses --     1.7365                 2.0009                 1.9567
 Frc consts  --     0.0000                 0.0000                 0.0000
 IR Inten    --    19.5628              1504.5916                37.3463
 Raman Activ --     0.0000                 0.0000                 0.0000
 Depolar     --     0.0000                 0.0000                 0.0000
 Atom AN      X      Y      Z        X      Y      Z        X      Y      Z
   1   7     0.00   0.01   0.02     0.00   0.12   0.25     0.00   0.01   0.01
   2   6     0.00  -0.00  -0.01     0.00  -0.00  -0.03    -0.00  -0.00  -0.00
   3   6     0.00  -0.00  -0.00     0.00  -0.01  -0.00    -0.00   0.00   0.00
   4   6     0.03   0.00   0.25    -0.00  -0.00  -0.02    -0.00   0.00   0.00
   5   6    -0.00  -0.01  -0.01     0.00   0.01   0.01     0.00   0.00  -0.01
   6   6    -0.01   0.00  -0.01     0.01  -0.00   0.00     0.15  -0.08   0.15
   7   6    -0.00  -0.00  -0.00     0.00   0.00  -0.00    -0.00  -0.01   0.01
   8   6    -0.00  -0.01  -0.01     0.01   0.02   0.02    -0.03  -0.11  -0.15
   9   6    -0.01   0.01  -0.00    -0.00   0.00   0.00     0.00  -0.00   0.01
  10  17    -0.00  -0.00  -0.00    -0.00  -0.01  -0.01    -0.00  -0.00  -0.00
  11   1    -0.00   0.00   0.00    -0.03   0.01   0.00    -0.00  -0.00  -0.00
  12   1     0.00   0.01  -0.00     0.03   0.03  -0.01     0.00   0.00  -0.00
  13   1     0.00  -0.04  -0.07     0.01  -0.45  -0.83     0.00  -0.02  -0.04
  14   1    -0.00   0.01   0.02    -0.01   0.04   0.10    -0.00   0.00   0.00
  15   1    -0.01  -0.01   0.01    -0.01  -0.01   0.00     0.00   0.00  -0.00
  16   1     0.00  -0.01   0.00    -0.01   0.04  -0.01     0.00  -0.00   0.00
  17   1    -0.01   0.01   0.04    -0.00   0.00   0.01     0.00  -0.00  -0.00
  18   1    -0.12  -0.02  -0.95     0.01   0.00   0.08    -0.00   0.00  -0.00
  19   1     0.01   0.04   0.01    -0.00  -0.02  -0.00    -0.00  -0.02  -0.01
  20   1     0.01  -0.00   0.05    -0.00   0.00  -0.02     0.01   0.00   0.06
  21   1     0.01   0.00   0.03    -0.00  -0.00  -0.01    -0.04  -0.03  -0.42
  22   1     0.02  -0.01   0.00    -0.02   0.01  -0.00    -0.49   0.31  -0.12
  23   1     0.00   0.00  -0.00    -0.01  -0.01   0.01     0.03   0.01  -0.02
  24   1    -0.00  -0.00   0.00     0.00   0.00   0.01    -0.00   0.00  -0.00
  25   1     0.01   0.00   0.04    -0.01   0.00  -0.07     0.07  -0.02   0.42
  26   1     0.00   0.02   0.00    -0.01  -0.06  -0.02     0.05   0.42   0.11
  27   1     0.02  -0.01   0.00     0.00  -0.01  -0.00     0.00  -0.00   0.00
  28   1     0.01   0.00   0.04    -0.00  -0.00  -0.01    -0.01  -0.00  -0.05
                     64                     65                     66
                        a                      a                      a 
 Frequencies --  2900.1823              2904.5127              2907.8412
 Red. masses --     1.9157                 1.9129                 1.8624
 Frc consts  --     0.0000                 0.0000                 0.0000
 IR Inten    --    72.4259                40.8466                65.5497
 Raman Activ --     0.0000                 0.0000                 0.0000
 Depolar     --     0.0000                 0.0000                 0.0000
 Atom AN      X      Y      Z        X      Y      Z        X      Y      Z
   1   7    -0.00  -0.01  -0.02    -0.00  -0.00  -0.00    -0.00   0.00   0.01
   2   6     0.00   0.00   0.00     0.00   0.00  -0.00    -0.00   0.00   0.00
   3   6    -0.00   0.00   0.00    -0.00   0.00   0.00    -0.00   0.02   0.00
   4   6     0.00   0.00   0.01    -0.00  -0.00  -0.00    -0.00  -0.01  -0.02
   5   6    -0.00  -0.01  -0.01    -0.01  -0.07  -0.06    -0.04  -0.21  -0.15
   6   6     0.11  -0.05   0.11     0.06  -0.04   0.04    -0.04   0.02   0.01
   7   6     0.06   0.04  -0.13    -0.13  -0.07   0.18     0.04   0.02  -0.04
   8   6     0.03   0.11   0.14     0.01   0.09   0.07    -0.00  -0.03  -0.03
   9   6    -0.00   0.00  -0.01    -0.00   0.00  -0.01     0.01  -0.01   0.02
  10  17     0.00   0.00   0.00    -0.00  -0.00   0.00     0.00  -0.00  -0.00
  11   1     0.00  -0.00  -0.00     0.00   0.00  -0.00    -0.00   0.00   0.00
  12   1    -0.00  -0.00   0.00    -0.00  -0.00   0.00     0.00   0.00  -0.00
  13   1    -0.00   0.04   0.07     0.00   0.01   0.02    -0.00  -0.01  -0.03
  14   1     0.00  -0.00  -0.00    -0.00   0.00   0.00     0.00  -0.00   0.00
  15   1    -0.00  -0.00   0.00    -0.01  -0.00   0.00     0.00   0.00  -0.00
  16   1     0.00  -0.01   0.00     0.00  -0.01   0.00     0.01  -0.05   0.01
  17   1     0.00  -0.00  -0.00    -0.00  -0.00  -0.00     0.00  -0.01  -0.02
  18   1    -0.01  -0.00  -0.05    -0.00  -0.00  -0.00     0.01   0.00   0.06
  19   1     0.00   0.04   0.01     0.03   0.25   0.07     0.09   0.80   0.22
  20   1     0.01  -0.00   0.06     0.02  -0.01   0.15     0.04  -0.03   0.31
  21   1    -0.03  -0.03  -0.33     0.00  -0.01  -0.08    -0.02   0.00  -0.10
  22   1    -0.34   0.21  -0.08    -0.23   0.14  -0.06     0.18  -0.11   0.05
  23   1    -0.29  -0.15   0.17     0.55   0.29  -0.34    -0.16  -0.08   0.10
  24   1     0.08   0.02   0.35    -0.09  -0.03  -0.30     0.02   0.01   0.04
  25   1    -0.07   0.02  -0.42    -0.02   0.01  -0.14     0.01  -0.00   0.07
  26   1    -0.04  -0.40  -0.11    -0.04  -0.34  -0.10     0.01   0.11   0.03
  27   1     0.00  -0.00  -0.00     0.01  -0.00  -0.00    -0.04   0.02  -0.00
  28   1     0.00   0.00   0.05     0.01   0.00   0.04    -0.01  -0.00  -0.06
                     67                     68                     69
                        a                      a                      a 
 Frequencies --  2927.2608              2929.6733              2935.5560
 Red. masses --     1.8699                 1.6451                 1.5479
 Frc consts  --     0.0000                 0.0000                 0.0000
 IR Inten    --     9.1046                24.0464                76.8257
 Raman Activ --     0.0000                 0.0000                 0.0000
 Depolar     --     0.0000                 0.0000                 0.0000
 Atom AN      X      Y      Z        X      Y      Z        X      Y      Z
   1   7    -0.00   0.00   0.01    -0.00   0.00  -0.00     0.00   0.00   0.00
   2   6    -0.01  -0.01  -0.01    -0.01  -0.00   0.01    -0.01  -0.00   0.00
   3   6    -0.06   0.27   0.05    -0.00   0.01   0.00    -0.00   0.01   0.00
   4   6     0.00   0.01   0.00    -0.00   0.00  -0.01    -0.00   0.00   0.00
   5   6     0.00   0.00   0.02    -0.00  -0.02  -0.01     0.00   0.04   0.01
   6   6     0.01  -0.00  -0.01     0.02  -0.01  -0.02    -0.09   0.08   0.16
   7   6    -0.00  -0.00  -0.00    -0.00  -0.01   0.03    -0.04  -0.02   0.00
   8   6     0.00   0.00  -0.00     0.01  -0.13   0.10    -0.00   0.01  -0.00
   9   6     0.01  -0.01  -0.00    -0.12   0.06  -0.11    -0.05   0.03  -0.05
  10  17    -0.00  -0.00  -0.00    -0.00   0.00   0.00    -0.00   0.00   0.00
  11   1    -0.00   0.00  -0.00     0.00  -0.00   0.00     0.00  -0.00  -0.00
  12   1     0.00   0.00  -0.00    -0.01  -0.01   0.01    -0.00  -0.00   0.00
  13   1     0.00  -0.02  -0.03     0.00  -0.00  -0.00     0.00  -0.00  -0.01
  14   1    -0.01   0.03   0.07     0.00  -0.00  -0.01    -0.00   0.00   0.00
  15   1     0.03   0.02  -0.03     0.02   0.01  -0.01     0.02   0.01  -0.01
  16   1     0.17  -0.87   0.12     0.01  -0.03   0.00     0.01  -0.05   0.01
  17   1     0.03  -0.09  -0.30     0.00  -0.00  -0.01     0.00  -0.00  -0.01
  18   1    -0.00   0.00  -0.01     0.00  -0.00   0.02    -0.00  -0.00  -0.01
  19   1     0.00  -0.02  -0.00     0.01   0.06   0.02    -0.02  -0.14  -0.04
  20   1    -0.01  -0.00  -0.08     0.00  -0.00   0.01     0.00   0.00   0.01
  21   1     0.01   0.00   0.04     0.01   0.00   0.09    -0.12  -0.03  -0.73
  22   1    -0.03   0.02  -0.01    -0.07   0.04  -0.02     0.43  -0.26   0.15
  23   1     0.00   0.00  -0.00     0.03   0.02  -0.02     0.15   0.08  -0.10
  24   1     0.00   0.00   0.00    -0.01  -0.01  -0.07     0.01   0.00   0.10
  25   1     0.00   0.00   0.01    -0.09  -0.02  -0.54     0.00   0.00   0.02
  26   1    -0.00  -0.01  -0.01     0.06   0.49   0.18    -0.00  -0.03  -0.01
  27   1    -0.04   0.02  -0.01     0.40  -0.25   0.07     0.15  -0.10   0.03
  28   1     0.00  -0.00   0.01     0.03   0.02   0.32     0.02   0.01   0.15
                     70                     71                     72
                        a                      a                      a 
 Frequencies --  2937.4612              2938.7758              2942.4256
 Red. masses --     1.8797                 1.7199                 1.6360
 Frc consts  --     0.0000                 0.0000                 0.0000
 IR Inten    --     7.3744                34.7882                86.2982
 Raman Activ --     0.0000                 0.0000                 0.0000
 Depolar     --     0.0000                 0.0000                 0.0000
 Atom AN      X      Y      Z        X      Y      Z        X      Y      Z
   1   7     0.00   0.01   0.01     0.00   0.00   0.01    -0.00   0.00  -0.00
   2   6    -0.17  -0.06   0.19    -0.07  -0.02   0.08     0.02   0.01  -0.03
   3   6    -0.00  -0.01  -0.03    -0.00  -0.00  -0.01     0.00  -0.01   0.00
   4   6    -0.00   0.00  -0.00     0.00  -0.00   0.01    -0.00  -0.00  -0.01
   5   6     0.00  -0.01   0.01    -0.00   0.01  -0.01     0.00  -0.04   0.04
   6   6     0.01  -0.01  -0.01    -0.01   0.01  -0.00    -0.00  -0.01  -0.06
   7   6     0.02   0.01   0.00    -0.09  -0.04  -0.06    -0.10  -0.04  -0.14
   8   6    -0.00   0.04  -0.03     0.01  -0.08   0.06    -0.01   0.02  -0.07
   9   6    -0.05   0.03  -0.04     0.12  -0.07   0.11    -0.07   0.04  -0.06
  10  17     0.00  -0.00  -0.00     0.00   0.00  -0.00     0.00   0.00   0.00
  11   1    -0.00  -0.00  -0.00    -0.01   0.00  -0.00     0.00  -0.00   0.00
  12   1    -0.02  -0.01   0.02     0.00   0.00  -0.00    -0.00  -0.00   0.00
  13   1    -0.00  -0.03  -0.05    -0.00  -0.01  -0.02    -0.00  -0.00  -0.01
  14   1     0.02  -0.18  -0.32     0.01  -0.07  -0.13    -0.00   0.03   0.05
  15   1     0.58   0.38  -0.38     0.23   0.15  -0.15    -0.08  -0.05   0.05
  16   1     0.01  -0.03  -0.00     0.00  -0.01  -0.00    -0.00   0.02  -0.00
  17   1    -0.01   0.05   0.11    -0.01   0.02   0.06     0.00  -0.00  -0.01
  18   1     0.00   0.00   0.00    -0.00  -0.00  -0.03     0.01   0.00   0.03
  19   1     0.00   0.04   0.01    -0.00  -0.04  -0.01     0.02   0.16   0.06
  20   1    -0.01  -0.00  -0.05     0.01   0.00   0.05    -0.03  -0.01  -0.20
  21   1     0.01   0.00   0.05    -0.00  -0.00  -0.02     0.03   0.01   0.22
  22   1    -0.04   0.02  -0.01     0.04  -0.03   0.01    -0.04   0.02  -0.02
  23   1    -0.06  -0.03   0.04     0.24   0.13  -0.18     0.23   0.12  -0.18
  24   1    -0.01  -0.00  -0.06     0.07   0.01   0.39     0.13   0.03   0.70
  25   1     0.03   0.01   0.18    -0.06  -0.01  -0.33     0.04   0.00   0.27
  26   1    -0.02  -0.15  -0.06     0.04   0.30   0.11    -0.01  -0.08  -0.04
  27   1     0.18  -0.11   0.03    -0.40   0.25  -0.07     0.26  -0.16   0.05
  28   1     0.01   0.01   0.12    -0.04  -0.02  -0.31     0.01   0.01   0.14
                     73                     74                     75
                        a                      a                      a 
 Frequencies --  2952.1167              2965.9652              2969.4759
 Red. masses --     1.6065                 1.5451                 1.5600
 Frc consts  --     0.0000                 0.0000                 0.0000
 IR Inten    --    77.6247                46.4360                18.2761
 Raman Activ --     0.0000                 0.0000                 0.0000
 Depolar     --     0.0000                 0.0000                 0.0000
 Atom AN      X      Y      Z        X      Y      Z        X      Y      Z
   1   7    -0.00  -0.00  -0.00     0.00   0.00   0.01    -0.00  -0.01  -0.02
   2   6     0.00   0.01   0.00    -0.01  -0.01   0.01    -0.05  -0.09  -0.05
   3   6     0.00  -0.02  -0.03    -0.00  -0.01   0.06    -0.01  -0.00   0.18
   4   6     0.01  -0.00   0.02     0.00  -0.00  -0.01    -0.00  -0.00   0.02
   5   6     0.02  -0.08   0.20    -0.00  -0.00  -0.01     0.00  -0.01   0.02
   6   6     0.01  -0.00   0.05     0.00  -0.00  -0.01     0.00   0.00   0.01
   7   6     0.01   0.01   0.04    -0.00   0.00  -0.01     0.00   0.00   0.01
   8   6     0.00  -0.01   0.02    -0.00  -0.01  -0.02     0.00   0.00   0.01
   9   6     0.03  -0.02   0.01     0.08  -0.07  -0.18    -0.01   0.02   0.05
  10  17    -0.00   0.00  -0.00     0.00  -0.00  -0.00     0.00   0.00   0.00
  11   1    -0.00   0.00  -0.00    -0.01   0.00  -0.00     0.01  -0.00   0.00
  12   1     0.00   0.00  -0.00     0.01   0.01  -0.01    -0.01  -0.01   0.01
  13   1    -0.00   0.01   0.01    -0.00  -0.01  -0.01     0.00   0.02   0.04
  14   1     0.00  -0.01  -0.02    -0.00   0.00   0.00    -0.06   0.18   0.38
  15   1    -0.02  -0.01   0.02     0.04   0.02  -0.03     0.23   0.14  -0.17
  16   1    -0.00   0.03  -0.01    -0.02   0.12  -0.01    -0.06   0.31  -0.01
  17   1    -0.01   0.04   0.11     0.02  -0.09  -0.20     0.08  -0.29  -0.65
  18   1    -0.00  -0.00  -0.04     0.00   0.00   0.02    -0.00   0.00  -0.04
  19   1     0.04   0.31   0.13     0.00   0.01   0.00     0.00   0.03   0.01
  20   1    -0.13  -0.03  -0.85     0.00  -0.00   0.03    -0.02  -0.00  -0.10
  21   1    -0.02  -0.01  -0.16     0.00   0.00   0.03    -0.00  -0.00  -0.02
  22   1    -0.01   0.01   0.00    -0.01   0.01  -0.00     0.00  -0.00   0.00
  23   1    -0.02  -0.01   0.02    -0.00  -0.00   0.00     0.00   0.00  -0.00
  24   1    -0.03  -0.01  -0.15     0.01   0.00   0.04    -0.00  -0.00  -0.02
  25   1    -0.02  -0.00  -0.09     0.01  -0.00   0.06    -0.00   0.00  -0.02
  26   1     0.01   0.04   0.01     0.00   0.04   0.01    -0.00  -0.00  -0.00
  27   1    -0.12   0.08  -0.03    -0.42   0.26  -0.12     0.09  -0.05   0.03
  28   1     0.00  -0.00  -0.01     0.14   0.00   0.77    -0.04  -0.00  -0.20
                     76                     77                     78
                        a                      a                      a 
 Frequencies --  2978.9403              3158.5951              3180.1272
 Red. masses --     1.6351                 1.9172                 1.6018
 Frc consts  --     0.0000                 0.0000                 0.0000
 IR Inten    --     2.8678                46.1163                35.8765
 Raman Activ --     0.0000                 0.0000                 0.0000
 Depolar     --     0.0000                 0.0000                 0.0000
 Atom AN      X      Y      Z        X      Y      Z        X      Y      Z
   1   7    -0.00   0.01   0.03     0.26   0.02   0.04     0.08   0.12  -0.16
   2   6     0.03   0.12   0.15     0.01   0.00  -0.00     0.00   0.01  -0.00
   3   6    -0.01   0.03   0.13    -0.00  -0.00   0.00     0.00   0.00  -0.00
   4   6    -0.00  -0.00   0.01    -0.00  -0.00   0.00    -0.00  -0.00   0.00
   5   6     0.00  -0.00   0.01     0.00  -0.00   0.00     0.00  -0.00   0.00
   6   6    -0.00   0.00   0.00     0.00  -0.00  -0.00     0.00  -0.00   0.00
   7   6    -0.00  -0.00   0.00     0.00   0.00   0.00     0.00   0.00   0.00
   8   6     0.00   0.00   0.00     0.00   0.00   0.00     0.00  -0.00   0.00
   9   6    -0.01   0.01   0.02    -0.00   0.00   0.00     0.01  -0.00   0.00
  10  17    -0.00  -0.00  -0.00    -0.00  -0.00  -0.00     0.00   0.00   0.00
  11   1    -0.00   0.00   0.00    -0.85   0.05  -0.36     0.28  -0.01   0.09
  12   1     0.01   0.01  -0.01    -0.15  -0.13   0.19    -0.60  -0.42   0.57
  13   1     0.00  -0.04  -0.07     0.02   0.01   0.03     0.01  -0.02  -0.07
  14   1     0.09  -0.33  -0.68    -0.00   0.00   0.00     0.00  -0.01  -0.01
  15   1    -0.21  -0.12   0.16    -0.01  -0.00   0.00    -0.02  -0.01   0.01
  16   1    -0.02   0.10   0.00     0.00   0.00  -0.00     0.00  -0.01   0.00
  17   1     0.06  -0.20  -0.45     0.00  -0.00  -0.01     0.00   0.00  -0.00
  18   1    -0.00   0.00  -0.03    -0.00  -0.00  -0.00    -0.00  -0.00  -0.00
  19   1     0.00   0.00   0.00     0.00   0.00   0.00     0.00   0.00   0.00
  20   1    -0.01  -0.00  -0.03    -0.00  -0.00  -0.00    -0.00  -0.00  -0.00
  21   1    -0.00  -0.00  -0.01     0.00  -0.00   0.00     0.00  -0.00   0.00
  22   1     0.00  -0.00   0.00    -0.00   0.00  -0.00    -0.00   0.00  -0.00
  23   1     0.01   0.00  -0.00    -0.00  -0.00   0.00    -0.00  -0.00   0.00
  24   1    -0.00  -0.00  -0.01    -0.00  -0.00  -0.00    -0.00  -0.00  -0.00
  25   1    -0.00   0.00  -0.01     0.00  -0.00  -0.00     0.00   0.00  -0.00
  26   1    -0.00  -0.00  -0.00     0.00  -0.00  -0.00     0.00   0.00   0.00
  27   1     0.05  -0.03   0.01     0.00  -0.00   0.00    -0.03   0.01  -0.01
  28   1    -0.02  -0.00  -0.09    -0.00  -0.00  -0.00     0.00  -0.00   0.00
