      -----------------------------------------------------------      
     |                   =====================                   |     
     |                           x T B                           |     
     |                   =====================                   |     
     |                         S. Grimme                         |     
     |          Mulliken Center for Theoretical Chemistry        |     
     |                    University of Bonn                     |     
      -----------------------------------------------------------      

   * xtb version 6.5.1 (fef0646) compiled by 'conda@b96dff2e9fd6' on 2023-01-04

   xtb is free software: you can redistribute it and/or modify it under
   the terms of the GNU Lesser General Public License as published by
   the Free Software Foundation, either version 3 of the License, or
   (at your option) any later version.
   
   xtb is distributed in the hope that it will be useful,
   but WITHOUT ANY WARRANTY; without even the implied warranty of
   MERCHANTABILITY or FITNESS FOR A PARTICULAR PURPOSE.  See the
   GNU Lesser General Public License for more details.
   
   Cite this work as:
   * C. Bannwarth, E. Caldeweyher, S. Ehlert, A. Hansen, P. Pracht,
     J. Seibert, S. Spicher, S. Grimme, WIREs Comput. Mol. Sci., 2020, 11,
     e01493. DOI: 10.1002/wcms.1493
   
   for GFN2-xTB:
   * C. Bannwarth, S. Ehlert and S. Grimme., J. Chem. Theory Comput., 2019,
     15, 1652-1671. DOI: 10.1021/acs.jctc.8b01176
   for GFN1-xTB:
   * S. Grimme, C. Bannwarth, P. Shushkov, J. Chem. Theory Comput., 2017,
     13, 1989-2009. DOI: 10.1021/acs.jctc.7b00118
   for GFN0-xTB:
   * P. Pracht, E. Caldeweyher, S. Ehlert, S. Grimme, ChemRxiv, 2019, preprint.
     DOI: 10.26434/chemrxiv.8326202.v1
   for GFN-FF:
   * S. Spicher and S. Grimme, Angew. Chem. Int. Ed., 2020, 59, 15665-15673.
     DOI: 10.1002/anie.202004239
   
   for ALPB and GBSA implicit solvation:
   * S. Ehlert, M. Stahn, S. Spicher, S. Grimme, J. Chem. Theory Comput.,
     2021, 17, 4250-4261. DOI: 10.1021/acs.jctc.1c00471
   
   for DFT-D4:
   * E. Caldeweyher, C. Bannwarth and S. Grimme, J. Chem. Phys., 2017,
     147, 034112. DOI: 10.1063/1.4993215
   * E. Caldeweyher, S. Ehlert, A. Hansen, H. Neugebauer, S. Spicher,
     C. Bannwarth and S. Grimme, J. Chem. Phys., 2019, 150, 154122.
     DOI: 10.1063/1.5090222
   * E. Caldeweyher, J.-M. Mewes, S. Ehlert and S. Grimme, Phys. Chem. Chem. Phys.
     2020, 22, 8499-8512. DOI: 10.1039/D0CP00502A
   
   for sTDA-xTB:
   * S. Grimme and C. Bannwarth, J. Chem. Phys., 2016, 145, 054103.
     DOI: 10.1063/1.4959605
   
   in the mass-spec context:
   * V. Asgeirsson, C. Bauer and S. Grimme, Chem. Sci., 2017, 8, 4879.
     DOI: 10.1039/c7sc00601b
   * J. Koopman and S. Grimme, ACS Omega 2019, 4, 12, 15120-15133.
     DOI: 10.1021/acsomega.9b02011
   
   for metadynamics refer to:
   * S. Grimme, J. Chem. Theory Comput., 2019, 155, 2847-2862
     DOI: 10.1021/acs.jctc.9b00143
   
   for SPH calculations refer to:
   * S. Spicher and S. Grimme, J. Chem. Theory Comput., 2021, 17, 1701-1714
     DOI: 10.1021/acs.jctc.0c01306
   
   with help from (in alphabetical order)
   P. Atkinson, C. Bannwarth, F. Bohle, G. Brandenburg, E. Caldeweyher
   M. Checinski, S. Dohm, S. Ehlert, S. Ehrlich, I. Gerasimov, C. Hölzer
   A. Katbashev, J. Koopman, C. Lavigne, S. Lehtola, F. März, M. Müller,
   F. Musil, H. Neugebauer, J. Pisarek, C. Plett, P. Pracht, F. Pultar,
   J. Seibert, P. Shushkov, S. Spicher, M. Stahn, M. Steiner, T. Strunk,
   J. Stückrath, T. Rose, and J. Unsleber
   
 * started run on 2023/01/24 at 14:56:18.403     

           -------------------------------------------------
          |                Calculation Setup                |
           -------------------------------------------------

          program call               : xtb init.xyz --opt -c 1 -u 0 -P 16 --alpb water
          hostname                   : gpg-woodward
          coordinate file            : init.xyz
          omp threads                :                    16

   ID    Z sym.   atoms
    1    7 N      1
    2    6 C      2-7, 9, 10
    3   35 Br     8
    4    1 H      11-21

           -------------------------------------------------
          |                 G F N 2 - x T B                 |
           -------------------------------------------------

        Reference                      10.1021/acs.jctc.8b01176
      * Hamiltonian:
        H0-scaling (s, p, d)           1.850000    2.230000    2.230000
        zeta-weighting                 0.500000
      * Dispersion:
        s8                             2.700000
        a1                             0.520000
        a2                             5.000000
        s9                             5.000000
      * Repulsion:
        kExp                           1.500000    1.000000
        rExp                           1.000000
      * Coulomb:
        alpha                          2.000000
        third order                    shell-resolved
        anisotropic                    true
        a3                             3.000000
        a5                             4.000000
        cn-shift                       1.200000
        cn-exp                         4.000000
        max-rad                        5.000000

      * Solvation model:               ALPB
        Solvent                        water
        Parameter file                 internal GFN2-xTB/ALPB
        Dielectric constant                8.0200E+01
        Reference state                gsolv [1 M gas/solution]
        Free energy shift                  1.0808E-03 Eh       6.7819E-01 kcal/mol
        Temperature                        2.9815E+02 K
        Density                            1.0000E+00 kg/L
        Solvent mass                       1.8000E+01 g/mol
        Interaction kernel             P16
        Born radius scaling (c1)           1.4744E+00
        Born radii integrator          GBOBC
        Born offset                        0.0000E+00 a0       0.0000E+00 AA
        H-bond correction              true
        Ion screening                  false
        Surface tension                    1.0000E-05 Eh       1.5569E+01 dyn/cm
        Grid points                               230 per atom

          ...................................................
          :                      SETUP                      :
          :.................................................:
          :  # basis functions                  57          :
          :  # atomic orbitals                  56          :
          :  # shells                           32          :
          :  # electrons                        54          :
          :  max. iterations                   250          :
          :  Hamiltonian                  GFN2-xTB          :
          :  restarted?                      false          :
          :  GBSA solvation                   true          :
          :  PC potential                    false          :
          :  electronic temp.          300.0000000     K    :
          :  accuracy                    1.0000000          :
          :  -> integral cutoff          0.2500000E+02      :
          :  -> integral neglect         0.1000000E-07      :
          :  -> SCF convergence          0.1000000E-05 Eh   :
          :  -> wf. convergence          0.1000000E-03 e    :
          :  Broyden damping             0.4000000          :
          ...................................................

 iter      E             dE          RMSdq      gap      omega  full diag
   1    -29.7488632 -0.297489E+02  0.479E+00    4.35       0.0  T
   2    -29.8240636 -0.752004E-01  0.274E+00    4.23       1.0  T
   3    -29.8257989 -0.173534E-02  0.104E+00    4.11       1.0  T
   4    -29.8265338 -0.734911E-03  0.463E-01    4.05       1.0  T
   5    -29.8285066 -0.197279E-02  0.143E-01    4.08       1.0  T
   6    -29.8285298 -0.231751E-04  0.711E-02    4.09       1.0  T
   7    -29.8285648 -0.350255E-04  0.314E-02    4.09       1.0  T
   8    -29.8285675 -0.262375E-05  0.203E-02    4.09       1.1  T
   9    -29.8285683 -0.882966E-06  0.707E-03    4.09       3.1  T
  10    -29.8285685 -0.123944E-06  0.473E-03    4.09       4.6  T
  11    -29.8285685 -0.770268E-07  0.173E-03    4.09      12.6  T
  12    -29.8285686 -0.151998E-07  0.816E-04    4.09      26.8  T
  13    -29.8285686 -0.843990E-09  0.376E-04    4.09      58.0  T

   *** convergence criteria satisfied after 13 iterations ***

         #    Occupation            Energy/Eh            Energy/eV
      -------------------------------------------------------------
         1        2.0000           -0.8462399             -23.0274
       ...           ...                  ...                  ...
        21        2.0000           -0.4595531             -12.5051
        22        2.0000           -0.4430660             -12.0564
        23        2.0000           -0.4399636             -11.9720
        24        2.0000           -0.4370512             -11.8928
        25        2.0000           -0.4212792             -11.4636
        26        2.0000           -0.4146356             -11.2828
        27        2.0000           -0.3984991             -10.8437 (HOMO)
        28                         -0.2482298              -6.7547 (LUMO)
        29                         -0.2452555              -6.6737
        30                         -0.1953722              -5.3163
        31                         -0.1262703              -3.4360
        32                         -0.0563045              -1.5321
       ...                                ...                  ...
        56                          0.6091450              16.5757
      -------------------------------------------------------------
                  HL-Gap            0.1502693 Eh            4.0890 eV
             Fermi-level           -0.3233644 Eh           -8.7992 eV

 SCC (total)                   0 d,  0 h,  0 min,  0.038 sec
 SCC setup                      ...        0 min,  0.000 sec (  1.286%)
 Dispersion                     ...        0 min,  0.000 sec (  0.934%)
 classical contributions        ...        0 min,  0.000 sec (  0.211%)
 integral evaluation            ...        0 min,  0.003 sec (  6.631%)
 iterations                     ...        0 min,  0.028 sec ( 72.972%)
 molecular gradient             ...        0 min,  0.006 sec ( 16.759%)
 printout                       ...        0 min,  0.000 sec (  0.416%)

         :::::::::::::::::::::::::::::::::::::::::::::::::::::
         ::                     SUMMARY                     ::
         :::::::::::::::::::::::::::::::::::::::::::::::::::::
         :: total energy             -29.410717962968 Eh    ::
         :: total w/o Gsasa/hb       -29.399248546752 Eh    ::
         :: gradient norm              0.038765247842 Eh/a0 ::
         :: HOMO-LUMO gap              4.089036078845 eV    ::
         ::.................................................::
         :: SCC energy               -29.828568556507 Eh    ::
         :: -> isotropic ES            0.140858055160 Eh    ::
         :: -> anisotropic ES         -0.021115810574 Eh    ::
         :: -> anisotropic XC          0.020155382326 Eh    ::
         :: -> dispersion             -0.016984572603 Eh    ::
         :: -> Gsolv                  -0.128592278507 Eh    ::
         ::    -> Gelec               -0.117122862291 Eh    ::
         ::    -> Gsasa               -0.001739262648 Eh    ::
         ::    -> Ghb                 -0.010810913267 Eh    ::
         ::    -> Gshift               0.001080759698 Eh    ::
         :: repulsion energy           0.417764827257 Eh    ::
         :: add. restraining           0.000000000000 Eh    ::
         :: total charge               1.000000000000 e     ::
         :::::::::::::::::::::::::::::::::::::::::::::::::::::

      ----------------------------------------------------------- 
     |                   =====================                   |
     |                        A N C O P T                        |
     |                   =====================                   |
     |               Approximate Normal Coordinate               |
     |                Rational Function Optimizer                |
      ----------------------------------------------------------- 

          ...................................................
          :                      SETUP                      :
          :.................................................:
          :   optimization level            normal          :
          :   max. optcycles                   200          :
          :   ANC micro-cycles                  20          :
          :   degrees of freedom                57          :
          :.................................................:
          :   RF solver                   davidson          :
          :   write xtbopt.log                true          :
          :   linear?                        false          :
          :   energy convergence         0.5000000E-05 Eh   :
          :   grad. convergence          0.1000000E-02 Eh/α :
          :   maximium RF displ.         1.0000000          :
          :   Hlow (freq-cutoff)         0.1000000E-01      :
          :   Hmax (freq-cutoff)         5.0000000          :
          :   S6 in model hess.         20.0000000          :
          ...................................................

generating ANC from model Hessian ...
Using Lindh-Hessian (1995)
 Shifting diagonal of input Hessian by    8.6339524682358740E-003
 Lowest  eigenvalues of input Hessian
    0.000000    0.000000    0.000000    0.000000    0.000000    0.000000
    0.010000    0.010236    0.012533    0.013944    0.020478    0.022061
    0.022939    0.025200    0.028315    0.033109    0.038687    0.048835
 Highest eigenvalues
    1.432335    1.489335    1.515917    1.819960    1.889100    1.907685


........................................................................
.............................. CYCLE    1 ..............................
........................................................................
   1    -29.8285686 -0.298286E+02  0.209E-04    4.09       0.0  T
   2    -29.8285686 -0.753246E-10  0.169E-04    4.09     128.9  T
   3    -29.8285686 -0.249294E-10  0.128E-04    4.09     170.2  T
     SCC iter.                  ...        0 min,  0.007 sec
     gradient                   ...        0 min,  0.004 sec
 * total energy  :   -29.4107180 Eh     change       -0.1164196E-08 Eh
   gradient norm :     0.0387636 Eh/α   predicted     0.0000000E+00 (-100.00%)
   displ. norm   :     0.1649238 α      lambda       -0.3835656E-02
   maximum displ.:     0.0659292 α      in ANC's #15, #14, #29, ...

........................................................................
.............................. CYCLE    2 ..............................
........................................................................
   1    -29.8482222 -0.298482E+02  0.168E-01    4.17       0.0  T
   2    -29.8482533 -0.310305E-04  0.110E-01    4.15       1.0  T
   3    -29.8482408  0.124144E-04  0.604E-02    4.14       1.0  T
   4    -29.8482678 -0.269305E-04  0.362E-02    4.15       1.0  T
   5    -29.8482713 -0.356993E-05  0.241E-02    4.15       1.0  T
   6    -29.8482729 -0.152319E-05  0.133E-02    4.15       1.6  T
   7    -29.8482738 -0.885131E-06  0.492E-03    4.15       4.4  T
   8    -29.8482739 -0.155462E-06  0.151E-03    4.15      14.4  T
   9    -29.8482739 -0.601094E-08  0.550E-04    4.15      39.7  T
  10    -29.8482739 -0.495216E-09  0.213E-04    4.15     102.5  T
     SCC iter.                  ...        0 min,  0.020 sec
     gradient                   ...        0 min,  0.006 sec
 * total energy  :   -29.4131846 Eh     change       -0.2466642E-02 Eh
   gradient norm :     0.0154158 Eh/α   predicted    -0.1970011E-02 ( -20.13%)
   displ. norm   :     0.1029555 α      lambda       -0.6859434E-03
   maximum displ.:     0.0556205 α      in ANC's #1, #4, #15, ...

........................................................................
.............................. CYCLE    3 ..............................
........................................................................
   1    -29.8550680 -0.298551E+02  0.890E-02    4.18       0.0  T
   2    -29.8550799 -0.118746E-04  0.569E-02    4.17       1.0  T
   3    -29.8550789  0.100763E-05  0.331E-02    4.17       1.0  T
   4    -29.8550841 -0.520096E-05  0.228E-02    4.17       1.0  T
   5    -29.8550857 -0.160407E-05  0.138E-02    4.17       1.6  T
   6    -29.8550862 -0.451968E-06  0.805E-03    4.17       2.7  T
   7    -29.8550865 -0.342980E-06  0.320E-03    4.17       6.8  T
   8    -29.8550866 -0.651072E-07  0.970E-04    4.17      22.5  T
   9    -29.8550866 -0.164231E-08  0.421E-04    4.17      51.8  T
     SCC iter.                  ...        0 min,  0.018 sec
     gradient                   ...        0 min,  0.003 sec
 * total energy  :   -29.4135937 Eh     change       -0.4090784E-03 Eh
   gradient norm :     0.0056003 Eh/α   predicted    -0.3466610E-03 ( -15.26%)
   displ. norm   :     0.0797408 α      lambda       -0.1168969E-03
   maximum displ.:     0.0586801 α      in ANC's #1, #4, #2, ...

........................................................................
.............................. CYCLE    4 ..............................
........................................................................
   1    -29.8550066 -0.298550E+02  0.452E-02    4.18       0.0  T
   2    -29.8550083 -0.173901E-05  0.260E-02    4.17       1.0  T
   3    -29.8550082  0.131731E-06  0.119E-02    4.17       1.8  T
   4    -29.8550088 -0.587284E-06  0.770E-03    4.17       2.8  T
   5    -29.8550090 -0.191297E-06  0.490E-03    4.17       4.5  T
   6    -29.8550090 -0.430691E-07  0.319E-03    4.17       6.8  T
   7    -29.8550091 -0.584622E-07  0.133E-03    4.17      16.4  T
   8    -29.8550091 -0.908295E-08  0.457E-04    4.17      47.8  T
   9    -29.8550091 -0.615028E-09  0.202E-04    4.17     108.2  T
     SCC iter.                  ...        0 min,  0.017 sec
     gradient                   ...        0 min,  0.003 sec
 * total energy  :   -29.4136769 Eh     change       -0.8320364E-04 Eh
   gradient norm :     0.0024220 Eh/α   predicted    -0.5882176E-04 ( -29.30%)
   displ. norm   :     0.0975286 α      lambda       -0.6726454E-04
   maximum displ.:     0.0717735 α      in ANC's #1, #2, #3, ...

........................................................................
.............................. CYCLE    5 ..............................
........................................................................
   1    -29.8540356 -0.298540E+02  0.449E-02    4.18       0.0  T
   2    -29.8540363 -0.752832E-06  0.246E-02    4.18       1.0  T
   3    -29.8540363  0.155065E-07  0.644E-03    4.17       3.4  T
   4    -29.8540364 -0.149608E-06  0.387E-03    4.17       5.6  T
   5    -29.8540365 -0.655641E-07  0.235E-03    4.17       9.3  T
   6    -29.8540365 -0.999052E-08  0.154E-03    4.17      14.2  T
   7    -29.8540365 -0.872801E-08  0.937E-04    4.17      23.3  T
   8    -29.8540365 -0.417768E-08  0.287E-04    4.17      76.1  T
     SCC iter.                  ...        0 min,  0.014 sec
     gradient                   ...        0 min,  0.002 sec
 * total energy  :   -29.4137249 Eh     change       -0.4804879E-04 Eh
   gradient norm :     0.0018579 Eh/α   predicted    -0.3399259E-04 ( -29.25%)
   displ. norm   :     0.1368745 α      lambda       -0.3863169E-04
   maximum displ.:     0.0964621 α      in ANC's #1, #2, #3, ...

........................................................................
.............................. CYCLE    6 ..............................
........................................................................
   1    -29.8530825 -0.298531E+02  0.536E-02    4.18       0.0  T
   2    -29.8530829 -0.419553E-06  0.303E-02    4.18       1.0  T
   3    -29.8530829  0.406275E-07  0.390E-03    4.18       5.6  T
   4    -29.8530830 -0.137308E-06  0.204E-03    4.18      10.7  T
   5    -29.8530831 -0.305484E-07  0.767E-04    4.18      28.4  T
   6    -29.8530831 -0.265757E-08  0.419E-04    4.18      52.1  T
     SCC iter.                  ...        0 min,  0.011 sec
     gradient                   ...        0 min,  0.002 sec
 * total energy  :   -29.4137684 Eh     change       -0.4342606E-04 Eh
   gradient norm :     0.0030696 Eh/α   predicted    -0.1947995E-04 ( -55.14%)
   displ. norm   :     0.0901836 α      lambda       -0.3743556E-04
   maximum displ.:     0.0609266 α      in ANC's #1, #2, #3, ...

........................................................................
.............................. CYCLE    7 ..............................
........................................................................
   1    -29.8532223 -0.298532E+02  0.346E-02    4.18       0.0  T
   2    -29.8532225 -0.162699E-06  0.199E-02    4.18       1.1  T
   3    -29.8532224  0.382159E-07  0.358E-03    4.18       6.1  T
   4    -29.8532226 -0.117994E-06  0.204E-03    4.18      10.7  T
   5    -29.8532226 -0.760666E-08  0.132E-03    4.18      16.5  T
   6    -29.8532226 -0.437315E-08  0.974E-04    4.18      22.4  T
   7    -29.8532226 -0.390464E-08  0.458E-04    4.18      47.7  T
     SCC iter.                  ...        0 min,  0.013 sec
     gradient                   ...        0 min,  0.002 sec
 * total energy  :   -29.4138019 Eh     change       -0.3353772E-04 Eh
   gradient norm :     0.0027442 Eh/α   predicted    -0.1887051E-04 ( -43.73%)
   displ. norm   :     0.1803256 α      lambda       -0.6871006E-04
   maximum displ.:     0.1205840 α      in ANC's #1, #2, #3, ...

........................................................................
.............................. CYCLE    8 ..............................
........................................................................
   1    -29.8535831 -0.298536E+02  0.691E-02    4.18       0.0  T
   2    -29.8535838 -0.689867E-06  0.402E-02    4.18       1.0  T
   3    -29.8535837  0.132870E-06  0.698E-03    4.18       3.1  T
   4    -29.8535842 -0.457417E-06  0.411E-03    4.18       5.3  T
   5    -29.8535842 -0.362936E-07  0.289E-03    4.18       7.5  T
   6    -29.8535842 -0.168581E-07  0.191E-03    4.18      11.4  T
   7    -29.8535842 -0.196901E-07  0.852E-04    4.18      25.6  T
   8    -29.8535842 -0.315632E-08  0.287E-04    4.18      75.9  T
     SCC iter.                  ...        0 min,  0.014 sec
     gradient                   ...        0 min,  0.002 sec
 * total energy  :   -29.4138582 Eh     change       -0.5631699E-04 Eh
   gradient norm :     0.0018726 Eh/α   predicted    -0.3547244E-04 ( -37.01%)
   displ. norm   :     0.3459249 α      lambda       -0.6247286E-04
   maximum displ.:     0.2354247 α      in ANC's #1, #2, #3, ...

........................................................................
.............................. CYCLE    9 ..............................
........................................................................
   1    -29.8535430 -0.298535E+02  0.131E-01    4.18       0.0  T
   2    -29.8535448 -0.186186E-05  0.760E-02    4.18       1.0  T
   3    -29.8535448 -0.869385E-09  0.955E-03    4.18       2.3  T
   4    -29.8535457 -0.862913E-06  0.580E-03    4.18       3.8  T
   5    -29.8535458 -0.831395E-07  0.363E-03    4.18       6.0  T
   6    -29.8535458 -0.308668E-07  0.243E-03    4.18       9.0  T
   7    -29.8535458 -0.221080E-07  0.140E-03    4.18      15.6  T
   8    -29.8535458 -0.930778E-08  0.385E-04    4.18      56.7  T
   9    -29.8535458 -0.559361E-09  0.198E-04    4.18     110.5  T
     SCC iter.                  ...        0 min,  0.016 sec
     gradient                   ...        0 min,  0.002 sec
 * total energy  :   -29.4139052 Eh     change       -0.4695816E-04 Eh
   gradient norm :     0.0031026 Eh/α   predicted    -0.3290150E-04 ( -29.93%)
   displ. norm   :     0.0523931 α      lambda       -0.2312249E-04
   maximum displ.:     0.0365858 α      in ANC's #2, #1, #34, ...

........................................................................
.............................. CYCLE   10 ..............................
........................................................................
   1    -29.8543070 -0.298543E+02  0.233E-02    4.18       0.0  T
   2    -29.8543071 -0.133824E-06  0.133E-02    4.18       1.6  T
   3    -29.8543071 -0.365255E-08  0.160E-03    4.18      13.6  T
   4    -29.8543071 -0.139697E-07  0.730E-04    4.18      29.9  T
   5    -29.8543071 -0.164414E-08  0.403E-04    4.18      54.1  T
     SCC iter.                  ...        0 min,  0.009 sec
     gradient                   ...        0 min,  0.002 sec
 * total energy  :   -29.4139229 Eh     change       -0.1772708E-04 Eh
   gradient norm :     0.0018291 Eh/α   predicted    -0.1159816E-04 ( -34.57%)
   displ. norm   :     0.2454914 α      lambda       -0.3150062E-04
   maximum displ.:     0.1776969 α      in ANC's #2, #1, #3, ...

........................................................................
.............................. CYCLE   11 ..............................
........................................................................
   1    -29.8546389 -0.298546E+02  0.103E-01    4.18       0.0  T
   2    -29.8546401 -0.120285E-05  0.595E-02    4.18       1.0  T
   3    -29.8546401 -0.403033E-07  0.623E-03    4.18       3.5  T
   4    -29.8546404 -0.258166E-06  0.322E-03    4.18       6.8  T
   5    -29.8546404 -0.561407E-07  0.164E-03    4.18      13.3  T
   6    -29.8546404 -0.605429E-08  0.107E-03    4.18      20.4  T
   7    -29.8546404 -0.284544E-08  0.760E-04    4.18      28.7  T
   8    -29.8546405 -0.235809E-08  0.322E-04    4.18      67.7  T
     SCC iter.                  ...        0 min,  0.014 sec
     gradient                   ...        0 min,  0.002 sec
 * total energy  :   -29.4139527 Eh     change       -0.2981459E-04 Eh
   gradient norm :     0.0013834 Eh/α   predicted    -0.1617562E-04 ( -45.75%)
   displ. norm   :     0.3671679 α      lambda       -0.2665698E-04
   maximum displ.:     0.2731597 α      in ANC's #2, #1, #3, ...

........................................................................
.............................. CYCLE   12 ..............................
........................................................................
   1    -29.8528135 -0.298528E+02  0.151E-01    4.18       0.0  T
   2    -29.8528151 -0.158639E-05  0.875E-02    4.18       1.0  T
   3    -29.8528153 -0.243054E-06  0.718E-03    4.18       3.0  T
   4    -29.8528157 -0.372496E-06  0.367E-03    4.18       5.9  T
   5    -29.8528157 -0.604915E-07  0.149E-03    4.18      14.6  T
   6    -29.8528158 -0.688405E-08  0.102E-03    4.18      21.3  T
   7    -29.8528158 -0.303072E-08  0.697E-04    4.18      31.3  T
   8    -29.8528158 -0.175618E-08  0.302E-04    4.18      72.3  T
     SCC iter.                  ...        0 min,  0.014 sec
     gradient                   ...        0 min,  0.002 sec
 * total energy  :   -29.4139630 Eh     change       -0.1029127E-04 Eh
   gradient norm :     0.0028061 Eh/α   predicted    -0.1413070E-04 (  37.31%)
   displ. norm   :     0.0462989 α      lambda       -0.2442456E-04
   maximum displ.:     0.0352707 α      in ANC's #1, #3, #8, ...

........................................................................
.............................. CYCLE   13 ..............................
........................................................................
   1    -29.8537929 -0.298538E+02  0.174E-02    4.18       0.0  T
   2    -29.8537930 -0.807674E-07  0.101E-02    4.18       2.2  T
   3    -29.8537929  0.129043E-06  0.348E-03    4.18       6.3  T
   4    -29.8537931 -0.169257E-06  0.816E-04    4.18      26.8  T
   5    -29.8537931 -0.399723E-09  0.412E-04    4.18      53.0  T
     SCC iter.                  ...        0 min,  0.009 sec
     gradient                   ...        0 min,  0.002 sec
 * total energy  :   -29.4139809 Eh     change       -0.1788221E-04 Eh
   gradient norm :     0.0015172 Eh/α   predicted    -0.1223985E-04 ( -31.55%)
   displ. norm   :     0.0872691 α      lambda       -0.2253770E-04
   maximum displ.:     0.0543919 α      in ANC's #2, #1, #3, ...

........................................................................
.............................. CYCLE   14 ..............................
........................................................................
   1    -29.8552843 -0.298553E+02  0.338E-02    4.19       0.0  T
   2    -29.8552845 -0.181836E-06  0.198E-02    4.19       1.1  T
   3    -29.8552840  0.481309E-06  0.617E-03    4.19       3.5  T
   4    -29.8552846 -0.583966E-06  0.117E-03    4.19      18.7  T
   5    -29.8552846 -0.136524E-08  0.607E-04    4.19      35.9  T
   6    -29.8552846 -0.156610E-08  0.380E-04    4.19      57.5  T
     SCC iter.                  ...        0 min,  0.011 sec
     gradient                   ...        0 min,  0.002 sec
 * total energy  :   -29.4140033 Eh     change       -0.2240725E-04 Eh
   gradient norm :     0.0021160 Eh/α   predicted    -0.1130800E-04 ( -49.53%)
   displ. norm   :     0.0943965 α      lambda       -0.2332813E-04
   maximum displ.:     0.0813341 α      in ANC's #2, #1, #3, ...

........................................................................
.............................. CYCLE   15 ..............................
........................................................................
   1    -29.8555840 -0.298556E+02  0.393E-02    4.19       0.0  T
   2    -29.8555841 -0.956126E-07  0.230E-02    4.19       1.0  T
   3    -29.8555840  0.119540E-06  0.317E-03    4.19       6.9  T
   4    -29.8555842 -0.164089E-06  0.765E-04    4.19      28.5  T
   5    -29.8555842 -0.199087E-09  0.425E-04    4.19      51.4  T
     SCC iter.                  ...        0 min,  0.009 sec
     gradient                   ...        0 min,  0.002 sec
 * total energy  :   -29.4140241 Eh     change       -0.2077064E-04 Eh
   gradient norm :     0.0025266 Eh/α   predicted    -0.1176889E-04 ( -43.34%)
   displ. norm   :     0.0926496 α      lambda       -0.2821208E-04
   maximum displ.:     0.0596788 α      in ANC's #2, #1, #3, ...

........................................................................
.............................. CYCLE   16 ..............................
........................................................................
   1    -29.8554757 -0.298555E+02  0.330E-02    4.19       0.0  T
   2    -29.8554758 -0.128111E-06  0.189E-02    4.19       1.2  T
   3    -29.8554758  0.523318E-07  0.266E-03    4.19       8.2  T
   4    -29.8554759 -0.932909E-07  0.110E-03    4.19      19.8  T
   5    -29.8554759 -0.393380E-08  0.603E-04    4.19      36.2  T
   6    -29.8554759 -0.746290E-09  0.424E-04    4.19      51.4  T
     SCC iter.                  ...        0 min,  0.011 sec
     gradient                   ...        0 min,  0.002 sec
 * total energy  :   -29.4140494 Eh     change       -0.2537388E-04 Eh
   gradient norm :     0.0020118 Eh/α   predicted    -0.1422825E-04 ( -43.93%)
   displ. norm   :     0.1334102 α      lambda       -0.3553578E-04
   maximum displ.:     0.0998210 α      in ANC's #1, #2, #3, ...

........................................................................
.............................. CYCLE   17 ..............................
........................................................................
   1    -29.8548569 -0.298549E+02  0.465E-02    4.18       0.0  T
   2    -29.8548571 -0.284116E-06  0.262E-02    4.18       1.0  T
   3    -29.8548571  0.234954E-07  0.386E-03    4.18       5.6  T
   4    -29.8548572 -0.120886E-06  0.212E-03    4.18      10.3  T
   5    -29.8548572 -0.141506E-07  0.110E-03    4.18      19.9  T
   6    -29.8548573 -0.247124E-08  0.852E-04    4.18      25.6  T
   7    -29.8548573 -0.160546E-08  0.550E-04    4.18      39.6  T
     SCC iter.                  ...        0 min,  0.013 sec
     gradient                   ...        0 min,  0.002 sec
 * total energy  :   -29.4140781 Eh     change       -0.2867501E-04 Eh
   gradient norm :     0.0012298 Eh/α   predicted    -0.1808810E-04 ( -36.92%)
   displ. norm   :     0.1811919 α      lambda       -0.2181903E-04
   maximum displ.:     0.1344949 α      in ANC's #1, #2, #3, ...

........................................................................
.............................. CYCLE   18 ..............................
........................................................................
   1    -29.8537550 -0.298538E+02  0.664E-02    4.18       0.0  T
   2    -29.8537555 -0.566210E-06  0.371E-02    4.18       1.0  T
   3    -29.8537554  0.127459E-06  0.622E-03    4.18       3.5  T
   4    -29.8537557 -0.342951E-06  0.334E-03    4.18       6.5  T
   5    -29.8537558 -0.242757E-07  0.166E-03    4.18      13.1  T
   6    -29.8537558 -0.881949E-08  0.134E-03    4.18      16.3  T
   7    -29.8537558 -0.570603E-08  0.790E-04    4.18      27.6  T
   8    -29.8537558 -0.289280E-08  0.218E-04    4.18     100.1  T
     SCC iter.                  ...        0 min,  0.015 sec
     gradient                   ...        0 min,  0.002 sec
 * total energy  :   -29.4140944 Eh     change       -0.1633206E-04 Eh
   gradient norm :     0.0015445 Eh/α   predicted    -0.1107304E-04 ( -32.20%)
   displ. norm   :     0.1789911 α      lambda        0.2666973E-04
   maximum displ.:     0.1327914 α      in ANC's #1, #2, #3, ...

........................................................................
.............................. CYCLE   19 ..............................
........................................................................
   1    -29.8522533 -0.298523E+02  0.659E-02    4.17       0.0  T
   2    -29.8522539 -0.610837E-06  0.369E-02    4.17       1.0  T
   3    -29.8522537  0.235311E-06  0.694E-03    4.17       3.1  T
   4    -29.8522541 -0.474283E-06  0.355E-03    4.17       6.2  T
   5    -29.8522542 -0.221811E-07  0.188E-03    4.17      11.6  T
   6    -29.8522542 -0.139909E-07  0.146E-03    4.17      14.9  T
   7    -29.8522542 -0.650621E-08  0.901E-04    4.17      24.2  T
   8    -29.8522542 -0.379896E-08  0.217E-04    4.17     100.6  T
     SCC iter.                  ...        0 min,  0.015 sec
     gradient                   ...        0 min,  0.002 sec
 * total energy  :   -29.4140794 Eh     change        0.1502251E-04 Eh
   gradient norm :     0.0033992 Eh/α   predicted     0.1351986E-04 ( -10.00%)
   displ. norm   :     0.0940125 α      lambda       -0.2610520E-04
   maximum displ.:     0.0754692 α      in ANC's #1, #2, #3, ...

........................................................................
.............................. CYCLE   20 ..............................
........................................................................
   1    -29.8533544 -0.298534E+02  0.320E-02    4.18       0.0  T
   2    -29.8533546 -0.214368E-06  0.179E-02    4.17       1.2  T
   3    -29.8533546  0.724056E-07  0.368E-03    4.17       5.9  T
   4    -29.8533547 -0.141999E-06  0.178E-03    4.17      12.2  T
   5    -29.8533547 -0.692057E-08  0.104E-03    4.17      21.0  T
   6    -29.8533547 -0.347746E-08  0.760E-04    4.17      28.7  T
   7    -29.8533547 -0.169378E-08  0.543E-04    4.17      40.2  T
     SCC iter.                  ...        0 min,  0.012 sec
     gradient                   ...        0 min,  0.002 sec
 * total energy  :   -29.4140980 Eh     change       -0.1858798E-04 Eh
   gradient norm :     0.0018662 Eh/α   predicted    -0.1316944E-04 ( -29.15%)
   displ. norm   :     0.0964245 α      lambda       -0.1324839E-04
   maximum displ.:     0.0815406 α      in ANC's #1, #3, #7, ...
 * RMSD in coord.:     0.3725377 α      energy gain  -0.3380052E-02 Eh

generating ANC from model Hessian ...
Using Lindh-Hessian (1995)
 Shifting diagonal of input Hessian by    8.6209371348941986E-003
 Lowest  eigenvalues of input Hessian
    0.000000    0.000000    0.000000    0.000000    0.000000    0.000000
    0.010000    0.010427    0.012240    0.013989    0.020505    0.023013
    0.023372    0.026435    0.028703    0.032715    0.035042    0.051626
 Highest eigenvalues
    1.446297    1.545671    1.559344    1.884055    1.963263    1.984492


........................................................................
.............................. CYCLE   21 ..............................
........................................................................
   1    -29.8546185 -0.298546E+02  0.309E-02    4.18       0.0  T
   2    -29.8546188 -0.248345E-06  0.174E-02    4.18       1.3  T
   3    -29.8546187  0.265279E-07  0.306E-03    4.18       7.1  T
   4    -29.8546188 -0.905772E-07  0.149E-03    4.18      14.6  T
   5    -29.8546188 -0.707592E-08  0.880E-04    4.18      24.8  T
   6    -29.8546188 -0.194443E-08  0.619E-04    4.18      35.2  T
     SCC iter.                  ...        0 min,  0.011 sec
     gradient                   ...        0 min,  0.002 sec
 * total energy  :   -29.4141086 Eh     change       -0.1061973E-04 Eh
   gradient norm :     0.0003449 Eh/α   predicted     0.0000000E+00 (-100.00%)
   displ. norm   :     0.0221194 α      lambda       -0.1515927E-06
   maximum displ.:     0.0210085 α      in ANC's #2, #1, #3, ...

........................................................................
.............................. CYCLE   22 ..............................
........................................................................
   1    -29.8544648 -0.298545E+02  0.105E-02    4.18       0.0  T
   2    -29.8544648 -0.725316E-08  0.605E-03    4.18       3.6  T
   3    -29.8544648  0.601372E-08  0.831E-04    4.18      26.3  T
   4    -29.8544648 -0.902907E-08  0.318E-04    4.18      68.5  T
     SCC iter.                  ...        0 min,  0.007 sec
     gradient                   ...        0 min,  0.002 sec
 * total energy  :   -29.4141121 Eh     change       -0.3498037E-05 Eh
   gradient norm :     0.0002090 Eh/α   predicted    -0.1298394E-05 ( -62.88%)
   displ. norm   :     0.0296931 α      lambda       -0.3028681E-05
   maximum displ.:     0.0260410 α      in ANC's #2, #1, #3, ...

   *** GEOMETRY OPTIMIZATION CONVERGED AFTER 22 ITERATIONS ***

------------------------------------------------------------------------
 total energy gain   :        -0.0033942 Eh       -2.1299 kcal/mol
 total RMSD          :         0.3767011 a0        0.1993 Å
 total power (kW/mol):        -0.4050632 (step)  -22.0556 (real)
------------------------------------------------------------------------

 ANCopt (total)                0 d,  0 h,  0 min,  0.404 sec
 optimizer setup                ...        0 min,  0.000 sec (  0.024%)
 model hessian                  ...        0 min,  0.016 sec (  3.896%)
 ANC generation                 ...        0 min,  0.003 sec (  0.675%)
 coordinate transformation      ...        0 min,  0.000 sec (  0.109%)
 single point calculation       ...        0 min,  0.371 sec ( 91.932%)
 optimization log               ...        0 min,  0.004 sec (  0.992%)
 hessian update                 ...        0 min,  0.005 sec (  1.244%)
 rational function              ...        0 min,  0.002 sec (  0.522%)

================
 final structure:
================
21
 xtb: 6.5.1 (fef0646)
N            2.90620490107101        0.14376358336712       -1.00314832990254
C            2.55840822312904        0.55196246002899        0.37954685746848
C            3.07999022274328       -0.47878741247422        1.37966556880730
C            4.58522456186982       -0.50992334416515        1.42019890304943
C            5.29006773201823        0.54262714785342        1.99584323406134
C            6.67219175597758        0.53318084263746        2.03943110611163
C            7.35468834489058       -0.54458624562751        1.50059091187342
Br           9.30159894648049       -0.57325735324378        1.56835113754598
C            6.67958751701643       -1.60305439705419        0.92035351783539
C            5.29528813829909       -1.57579608074342        0.88011249552478
H            2.61748917580979        0.85947345636848       -1.67939194425620
H            2.44297190568133       -0.74139950803770       -1.24091801990449
H            3.92118066947537        0.00611337498922       -1.07923966981755
H            1.47576626309219        0.63290522877255        0.46681973855242
H            3.00288464727659        1.52475780868199        0.58645552340487
H            2.69775022061268       -1.46873693796191        1.13376839581942
H            2.70706964516469       -0.21609568264807        2.36910699444054
H            4.76116688025317        1.37567403613970        2.43182822087534
H            7.21651039097757        1.34616837901376        2.49239026336633
H            7.22812575034238       -2.43584757216394        0.51072423264564
H            4.77609410781889       -2.41352178373260        0.44104086249881

 Bond Distances (Angstroems)
 ---------------------------
N1-C2=1.4830         N1-H11=1.0261        N1-H12=1.0270        N1-H13=1.0271        C2-N1=1.4830         C2-C3=1.5280         
C2-H14=1.0892        C2-H15=1.0894        C3-C2=1.5280         C3-C4=1.5061         C3-H16=1.0893        C3-H17=1.0895        
C4-C3=1.5061         C4-C5=1.3914         C4-C10=1.3900        C5-C4=1.3914         C5-C6=1.3828         C5-H18=1.0788        
C6-C5=1.3828         C6-C7=1.3848         C6-H19=1.0781        C7-C6=1.3848         C7-Br8=1.9483        C7-C9=1.3830         
Br8-C7=1.9483        C9-C7=1.3830         C9-C10=1.3852        C9-H20=1.0781        C10-C4=1.3900        C10-C9=1.3852        
C10-H21=1.0789       H11-N1=1.0261        H12-N1=1.0270        H13-N1=1.0271        H14-C2=1.0892        H15-C2=1.0894        
H16-C3=1.0893        H17-C3=1.0895        H18-C5=1.0788        H19-C6=1.0781        H20-C9=1.0781        H21-C10=1.0789       
 C  H  Rav=1.0839 sigma=0.0054  Rmin=1.0781  Rmax=1.0895     8
 C  C  Rav=1.4189 sigma=0.0570  Rmin=1.3828  Rmax=1.5280     8
 N  H  Rav=1.0267 sigma=0.0004  Rmin=1.0261  Rmax=1.0271     3
 N  C  Rav=1.4830 sigma=0.0000  Rmin=1.4830  Rmax=1.4830     1
 Br C  Rav=1.9483 sigma=0.0000  Rmin=1.9483  Rmax=1.9483     1

 selected bond angles (degree)
 --------------------
H11-N1-C2=110.88               H12-N1-C2=110.32               H12-N1-H11=108.77              H13-N1-C2=109.74               
H13-N1-H11=108.83              H13-N1-H12=108.25              C3-C2-N1=110.15                H14-C2-N1=109.16               
H14-C2-C3=109.69               H15-C2-N1=109.10               H15-C2-C3=109.80               H15-C2-H14=108.90              
C4-C3-C2=111.88                H16-C3-C2=110.21               H16-C3-C4=109.75               H17-C3-C2=108.36               
H17-C3-C4=108.82               H17-C3-H16=107.70              C5-C4-C3=120.12                C10-C4-C3=121.06               
C10-C4-C5=118.82               C6-C5-C4=120.94                H18-C5-C4=120.20               H18-C5-C6=118.85               
C7-C6-C5=119.05                H19-C6-C5=120.84               H19-C6-C7=120.10               Br8-C7-C6=119.37               
C9-C7-C6=121.22                C9-C7-Br8=119.41               C10-C9-C7=119.01               H20-C9-C7=120.15               
H20-C9-C10=120.84              C9-C10-C4=120.95               H21-C10-C4=120.51              H21-C10-C9=118.52              

 selected dihedral angles (degree)
 ---------------------------------
C3-C2-N1-H11=183.86           C3-C2-N1-H12= 63.30           C3-C2-N1-H13=304.12           H14-C2-N1-H11= 63.36          
H14-C2-N1-H12=302.80          H14-C2-N1-H13=183.61          H15-C2-N1-H11=304.46          H15-C2-N1-H12=183.89          
H15-C2-N1-H13= 64.71          C4-C3-C2-N1= 66.79            C4-C3-C2-H14=186.97           C4-C3-C2-H15=306.61           
H16-C3-C2-N1=304.37           H16-C3-C2-H14= 64.55          H16-C3-C2-H15=184.20          H17-C3-C2-N1=186.76           
H17-C3-C2-H14=306.94          H17-C3-C2-H15= 66.59          C5-C4-C3-C2= 71.58            C5-C4-C3-H16=194.26           
C5-C4-C3-H17=311.88           C10-C4-C3-C2=252.04           C10-C4-C3-H16= 14.72          C10-C4-C3-H17=132.34          
C6-C5-C4-C3=180.15            C6-C5-C4-C10=359.70           H18-C5-C4-C3=  1.16           H18-C5-C4-C10=180.71          
C7-C6-C5-C4=359.95            C7-C6-C5-H18=178.95           H19-C6-C5-C4=180.46           H19-C6-C5-H18=359.46          
Br8-C7-C6-C5=180.43           Br8-C7-C6-H19=359.92          C9-C7-C6-C5=  0.16            C9-C7-C6-H19=179.66           
C10-C9-C7-C6=  0.08           C10-C9-C7-Br8=179.82          H20-C9-C7-C6=180.32           H20-C9-C7-Br8=  0.06          
C9-C10-C4-C3=180.10           C9-C10-C4-C5=  0.55           H21-C10-C4-C3=358.57          H21-C10-C4-C5=179.03          
C4-C10-C9-C7=359.55           C4-C10-C9-H20=179.31          H21-C10-C9-C7=181.05          H21-C10-C9-H20=  0.81         
           -------------------------------------------------
          |                Final Singlepoint                |
           -------------------------------------------------

          ...................................................
          :                      SETUP                      :
          :.................................................:
          :  # basis functions                  57          :
          :  # atomic orbitals                  56          :
          :  # shells                           32          :
          :  # electrons                        54          :
          :  max. iterations                   250          :
          :  Hamiltonian                  GFN2-xTB          :
          :  restarted?                      false          :
          :  GBSA solvation                   true          :
          :  PC potential                    false          :
          :  electronic temp.          300.0000000     K    :
          :  accuracy                    1.0000000          :
          :  -> integral cutoff          0.2500000E+02      :
          :  -> integral neglect         0.1000000E-07      :
          :  -> SCF convergence          0.1000000E-05 Eh   :
          :  -> wf. convergence          0.1000000E-03 e    :
          :  Broyden damping             0.4000000          :
          ...................................................

 iter      E             dE          RMSdq      gap      omega  full diag
   1    -29.8544648 -0.298545E+02  0.120E-04    4.18       0.0  T
   2    -29.8544648 -0.697966E-10  0.852E-05    4.18     256.2  T
   3    -29.8544648 -0.503917E-10  0.598E-05    4.18     364.6  T

   *** convergence criteria satisfied after 3 iterations ***

         #    Occupation            Energy/Eh            Energy/eV
      -------------------------------------------------------------
         1        2.0000           -0.8439003             -22.9637
       ...           ...                  ...                  ...
        21        2.0000           -0.4615722             -12.5600
        22        2.0000           -0.4420159             -12.0279
        23        2.0000           -0.4382540             -11.9255
        24        2.0000           -0.4370002             -11.8914
        25        2.0000           -0.4237038             -11.5296
        26        2.0000           -0.4135982             -11.2546
        27        2.0000           -0.4001165             -10.8877 (HOMO)
        28                         -0.2464884              -6.7073 (LUMO)
        29                         -0.2427141              -6.6046
        30                         -0.2073041              -5.6410
        31                         -0.1196412              -3.2556
        32                         -0.0466434              -1.2692
       ...                                ...                  ...
        56                          0.6336863              17.2435
      -------------------------------------------------------------
                  HL-Gap            0.1536280 Eh            4.1804 eV
             Fermi-level           -0.3233025 Eh           -8.7975 eV

 SCC (total)                   0 d,  0 h,  0 min,  0.009 sec
 SCC setup                      ...        0 min,  0.000 sec (  2.487%)
 Dispersion                     ...        0 min,  0.000 sec (  1.817%)
 classical contributions        ...        0 min,  0.000 sec (  0.431%)
 integral evaluation            ...        0 min,  0.001 sec (  9.642%)
 iterations                     ...        0 min,  0.005 sec ( 60.489%)
 molecular gradient             ...        0 min,  0.002 sec ( 22.724%)
 printout                       ...        0 min,  0.000 sec (  1.262%)

         :::::::::::::::::::::::::::::::::::::::::::::::::::::
         ::                     SUMMARY                     ::
         :::::::::::::::::::::::::::::::::::::::::::::::::::::
         :: total energy             -29.414112132924 Eh    ::
         :: total w/o Gsasa/hb       -29.402373322518 Eh    ::
         :: gradient norm              0.000209514214 Eh/a0 ::
         :: HOMO-LUMO gap              4.180431987313 eV    ::
         ::.................................................::
         :: SCC energy               -29.854464808697 Eh    ::
         :: -> isotropic ES            0.144719972028 Eh    ::
         :: -> anisotropic ES         -0.023881437294 Eh    ::
         :: -> anisotropic XC          0.019674899311 Eh    ::
         :: -> dispersion             -0.016958481874 Eh    ::
         :: -> Gsolv                  -0.131439684712 Eh    ::
         ::    -> Gelec               -0.119700874306 Eh    ::
         ::    -> Gsasa               -0.001768352872 Eh    ::
         ::    -> Ghb                 -0.011051217232 Eh    ::
         ::    -> Gshift               0.001080759698 Eh    ::
         :: repulsion energy           0.440279344341 Eh    ::
         :: add. restraining           0.000000000000 Eh    ::
         :: total charge               1.000000000000 e     ::
         :::::::::::::::::::::::::::::::::::::::::::::::::::::

           -------------------------------------------------
          |                Property Printout                |
           -------------------------------------------------

    * Orbital Energies and Occupations

         #    Occupation            Energy/Eh            Energy/eV
      -------------------------------------------------------------
         1        2.0000           -0.8439003             -22.9637
       ...           ...                  ...                  ...
        15        2.0000           -0.5112178             -13.9109
        16        2.0000           -0.5059687             -13.7681
        17        2.0000           -0.4982158             -13.5571
        18        2.0000           -0.4925615             -13.4033
        19        2.0000           -0.4871953             -13.2573
        20        2.0000           -0.4743666             -12.9082
        21        2.0000           -0.4615722             -12.5600
        22        2.0000           -0.4420159             -12.0279
        23        2.0000           -0.4382540             -11.9255
        24        2.0000           -0.4370002             -11.8914
        25        2.0000           -0.4237038             -11.5296
        26        2.0000           -0.4135982             -11.2546
        27        2.0000           -0.4001165             -10.8877 (HOMO)
        28                         -0.2464884              -6.7073 (LUMO)
        29                         -0.2427141              -6.6046
        30                         -0.2073041              -5.6410
        31                         -0.1196412              -3.2556
        32                         -0.0466434              -1.2692
        33                          0.0347985               0.9469
        34                          0.0358253               0.9749
        35                          0.0381799               1.0389
        36                          0.0589203               1.6033
        37                          0.0715739               1.9476
        38                          0.0760326               2.0690
       ...                                ...                  ...
        56                          0.6336863              17.2435
      -------------------------------------------------------------
                  HL-Gap            0.1536280 Eh            4.1804 eV
             Fermi-level           -0.3233025 Eh           -8.7975 eV

     #   Z          covCN         q      C6AA      α(0)
     1   7 N        3.485    -0.156    24.361     7.331
     2   6 C        3.732    -0.039    21.364     6.597
     3   6 C        3.809    -0.099    22.379     6.734
     4   6 C        2.968     0.018    27.601     8.618
     5   6 C        2.928    -0.041    29.031     8.836
     6   6 C        2.969    -0.039    28.960     8.827
     7   6 C        2.915     0.088    26.041     8.368
     8  35 Br       1.024    -0.263   192.393    22.364
     9   6 C        2.969    -0.041    29.011     8.835
    10   6 C        2.927    -0.047    29.175     8.858
    11   1 H        0.859     0.318     0.663     1.275
    12   1 H        0.859     0.312     0.679     1.291
    13   1 H        0.859     0.295     0.730     1.338
    14   1 H        0.925     0.122     1.593     1.974
    15   1 H        0.925     0.113     1.668     2.020
    16   1 H        0.925     0.091     1.868     2.138
    17   1 H        0.925     0.094     1.839     2.121
    18   1 H        0.926     0.077     2.006     2.215
    19   1 H        0.926     0.054     2.267     2.354
    20   1 H        0.926     0.058     2.223     2.332
    21   1 H        0.926     0.084     1.942     2.179

 Mol. C6AA /au·bohr⁶  :       5412.093061
 Mol. C8AA /au·bohr⁸  :     161744.986267
 Mol. α(0) /au        :        116.603965


Wiberg/Mayer (AO) data.
largest (>0.10) Wiberg bond orders for each atom

 ---------------------------------------------------------------------------
     #   Z sym  total        # sym  WBO       # sym  WBO       # sym  WBO
 ---------------------------------------------------------------------------
     1   7 N    3.656 --     2 C    0.966    13 H    0.895    12 H    0.888
                            11 H    0.886
     2   6 C    3.924 --     3 C    0.999     1 N    0.966    15 H    0.964
                            14 H    0.963
     3   6 C    3.985 --     4 C    1.011     2 C    0.999    16 H    0.966
                            17 H    0.954
     4   6 C    3.987 --    10 C    1.413     5 C    1.402     3 C    1.011
     5   6 C    3.985 --     6 C    1.446     4 C    1.402    18 H    0.962
                             9 C    0.110
     6   6 C    3.987 --     5 C    1.446     7 C    1.404    19 H    0.967
                            10 C    0.107
     7   6 C    3.906 --     9 C    1.414     6 C    1.404     8 Br   0.945
     8  35 Br   1.081 --     7 C    0.945
     9   6 C    3.986 --    10 C    1.432     7 C    1.414    20 H    0.967
                             5 C    0.110
    10   6 C    3.983 --     9 C    1.432     4 C    1.413    21 H    0.961
                             6 C    0.107
    11   1 H    0.899 --     1 N    0.886
    12   1 H    0.903 --     1 N    0.888
    13   1 H    0.913 --     1 N    0.895
    14   1 H    0.984 --     2 C    0.963
    15   1 H    0.987 --     2 C    0.964
    16   1 H    0.991 --     3 C    0.966
    17   1 H    0.991 --     3 C    0.954
    18   1 H    0.994 --     5 C    0.962
    19   1 H    0.997 --     6 C    0.967
    20   1 H    0.996 --     9 C    0.967
    21   1 H    0.993 --    10 C    0.961
 ---------------------------------------------------------------------------

Topologies differ in total number of bonds
Writing topology from bond orders to xtbtopo.mol

molecular dipole:
                 x           y           z       tot (Debye)
 q only:        3.360       0.322      -1.679
   full:        3.929       0.254      -1.602      10.802
molecular quadrupole (traceless):
                xx          xy          yy          xz          yz          zz
 q only:      -25.991       5.525      11.813     -23.261       1.679      14.178
  q+dip:      -12.417       4.116       6.353     -17.945       3.552       6.064
   full:      -12.614       3.944       4.910     -18.072       1.783       7.704

           -------------------------------------------------
          |                Geometry Summary                 |
           -------------------------------------------------

      molecular mass/u    :      201.0834664
   center of mass at/Å    :        6.5930600      -0.4096803       1.2136825
  moments of inertia/u·Å² :        0.1703004E+03   0.1458645E+04   0.1497311E+04
rotational constants/cm⁻¹ :        0.9898763E-01   0.1155705E-01   0.1125860E-01

 * 19 selected distances

     #   Z          #   Z                                           value/Å
     1   7 N        2   6 C                                       1.4830493
     2   6 C        3   6 C                                       1.5279826 (max)
     4   6 C        5   6 C                                       1.3914141
     5   6 C        6   6 C                                       1.3828436
     6   6 C        7   6 C                                       1.3848222
     7   6 C        9   6 C                                       1.3830371
     4   6 C       10   6 C                                       1.3899528
     9   6 C       10   6 C                                       1.3851525
     1   7 N       11   1 H                                       1.0261106 (min)
     1   7 N       12   1 H                                       1.0269533
     1   7 N       13   1 H                                       1.0270898
     2   6 C       14   1 H                                       1.0891658
     2   6 C       15   1 H                                       1.0893583
     3   6 C       16   1 H                                       1.0892994
     3   6 C       17   1 H                                       1.0895280
     5   6 C       18   1 H                                       1.0787893
     6   6 C       19   1 H                                       1.0781483
     9   6 C       20   1 H                                       1.0780701
    10   6 C       21   1 H                                       1.0789490

 * 4 distinct bonds (by element types)

   Z      Z             #   av. dist./Å        max./Å        min./Å
   1 H    6 C           8     1.0839135     1.0895280     1.0780701
   6 C    6 C           7     1.4064578     1.5279826     1.3828436
   1 H    7 N           3     1.0267179     1.0270898     1.0261106
   6 C    7 N           1     1.4830493     1.4830493     1.4830493


optimized geometry written to: xtbopt.xyz


           -------------------------------------------------
          | TOTAL ENERGY              -29.414112132924 Eh   |
          | GRADIENT NORM               0.000209514214 Eh/α |
          | HOMO-LUMO GAP               4.180431987313 eV   |
           -------------------------------------------------

------------------------------------------------------------------------
 * finished run on 2023/01/24 at 14:56:18.898     
------------------------------------------------------------------------
 total:
 * wall-time:     0 d,  0 h,  0 min,  0.494 sec
 *  cpu-time:     0 d,  0 h,  0 min, 42.322 sec
 * ratio c/w:    85.600 speedup
 SCF:
 * wall-time:     0 d,  0 h,  0 min,  0.038 sec
 *  cpu-time:     0 d,  0 h,  0 min,  5.154 sec
 * ratio c/w:   134.925 speedup
 ANC optimizer:
 * wall-time:     0 d,  0 h,  0 min,  0.414 sec
 *  cpu-time:     0 d,  0 h,  0 min, 31.797 sec
 * ratio c/w:    76.724 speedup

