      -----------------------------------------------------------      
     |                   =====================                   |     
     |                           x T B                           |     
     |                   =====================                   |     
     |                         S. Grimme                         |     
     |          Mulliken Center for Theoretical Chemistry        |     
     |                    University of Bonn                     |     
      -----------------------------------------------------------      

   * xtb version 6.5.1 (fef0646) compiled by 'conda@b96dff2e9fd6' on 2023-01-04

   xtb is free software: you can redistribute it and/or modify it under
   the terms of the GNU Lesser General Public License as published by
   the Free Software Foundation, either version 3 of the License, or
   (at your option) any later version.
   
   xtb is distributed in the hope that it will be useful,
   but WITHOUT ANY WARRANTY; without even the implied warranty of
   MERCHANTABILITY or FITNESS FOR A PARTICULAR PURPOSE.  See the
   GNU Lesser General Public License for more details.
   
   Cite this work as:
   * C. Bannwarth, E. Caldeweyher, S. Ehlert, A. Hansen, P. Pracht,
     J. Seibert, S. Spicher, S. Grimme, WIREs Comput. Mol. Sci., 2020, 11,
     e01493. DOI: 10.1002/wcms.1493
   
   for GFN2-xTB:
   * C. Bannwarth, S. Ehlert and S. Grimme., J. Chem. Theory Comput., 2019,
     15, 1652-1671. DOI: 10.1021/acs.jctc.8b01176
   for GFN1-xTB:
   * S. Grimme, C. Bannwarth, P. Shushkov, J. Chem. Theory Comput., 2017,
     13, 1989-2009. DOI: 10.1021/acs.jctc.7b00118
   for GFN0-xTB:
   * P. Pracht, E. Caldeweyher, S. Ehlert, S. Grimme, ChemRxiv, 2019, preprint.
     DOI: 10.26434/chemrxiv.8326202.v1
   for GFN-FF:
   * S. Spicher and S. Grimme, Angew. Chem. Int. Ed., 2020, 59, 15665-15673.
     DOI: 10.1002/anie.202004239
   
   for ALPB and GBSA implicit solvation:
   * S. Ehlert, M. Stahn, S. Spicher, S. Grimme, J. Chem. Theory Comput.,
     2021, 17, 4250-4261. DOI: 10.1021/acs.jctc.1c00471
   
   for DFT-D4:
   * E. Caldeweyher, C. Bannwarth and S. Grimme, J. Chem. Phys., 2017,
     147, 034112. DOI: 10.1063/1.4993215
   * E. Caldeweyher, S. Ehlert, A. Hansen, H. Neugebauer, S. Spicher,
     C. Bannwarth and S. Grimme, J. Chem. Phys., 2019, 150, 154122.
     DOI: 10.1063/1.5090222
   * E. Caldeweyher, J.-M. Mewes, S. Ehlert and S. Grimme, Phys. Chem. Chem. Phys.
     2020, 22, 8499-8512. DOI: 10.1039/D0CP00502A
   
   for sTDA-xTB:
   * S. Grimme and C. Bannwarth, J. Chem. Phys., 2016, 145, 054103.
     DOI: 10.1063/1.4959605
   
   in the mass-spec context:
   * V. Asgeirsson, C. Bauer and S. Grimme, Chem. Sci., 2017, 8, 4879.
     DOI: 10.1039/c7sc00601b
   * J. Koopman and S. Grimme, ACS Omega 2019, 4, 12, 15120-15133.
     DOI: 10.1021/acsomega.9b02011
   
   for metadynamics refer to:
   * S. Grimme, J. Chem. Theory Comput., 2019, 155, 2847-2862
     DOI: 10.1021/acs.jctc.9b00143
   
   for SPH calculations refer to:
   * S. Spicher and S. Grimme, J. Chem. Theory Comput., 2021, 17, 1701-1714
     DOI: 10.1021/acs.jctc.0c01306
   
   with help from (in alphabetical order)
   P. Atkinson, C. Bannwarth, F. Bohle, G. Brandenburg, E. Caldeweyher
   M. Checinski, S. Dohm, S. Ehlert, S. Ehrlich, I. Gerasimov, C. Hölzer
   A. Katbashev, J. Koopman, C. Lavigne, S. Lehtola, F. März, M. Müller,
   F. Musil, H. Neugebauer, J. Pisarek, C. Plett, P. Pracht, F. Pultar,
   J. Seibert, P. Shushkov, S. Spicher, M. Stahn, M. Steiner, T. Strunk,
   J. Stückrath, T. Rose, and J. Unsleber
   
 * started run on 2023/01/23 at 14:15:12.509     

           -------------------------------------------------
          |                Calculation Setup                |
           -------------------------------------------------

          program call               : xtb init.xyz --opt -c 1 -u 0 -P 16
          hostname                   : gpg-woodward
          coordinate file            : init.xyz
          omp threads                :                    16

   ID    Z sym.   atoms
    1    7 N      1
    2    6 C      2-6
    3    1 H      7-20

           -------------------------------------------------
          |                 G F N 2 - x T B                 |
           -------------------------------------------------

        Reference                      10.1021/acs.jctc.8b01176
      * Hamiltonian:
        H0-scaling (s, p, d)           1.850000    2.230000    2.230000
        zeta-weighting                 0.500000
      * Dispersion:
        s8                             2.700000
        a1                             0.520000
        a2                             5.000000
        s9                             5.000000
      * Repulsion:
        kExp                           1.500000    1.000000
        rExp                           1.000000
      * Coulomb:
        alpha                          2.000000
        third order                    shell-resolved
        anisotropic                    true
        a3                             3.000000
        a5                             4.000000
        cn-shift                       1.200000
        cn-exp                         4.000000
        max-rad                        5.000000


          ...................................................
          :                      SETUP                      :
          :.................................................:
          :  # basis functions                  38          :
          :  # atomic orbitals                  38          :
          :  # shells                           26          :
          :  # electrons                        38          :
          :  max. iterations                   250          :
          :  Hamiltonian                  GFN2-xTB          :
          :  restarted?                      false          :
          :  GBSA solvation                  false          :
          :  PC potential                    false          :
          :  electronic temp.          300.0000000     K    :
          :  accuracy                    1.0000000          :
          :  -> integral cutoff          0.2500000E+02      :
          :  -> integral neglect         0.1000000E-07      :
          :  -> SCF convergence          0.1000000E-05 Eh   :
          :  -> wf. convergence          0.1000000E-03 e    :
          :  Broyden damping             0.4000000          :
          ...................................................

 iter      E             dE          RMSdq      gap      omega  full diag
   1    -20.5111712 -0.205112E+02  0.333E+00   12.02       0.0  T
   2    -20.6194988 -0.108328E+00  0.182E+00    9.12       1.0  T
   3    -20.6224830 -0.298420E-02  0.113E+00    8.12       1.0  T
   4    -20.6231797 -0.696684E-03  0.161E-01    7.13       1.0  T
   5    -20.6231977 -0.180608E-04  0.759E-02    7.16       1.0  T
   6    -20.6232029 -0.511952E-05  0.937E-03    7.22       2.4  T
   7    -20.6232032 -0.343889E-06  0.408E-03    7.22       5.5  T
   8    -20.6232032 -0.182101E-07  0.103E-03    7.21      21.7  T
   9    -20.6232032 -0.190073E-08  0.294E-04    7.21      76.2  T
  10    -20.6232032 -0.562501E-10  0.777E-05    7.21     287.7  T

   *** convergence criteria satisfied after 10 iterations ***

         #    Occupation            Energy/Eh            Energy/eV
      -------------------------------------------------------------
         1        2.0000           -0.9013035             -24.5257
       ...           ...                  ...                  ...
        13        2.0000           -0.6191453             -16.8478
        14        2.0000           -0.6019926             -16.3811
        15        2.0000           -0.5852742             -15.9261
        16        2.0000           -0.5638017             -15.3418
        17        2.0000           -0.5531763             -15.0527
        18        2.0000           -0.5367204             -14.6049
        19        2.0000           -0.5282699             -14.3750 (HOMO)
        20                         -0.2631646              -7.1611 (LUMO)
        21                         -0.1463638              -3.9828
        22                         -0.1123954              -3.0584
        23                         -0.1101427              -2.9971
        24                         -0.0720634              -1.9609
       ...                                ...                  ...
        38                          0.1894118               5.1542
      -------------------------------------------------------------
                  HL-Gap            0.2651053 Eh            7.2139 eV
             Fermi-level           -0.3957172 Eh          -10.7680 eV

 SCC (total)                   0 d,  0 h,  0 min,  0.014 sec
 SCC setup                      ...        0 min,  0.000 sec (  1.176%)
 Dispersion                     ...        0 min,  0.000 sec (  1.907%)
 classical contributions        ...        0 min,  0.000 sec (  0.553%)
 integral evaluation            ...        0 min,  0.001 sec (  4.215%)
 iterations                     ...        0 min,  0.011 sec ( 78.316%)
 molecular gradient             ...        0 min,  0.001 sec ( 10.249%)
 printout                       ...        0 min,  0.000 sec (  1.761%)

         :::::::::::::::::::::::::::::::::::::::::::::::::::::
         ::                     SUMMARY                     ::
         :::::::::::::::::::::::::::::::::::::::::::::::::::::
         :: total energy             -20.332144973202 Eh    ::
         :: gradient norm              0.022712691217 Eh/a0 ::
         :: HOMO-LUMO gap              7.213883542961 eV    ::
         ::.................................................::
         :: SCC energy               -20.623203220003 Eh    ::
         :: -> isotropic ES            0.110767509042 Eh    ::
         :: -> anisotropic ES         -0.007169901851 Eh    ::
         :: -> anisotropic XC          0.015273560726 Eh    ::
         :: -> dispersion             -0.009250974008 Eh    ::
         :: repulsion energy           0.291078312208 Eh    ::
         :: add. restraining           0.000000000000 Eh    ::
         :: total charge               1.000000000000 e     ::
         :::::::::::::::::::::::::::::::::::::::::::::::::::::

      ----------------------------------------------------------- 
     |                   =====================                   |
     |                        A N C O P T                        |
     |                   =====================                   |
     |               Approximate Normal Coordinate               |
     |                Rational Function Optimizer                |
      ----------------------------------------------------------- 

          ...................................................
          :                      SETUP                      :
          :.................................................:
          :   optimization level            normal          :
          :   max. optcycles                   200          :
          :   ANC micro-cycles                  20          :
          :   degrees of freedom                54          :
          :.................................................:
          :   RF solver                   davidson          :
          :   write xtbopt.log                true          :
          :   linear?                        false          :
          :   energy convergence         0.5000000E-05 Eh   :
          :   grad. convergence          0.1000000E-02 Eh/α :
          :   maximium RF displ.         1.0000000          :
          :   Hlow (freq-cutoff)         0.1000000E-01      :
          :   Hmax (freq-cutoff)         5.0000000          :
          :   S6 in model hess.         20.0000000          :
          ...................................................

generating ANC from model Hessian ...
Using Lindh-Hessian (1995)
 Shifting diagonal of input Hessian by    8.1057015939755717E-003
 Lowest  eigenvalues of input Hessian
    0.000000    0.000000    0.000000    0.000000    0.000000    0.000000
    0.010000    0.010854    0.011355    0.014644    0.018462    0.018716
    0.022586    0.023032    0.029927    0.047344    0.050452    0.055343
 Highest eigenvalues
    1.195307    1.238234    1.282923    1.401550    1.402993    1.450792


........................................................................
.............................. CYCLE    1 ..............................
........................................................................
   1    -20.6232032 -0.206232E+02  0.228E-05    7.21       0.0  T
   2    -20.6232032 -0.383693E-12  0.128E-05    7.21    1750.9  T
   3    -20.6232032 -0.106581E-12  0.206E-06    7.21   10878.5  T
     SCC iter.                  ...        0 min,  0.003 sec
     gradient                   ...        0 min,  0.001 sec
 * total energy  :   -20.3321450 Eh     change       -0.1202594E-10 Eh
   gradient norm :     0.0227128 Eh/α   predicted     0.0000000E+00 (-100.00%)
   displ. norm   :     0.1224305 α      lambda       -0.1667875E-02
   maximum displ.:     0.0773945 α      in ANC's #19, #6, #35, ...

........................................................................
.............................. CYCLE    2 ..............................
........................................................................
   1    -20.6288974 -0.206289E+02  0.142E-01    7.09       0.0  T
   2    -20.6289031 -0.572768E-05  0.835E-02    7.10       1.0  T
   3    -20.6289037 -0.566617E-06  0.677E-03    7.12       3.3  T
   4    -20.6289038 -0.102117E-06  0.234E-03    7.12       9.6  T
   5    -20.6289038 -0.630662E-08  0.943E-04    7.12      23.7  T
   6    -20.6289038 -0.103171E-08  0.176E-04    7.12     127.4  T
     SCC iter.                  ...        0 min,  0.006 sec
     gradient                   ...        0 min,  0.001 sec
 * total energy  :   -20.3331017 Eh     change       -0.9566823E-03 Eh
   gradient norm :     0.0095398 Eh/α   predicted    -0.8464392E-03 ( -11.52%)
   displ. norm   :     0.0422331 α      lambda       -0.1635571E-03
   maximum displ.:     0.0300134 α      in ANC's #7, #2, #19, ...

........................................................................
.............................. CYCLE    3 ..............................
........................................................................
   1    -20.6303009 -0.206303E+02  0.297E-02    7.09       0.0  T
   2    -20.6303020 -0.106435E-05  0.167E-02    7.10       1.3  T
   3    -20.6303021 -0.857076E-07  0.360E-03    7.10       6.2  T
   4    -20.6303021 -0.620878E-08  0.966E-04    7.10      23.1  T
   5    -20.6303021 -0.578570E-09  0.342E-04    7.10      65.4  T
     SCC iter.                  ...        0 min,  0.005 sec
     gradient                   ...        0 min,  0.001 sec
 * total energy  :   -20.3332025 Eh     change       -0.1008375E-03 Eh
   gradient norm :     0.0033926 Eh/α   predicted    -0.8294710E-04 ( -17.74%)
   displ. norm   :     0.0181773 α      lambda       -0.2304665E-04
   maximum displ.:     0.0106914 α      in ANC's #2, #7, #23, ...

........................................................................
.............................. CYCLE    4 ..............................
........................................................................
   1    -20.6305946 -0.206306E+02  0.131E-02    7.10       0.0  T
   2    -20.6305947 -0.144781E-06  0.709E-03    7.10       3.2  T
   3    -20.6305947 -0.139611E-07  0.126E-03    7.10      17.7  T
   4    -20.6305947 -0.200373E-08  0.365E-04    7.10      61.2  T
   5    -20.6305947 -0.179977E-09  0.158E-04    7.10     141.5  T
     SCC iter.                  ...        0 min,  0.005 sec
     gradient                   ...        0 min,  0.001 sec
 * total energy  :   -20.3332164 Eh     change       -0.1387065E-04 Eh
   gradient norm :     0.0011724 Eh/α   predicted    -0.1154624E-04 ( -16.76%)
   displ. norm   :     0.0135891 α      lambda       -0.2958182E-05
   maximum displ.:     0.0113079 α      in ANC's #2, #9, #19, ...

........................................................................
.............................. CYCLE    5 ..............................
........................................................................
   1    -20.6305625 -0.206306E+02  0.754E-03    7.10       0.0  T
   2    -20.6305626 -0.497756E-07  0.400E-03    7.11       5.6  T
   3    -20.6305626 -0.279893E-08  0.856E-04    7.11      26.1  T
   4    -20.6305626 -0.931397E-09  0.186E-04    7.11     120.0  T
     SCC iter.                  ...        0 min,  0.004 sec
     gradient                   ...        0 min,  0.001 sec
 * total energy  :   -20.3332183 Eh     change       -0.1932523E-05 Eh
   gradient norm :     0.0004206 Eh/α   predicted    -0.1485278E-05 ( -23.14%)
   displ. norm   :     0.0043376 α      lambda       -0.3545603E-06
   maximum displ.:     0.0034677 α      in ANC's #2, #7, #23, ...

   *** GEOMETRY OPTIMIZATION CONVERGED AFTER 5 ITERATIONS ***

------------------------------------------------------------------------
 total energy gain   :        -0.0010733 Eh       -0.6735 kcal/mol
 total RMSD          :         0.0328283 a0        0.0174 Å
 total power (kW/mol):        -0.5636018 (step)  -60.6566 (real)
------------------------------------------------------------------------

 ANCopt (total)                0 d,  0 h,  0 min,  0.046 sec
 optimizer setup                ...        0 min,  0.000 sec (  0.264%)
 model hessian                  ...        0 min,  0.008 sec ( 16.536%)
 ANC generation                 ...        0 min,  0.001 sec (  2.851%)
 coordinate transformation      ...        0 min,  0.000 sec (  0.427%)
 single point calculation       ...        0 min,  0.035 sec ( 74.648%)
 optimization log               ...        0 min,  0.001 sec (  1.647%)
 hessian update                 ...        0 min,  0.000 sec (  0.431%)
 rational function              ...        0 min,  0.001 sec (  1.172%)

================
 final structure:
================
20
 xtb: 6.5.1 (fef0646)
N            0.89660477971595        0.05494286627613        0.02426788699127
C            2.39581848766853        0.06838438600521        0.03431874638302
C            2.91379667226549        1.27522234332330        0.80158926256452
C            4.44523242670121        1.29564369619786        0.81498808782420
C            4.98469853450386        2.50302775950702        1.58151081274557
C            6.50777315687964        2.51854220684059        1.59104145739970
H            0.52899074450152       -0.75480123550143       -0.49071289740854
H            0.54607578540757        0.91656728811883       -0.41518320941791
H            0.54462117655370        0.02328442464752        0.99044054486619
H            2.74661750462281        0.09516614108445       -0.99812828723854
H            2.74514439126580       -0.85522197010272        0.49761561345317
H            2.55388122170330        1.24673089367953        1.83193984807525
H            2.55435483270078        2.19612199853775        0.33819765595510
H            4.81806710434036        1.32636056087981       -0.20988290119558
H            4.81768615984582        0.38119537858492        1.27905819042898
H            4.61624239707365        2.47479601830922        2.60864330247938
H            4.61595880804193        3.42052425791493        1.11913176260986
H            6.89802330530718        1.62245544970945        2.06700998116957
H            6.87106155473935        3.38264513204246        2.13937334365771
H            6.89770095616156        2.56782240394517        0.57746079865709

 Bond Distances (Angstroems)
 ---------------------------
N1-C2=1.4993         N1-H7=1.0276         N1-H8=1.0288         N1-H9=1.0288         C2-N1=1.4993         C2-C3=1.5210         
C2-H10=1.0907        C2-H11=1.0907        C3-C2=1.5210         C3-C4=1.5316         C3-H12=1.0918        C3-H13=1.0918        
C4-C3=1.5316         C4-C5=1.5285         C4-H14=1.0910        C4-H15=1.0910        C5-C4=1.5285         C5-C6=1.5232         
C5-H16=1.0916        C5-H17=1.0916        C6-C5=1.5232         C6-H18=1.0871        C6-H19=1.0860        C6-H20=1.0871        
H7-N1=1.0276         H8-N1=1.0288         H9-N1=1.0288         H10-C2=1.0907        H11-C2=1.0907        H12-C3=1.0918        
H13-C3=1.0918        H14-C4=1.0910        H15-C4=1.0910        H16-C5=1.0916        H17-C5=1.0916        H18-C6=1.0871        
H19-C6=1.0860        H20-C6=1.0871        
 C  H  Rav=1.0900 sigma=0.0021  Rmin=1.0860  Rmax=1.0918    11
 C  C  Rav=1.5261 sigma=0.0042  Rmin=1.5210  Rmax=1.5316     4
 N  H  Rav=1.0284 sigma=0.0005  Rmin=1.0276  Rmax=1.0288     3
 N  C  Rav=1.4993 sigma=0.0000  Rmin=1.4993  Rmax=1.4993     1

 selected bond angles (degree)
 --------------------
H7-N1-C2=111.60                H8-N1-C2=109.64                H8-N1-H7=108.90                H9-N1-C2=109.64                
H9-N1-H7=108.90                H9-N1-H8=108.08                C3-C2-N1=110.55                H10-C2-N1=108.39               
H10-C2-C3=110.39               H11-C2-N1=108.39               H11-C2-C3=110.40               H11-C2-H10=108.65              
C4-C3-C2=110.82                H12-C3-C2=110.07               H12-C3-C4=108.77               H13-C3-C2=110.06               
H13-C3-C4=108.76               H13-C3-H12=108.30              C5-C4-C3=111.58                H14-C4-C3=109.50               
H14-C4-C5=109.16               H15-C4-C3=109.50               H15-C4-C5=109.16               H15-C4-H14=107.85              
C6-C5-C4=111.35                H16-C5-C4=109.41               H16-C5-C6=109.38               H17-C5-C4=109.41               
H17-C5-C6=109.38               H17-C5-H16=107.84              H18-C6-C5=110.69               H19-C6-C5=110.23               
H19-C6-H18=108.34              H20-C6-C5=110.69               H20-C6-H18=108.47              H20-C6-H19=108.34              

 selected dihedral angles (degree)
 ---------------------------------
C3-C2-N1-H7=179.99            C3-C2-N1-H8= 59.25            C3-C2-N1-H9=300.74            H10-C2-N1-H7= 58.87           
H10-C2-N1-H8=298.13           H10-C2-N1-H9=179.62           H11-C2-N1-H7=301.12           H11-C2-N1-H8=180.37           
H11-C2-N1-H9= 61.87           C4-C3-C2-N1=180.04            C4-C3-C2-H10=299.96           C4-C3-C2-H11= 60.11           
H12-C3-C2-N1= 59.68           H12-C3-C2-H10=179.60          H12-C3-C2-H11=299.76          H13-C3-C2-N1=300.39           
H13-C3-C2-H10= 60.31          H13-C3-C2-H11=180.46          C5-C4-C3-C2=179.96            C5-C4-C3-H12=301.09           
C5-C4-C3-H13= 58.84           H14-C4-C3-C2= 59.00           H14-C4-C3-H12=180.12          H14-C4-C3-H13=297.88          
H15-C4-C3-C2=300.93           H15-C4-C3-H12= 62.06          H15-C4-C3-H13=179.82          C6-C5-C4-C3=180.03            
C6-C5-C4-H14=301.19           C6-C5-C4-H15= 58.86           H16-C5-C4-C3= 58.99           H16-C5-C4-H14=180.16          
H16-C5-C4-H15=297.82          H17-C5-C4-C3=301.06           H17-C5-C4-H14= 62.22          H17-C5-C4-H15=179.89          
H18-C6-C5-C4=299.84           H18-C6-C5-H16= 60.89          H18-C6-C5-H17=178.79          H19-C6-C5-C4=179.99           
H19-C6-C5-H16=301.04          H19-C6-C5-H17= 58.94          H20-C6-C5-C4= 60.14           H20-C6-C5-H16=181.19          
H20-C6-C5-H17=299.09          
           -------------------------------------------------
          |                Final Singlepoint                |
           -------------------------------------------------

          ...................................................
          :                      SETUP                      :
          :.................................................:
          :  # basis functions                  38          :
          :  # atomic orbitals                  38          :
          :  # shells                           26          :
          :  # electrons                        38          :
          :  max. iterations                   250          :
          :  Hamiltonian                  GFN2-xTB          :
          :  restarted?                      false          :
          :  GBSA solvation                  false          :
          :  PC potential                    false          :
          :  electronic temp.          300.0000000     K    :
          :  accuracy                    1.0000000          :
          :  -> integral cutoff          0.2500000E+02      :
          :  -> integral neglect         0.1000000E-07      :
          :  -> SCF convergence          0.1000000E-05 Eh   :
          :  -> wf. convergence          0.1000000E-03 e    :
          :  Broyden damping             0.4000000          :
          ...................................................

 iter      E             dE          RMSdq      gap      omega  full diag
   1    -20.6305626 -0.206306E+02  0.873E-05    7.11       0.0  T
   2    -20.6305626 -0.429523E-11  0.488E-05    7.11     458.6  T
   3    -20.6305626 -0.163425E-12  0.987E-06    7.11    2265.1  T

   *** convergence criteria satisfied after 3 iterations ***

         #    Occupation            Energy/Eh            Energy/eV
      -------------------------------------------------------------
         1        2.0000           -0.8983372             -24.4450
       ...           ...                  ...                  ...
        13        2.0000           -0.6190491             -16.8452
        14        2.0000           -0.6028052             -16.4032
        15        2.0000           -0.5851951             -15.9240
        16        2.0000           -0.5651358             -15.3781
        17        2.0000           -0.5536995             -15.0669
        18        2.0000           -0.5374868             -14.6258
        19        2.0000           -0.5293924             -14.4055 (HOMO)
        20                         -0.2682802              -7.3003 (LUMO)
        21                         -0.1648278              -4.4852
        22                         -0.1058779              -2.8811
        23                         -0.1044785              -2.8430
        24                         -0.0606900              -1.6515
       ...                                ...                  ...
        38                          0.1990962               5.4177
      -------------------------------------------------------------
                  HL-Gap            0.2611122 Eh            7.1052 eV
             Fermi-level           -0.3988363 Eh          -10.8529 eV

 SCC (total)                   0 d,  0 h,  0 min,  0.005 sec
 SCC setup                      ...        0 min,  0.000 sec (  2.473%)
 Dispersion                     ...        0 min,  0.000 sec (  2.733%)
 classical contributions        ...        0 min,  0.000 sec (  0.688%)
 integral evaluation            ...        0 min,  0.000 sec (  8.883%)
 iterations                     ...        0 min,  0.003 sec ( 55.233%)
 molecular gradient             ...        0 min,  0.001 sec ( 23.678%)
 printout                       ...        0 min,  0.000 sec (  2.300%)

         :::::::::::::::::::::::::::::::::::::::::::::::::::::
         ::                     SUMMARY                     ::
         :::::::::::::::::::::::::::::::::::::::::::::::::::::
         :: total energy             -20.333218296271 Eh    ::
         :: gradient norm              0.000420355083 Eh/a0 ::
         :: HOMO-LUMO gap              7.105224794307 eV    ::
         ::.................................................::
         :: SCC energy               -20.630562560980 Eh    ::
         :: -> isotropic ES            0.110339999371 Eh    ::
         :: -> anisotropic ES         -0.007988466074 Eh    ::
         :: -> anisotropic XC          0.014975072682 Eh    ::
         :: -> dispersion             -0.009241702440 Eh    ::
         :: repulsion energy           0.297365478680 Eh    ::
         :: add. restraining           0.000000000000 Eh    ::
         :: total charge               1.000000000000 e     ::
         :::::::::::::::::::::::::::::::::::::::::::::::::::::

           -------------------------------------------------
          |                Property Printout                |
           -------------------------------------------------

    * Orbital Energies and Occupations

         #    Occupation            Energy/Eh            Energy/eV
      -------------------------------------------------------------
         1        2.0000           -0.8983372             -24.4450
       ...           ...                  ...                  ...
         7        2.0000           -0.7258694             -19.7519
         8        2.0000           -0.6954862             -18.9251
         9        2.0000           -0.6900726             -18.7778
        10        2.0000           -0.6687183             -18.1967
        11        2.0000           -0.6468571             -17.6019
        12        2.0000           -0.6381922             -17.3661
        13        2.0000           -0.6190491             -16.8452
        14        2.0000           -0.6028052             -16.4032
        15        2.0000           -0.5851951             -15.9240
        16        2.0000           -0.5651358             -15.3781
        17        2.0000           -0.5536995             -15.0669
        18        2.0000           -0.5374868             -14.6258
        19        2.0000           -0.5293924             -14.4055 (HOMO)
        20                         -0.2682802              -7.3003 (LUMO)
        21                         -0.1648278              -4.4852
        22                         -0.1058779              -2.8811
        23                         -0.1044785              -2.8430
        24                         -0.0606900              -1.6515
        25                         -0.0367114              -0.9990
        26                         -0.0183021              -0.4980
        27                         -0.0043981              -0.1197
        28                          0.0162204               0.4414
        29                          0.0375683               1.0223
        30                          0.0392536               1.0681
       ...                                ...                  ...
        38                          0.1990962               5.4177
      -------------------------------------------------------------
                  HL-Gap            0.2611122 Eh            7.1052 eV
             Fermi-level           -0.3988363 Eh          -10.8529 eV

     #   Z          covCN         q      C6AA      α(0)
     1   7 N        3.482    -0.128    23.766     7.241
     2   6 C        3.731    -0.034    21.271     6.583
     3   6 C        3.803    -0.081    22.046     6.685
     4   6 C        3.804    -0.068    21.792     6.646
     5   6 C        3.801    -0.058    21.615     6.619
     6   6 C        3.753    -0.112    22.707     6.795
     7   1 H        0.859     0.270     0.810     1.410
     8   1 H        0.859     0.272     0.801     1.402
     9   1 H        0.859     0.272     0.801     1.402
    10   1 H        0.924     0.107     1.723     2.053
    11   1 H        0.924     0.107     1.723     2.053
    12   1 H        0.924     0.062     2.181     2.309
    13   1 H        0.924     0.062     2.181     2.309
    14   1 H        0.924     0.051     2.305     2.374
    15   1 H        0.924     0.051     2.304     2.374
    16   1 H        0.924     0.041     2.431     2.438
    17   1 H        0.924     0.041     2.431     2.438
    18   1 H        0.925     0.045     2.385     2.415
    19   1 H        0.925     0.054     2.272     2.357
    20   1 H        0.925     0.045     2.385     2.415

 Mol. C6AA /au·bohr⁶  :       2228.879640
 Mol. C8AA /au·bohr⁸  :      46017.366774
 Mol. α(0) /au        :         70.320643


Wiberg/Mayer (AO) data.
largest (>0.10) Wiberg bond orders for each atom

 ---------------------------------------------------------------------------
     #   Z sym  total        # sym  WBO       # sym  WBO       # sym  WBO
 ---------------------------------------------------------------------------
     1   7 N    3.675 --     2 C    0.919     7 H    0.913     9 H    0.910
                             8 H    0.910
     2   6 C    3.884 --     3 C    1.008    11 H    0.967    10 H    0.967
                             1 N    0.919
     3   6 C    3.979 --     2 C    1.008     4 C    0.994    12 H    0.972
                            13 H    0.972
     4   6 C    3.987 --     5 C    1.004     3 C    0.994    15 H    0.976
                            14 H    0.976
     5   6 C    3.994 --     6 C    1.019     4 C    1.004    16 H    0.978
                            17 H    0.978
     6   6 C    3.992 --     5 C    1.019    18 H    0.987    20 H    0.987
                            19 H    0.985
     7   1 H    0.927 --     1 N    0.913
     8   1 H    0.926 --     1 N    0.910
     9   1 H    0.926 --     1 N    0.910
    10   1 H    0.989 --     2 C    0.967
    11   1 H    0.989 --     2 C    0.967
    12   1 H    0.996 --     3 C    0.972
    13   1 H    0.996 --     3 C    0.972
    14   1 H    0.997 --     4 C    0.976
    15   1 H    0.997 --     4 C    0.976
    16   1 H    0.998 --     5 C    0.978
    17   1 H    0.998 --     5 C    0.978
    18   1 H    0.998 --     6 C    0.987
    19   1 H    0.997 --     6 C    0.985
    20   1 H    0.998 --     6 C    0.987
 ---------------------------------------------------------------------------

Topologies differ in total number of bonds
Writing topology from bond orders to xtbtopo.mol

molecular dipole:
                 x           y           z       tot (Debye)
 q only:        2.748       0.484       0.288
   full:        2.408       0.391       0.229       6.227
molecular quadrupole (traceless):
                xx          xy          yy          xz          yz          zz
 q only:       13.769       6.321      -6.011       3.942       1.833      -7.758
  q+dip:        8.667       4.354      -4.107       2.699       0.460      -4.560
   full:        9.835       4.672      -4.462       2.902       0.947      -5.372

           -------------------------------------------------
          |                Geometry Summary                 |
           -------------------------------------------------

      molecular mass/u    :       88.1715532
   center of mass at/Å    :        3.6283793       1.2585533       0.7904823
  moments of inertia/u·Å² :        0.3475213E+02   0.4499893E+03   0.4662128E+03
rotational constants/cm⁻¹ :        0.4850820E+00   0.3746229E-01   0.3615866E-01

 * 19 selected distances

     #   Z          #   Z                                           value/Å
     1   7 N        2   6 C                                       1.4993078
     2   6 C        3   6 C                                       1.5210075
     3   6 C        4   6 C                                       1.5316307 (max)
     4   6 C        5   6 C                                       1.5285148
     5   6 C        6   6 C                                       1.5231836
     1   7 N        7   1 H                                       1.0276337 (min)
     1   7 N        8   1 H                                       1.0287782
     1   7 N        9   1 H                                       1.0287782
     2   6 C       10   1 H                                       1.0907448
     2   6 C       11   1 H                                       1.0907436
     3   6 C       12   1 H                                       1.0917754
     3   6 C       13   1 H                                       1.0917814
     4   6 C       14   1 H                                       1.0910133
     4   6 C       15   1 H                                       1.0910082
     5   6 C       16   1 H                                       1.0915852
     5   6 C       17   1 H                                       1.0915876
     6   6 C       18   1 H                                       1.0871122
     6   6 C       19   1 H                                       1.0859652
     6   6 C       20   1 H                                       1.0871146

 * 4 distinct bonds (by element types)

   Z      Z             #   av. dist./Å        max./Å        min./Å
   1 H    6 C          11     1.0900392     1.0917814     1.0859652
   6 C    6 C           4     1.5260841     1.5316307     1.5210075
   1 H    7 N           3     1.0283967     1.0287782     1.0276337
   6 C    7 N           1     1.4993078     1.4993078     1.4993078


optimized geometry written to: xtbopt.xyz


           -------------------------------------------------
          | TOTAL ENERGY              -20.333218296271 Eh   |
          | GRADIENT NORM               0.000420355083 Eh/α |
          | HOMO-LUMO GAP               7.105224794307 eV   |
           -------------------------------------------------

------------------------------------------------------------------------
 * finished run on 2023/01/23 at 14:15:12.605     
------------------------------------------------------------------------
 total:
 * wall-time:     0 d,  0 h,  0 min,  0.096 sec
 *  cpu-time:     0 d,  0 h,  0 min, 13.439 sec
 * ratio c/w:   140.210 speedup
 SCF:
 * wall-time:     0 d,  0 h,  0 min,  0.014 sec
 *  cpu-time:     0 d,  0 h,  0 min,  1.989 sec
 * ratio c/w:   141.880 speedup
 ANC optimizer:
 * wall-time:     0 d,  0 h,  0 min,  0.053 sec
 *  cpu-time:     0 d,  0 h,  0 min,  7.589 sec
 * ratio c/w:   142.141 speedup

