26
 energy: -32.796113472661 gnorm: 0.000514262749 xtb: 6.5.1 (fef0646)
N            2.80079221143004       -1.30269261191350       -1.61443933531375
C            2.36695652918221        0.04901219967491       -2.01972794311190
C            3.03118175848255        1.07623474377579       -1.10929759701823
C            4.54073085838898        0.99679675398359       -1.12598307996249
C            5.24897644732605        0.94550316054039       -2.24727901274001
C            6.74130211137644        0.82289554873614       -2.29518516823198
C            7.30654695961828        0.35928260047716       -0.95578446983706
C            6.69269769446911        1.18690597540537        0.16730995296662
C            5.18630747796487        0.94900950828383        0.22982777305554
Cl           2.33029456743176       -1.82027071997131        1.36792283153450
H            2.34417618088890       -2.03526407341651       -2.16018118088121
H            2.58512202380115       -1.46686448765788       -0.59752151303704
H            3.81789631389072       -1.37348404777017       -1.71033861970547
H            1.28547338181309        0.12038562642195       -1.91483953581560
H            2.64152890834379        0.21649057378743       -3.06088414653963
H            2.68595633846309        0.89840995866316       -0.08960123582462
H            2.71029489294666        2.07694689234230       -1.40205332423199
H            4.76287489874517        1.01559396120329       -3.21017251114566
H            7.17036371661407        1.79594888119138       -2.55702717639705
H            7.02767489145531        0.12586068558982       -3.08664905407367
H            8.39352707328777        0.46019214071547       -0.95149565899703
H            7.06730468235429       -0.69379037788714       -0.79403691023830
H            6.88554901943380        2.24526455068892       -0.02232526850636
H            7.14847156637991        0.93017259767465        1.12583658683383
H            4.72046925123633        1.69921783057414        0.87475103592761
H            4.97247024467848       -0.02422787111368        0.68681456129006
