      -----------------------------------------------------------      
     |                   =====================                   |     
     |                           x T B                           |     
     |                   =====================                   |     
     |                         S. Grimme                         |     
     |          Mulliken Center for Theoretical Chemistry        |     
     |                    University of Bonn                     |     
      -----------------------------------------------------------      

   * xtb version 6.5.1 (fef0646) compiled by 'conda@b96dff2e9fd6' on 2023-01-04

   xtb is free software: you can redistribute it and/or modify it under
   the terms of the GNU Lesser General Public License as published by
   the Free Software Foundation, either version 3 of the License, or
   (at your option) any later version.
   
   xtb is distributed in the hope that it will be useful,
   but WITHOUT ANY WARRANTY; without even the implied warranty of
   MERCHANTABILITY or FITNESS FOR A PARTICULAR PURPOSE.  See the
   GNU Lesser General Public License for more details.
   
   Cite this work as:
   * C. Bannwarth, E. Caldeweyher, S. Ehlert, A. Hansen, P. Pracht,
     J. Seibert, S. Spicher, S. Grimme, WIREs Comput. Mol. Sci., 2020, 11,
     e01493. DOI: 10.1002/wcms.1493
   
   for GFN2-xTB:
   * C. Bannwarth, S. Ehlert and S. Grimme., J. Chem. Theory Comput., 2019,
     15, 1652-1671. DOI: 10.1021/acs.jctc.8b01176
   for GFN1-xTB:
   * S. Grimme, C. Bannwarth, P. Shushkov, J. Chem. Theory Comput., 2017,
     13, 1989-2009. DOI: 10.1021/acs.jctc.7b00118
   for GFN0-xTB:
   * P. Pracht, E. Caldeweyher, S. Ehlert, S. Grimme, ChemRxiv, 2019, preprint.
     DOI: 10.26434/chemrxiv.8326202.v1
   for GFN-FF:
   * S. Spicher and S. Grimme, Angew. Chem. Int. Ed., 2020, 59, 15665-15673.
     DOI: 10.1002/anie.202004239
   
   for ALPB and GBSA implicit solvation:
   * S. Ehlert, M. Stahn, S. Spicher, S. Grimme, J. Chem. Theory Comput.,
     2021, 17, 4250-4261. DOI: 10.1021/acs.jctc.1c00471
   
   for DFT-D4:
   * E. Caldeweyher, C. Bannwarth and S. Grimme, J. Chem. Phys., 2017,
     147, 034112. DOI: 10.1063/1.4993215
   * E. Caldeweyher, S. Ehlert, A. Hansen, H. Neugebauer, S. Spicher,
     C. Bannwarth and S. Grimme, J. Chem. Phys., 2019, 150, 154122.
     DOI: 10.1063/1.5090222
   * E. Caldeweyher, J.-M. Mewes, S. Ehlert and S. Grimme, Phys. Chem. Chem. Phys.
     2020, 22, 8499-8512. DOI: 10.1039/D0CP00502A
   
   for sTDA-xTB:
   * S. Grimme and C. Bannwarth, J. Chem. Phys., 2016, 145, 054103.
     DOI: 10.1063/1.4959605
   
   in the mass-spec context:
   * V. Asgeirsson, C. Bauer and S. Grimme, Chem. Sci., 2017, 8, 4879.
     DOI: 10.1039/c7sc00601b
   * J. Koopman and S. Grimme, ACS Omega 2019, 4, 12, 15120-15133.
     DOI: 10.1021/acsomega.9b02011
   
   for metadynamics refer to:
   * S. Grimme, J. Chem. Theory Comput., 2019, 155, 2847-2862
     DOI: 10.1021/acs.jctc.9b00143
   
   for SPH calculations refer to:
   * S. Spicher and S. Grimme, J. Chem. Theory Comput., 2021, 17, 1701-1714
     DOI: 10.1021/acs.jctc.0c01306
   
   with help from (in alphabetical order)
   P. Atkinson, C. Bannwarth, F. Bohle, G. Brandenburg, E. Caldeweyher
   M. Checinski, S. Dohm, S. Ehlert, S. Ehrlich, I. Gerasimov, C. Hölzer
   A. Katbashev, J. Koopman, C. Lavigne, S. Lehtola, F. März, M. Müller,
   F. Musil, H. Neugebauer, J. Pisarek, C. Plett, P. Pracht, F. Pultar,
   J. Seibert, P. Shushkov, S. Spicher, M. Stahn, M. Steiner, T. Strunk,
   J. Stückrath, T. Rose, and J. Unsleber
   
 * started run on 2023/01/23 at 18:37:52.534     

           -------------------------------------------------
          |                Calculation Setup                |
           -------------------------------------------------

          program call               : xtb init.xyz --opt -c 1 -u 0 -P 16 --input xtb.inp
          hostname                   : gpg-woodward
          coordinate file            : init.xyz
          omp threads                :                    16

   ID    Z sym.   atoms
    1    7 N      1
    2    6 C      2-10
    3    1 H      11-22

           -------------------------------------------------
          |                 G F N 2 - x T B                 |
           -------------------------------------------------

        Reference                      10.1021/acs.jctc.8b01176
      * Hamiltonian:
        H0-scaling (s, p, d)           1.850000    2.230000    2.230000
        zeta-weighting                 0.500000
      * Dispersion:
        s8                             2.700000
        a1                             0.520000
        a2                             5.000000
        s9                             5.000000
      * Repulsion:
        kExp                           1.500000    1.000000
        rExp                           1.000000
      * Coulomb:
        alpha                          2.000000
        third order                    shell-resolved
        anisotropic                    true
        a3                             3.000000
        a5                             4.000000
        cn-shift                       1.200000
        cn-exp                         4.000000
        max-rad                        5.000000


          ...................................................
          :                      SETUP                      :
          :.................................................:
          :  # basis functions                  52          :
          :  # atomic orbitals                  52          :
          :  # shells                           32          :
          :  # electrons                        52          :
          :  max. iterations                   250          :
          :  Hamiltonian                  GFN2-xTB          :
          :  restarted?                      false          :
          :  GBSA solvation                  false          :
          :  PC potential                    false          :
          :  electronic temp.          300.0000000     K    :
          :  accuracy                    1.0000000          :
          :  -> integral cutoff          0.2500000E+02      :
          :  -> integral neglect         0.1000000E-07      :
          :  -> SCF convergence          0.1000000E-05 Eh   :
          :  -> wf. convergence          0.1000000E-03 e    :
          :  Broyden damping             0.4000000          :
          ...................................................

 iter      E             dE          RMSdq      gap      omega  full diag
   1    -28.1954427 -0.281954E+02  0.449E+00    3.67       0.0  T
   2    -28.3086545 -0.113212E+00  0.263E+00    3.47       1.0  T
   3    -28.3067378  0.191668E-02  0.143E+00    3.33       1.0  T
   4    -28.3048903  0.184754E-02  0.944E-01    3.25       1.0  T
   5    -28.3165800 -0.116897E-01  0.124E-01    3.23       1.0  T
   6    -28.3165640  0.159796E-04  0.660E-02    3.24       1.0  T
   7    -28.3166269 -0.629287E-04  0.177E-02    3.24       1.2  T
   8    -28.3166306 -0.370068E-05  0.624E-03    3.25       3.4  T
   9    -28.3166308 -0.188820E-06  0.300E-03    3.25       7.1  T
  10    -28.3166308 -0.461782E-07  0.111E-03    3.25      19.2  T
  11    -28.3166309 -0.559119E-08  0.370E-04    3.25      57.6  T
  12    -28.3166309 -0.258229E-09  0.205E-04    3.25     104.1  T

   *** convergence criteria satisfied after 12 iterations ***

         #    Occupation            Energy/Eh            Energy/eV
      -------------------------------------------------------------
         1        2.0000           -0.8941182             -24.3302
       ...           ...                  ...                  ...
        20        2.0000           -0.5729525             -15.5908
        21        2.0000           -0.5707439             -15.5307
        22        2.0000           -0.5535808             -15.0637
        23        2.0000           -0.5238322             -14.2542
        24        2.0000           -0.5190341             -14.1236
        25        2.0000           -0.5009058             -13.6303
        26        2.0000           -0.4986201             -13.5681 (HOMO)
        27                         -0.3793436             -10.3225 (LUMO)
        28                         -0.3243632              -8.8264
        29                         -0.3012494              -8.1974
        30                         -0.2360429              -6.4231
        31                         -0.1912402              -5.2039
       ...                                ...                  ...
        52                          0.5407485              14.7145
      -------------------------------------------------------------
                  HL-Gap            0.1192765 Eh            3.2457 eV
             Fermi-level           -0.4389819 Eh          -11.9453 eV

 SCC (total)                   0 d,  0 h,  0 min,  0.059 sec
 SCC setup                      ...        0 min,  0.000 sec (  0.764%)
 Dispersion                     ...        0 min,  0.001 sec (  1.475%)
 classical contributions        ...        0 min,  0.000 sec (  0.651%)
 integral evaluation            ...        0 min,  0.003 sec (  4.968%)
 iterations                     ...        0 min,  0.049 sec ( 83.221%)
 molecular gradient             ...        0 min,  0.005 sec (  8.322%)
 printout                       ...        0 min,  0.000 sec (  0.330%)

         :::::::::::::::::::::::::::::::::::::::::::::::::::::
         ::                     SUMMARY                     ::
         :::::::::::::::::::::::::::::::::::::::::::::::::::::
         :: total energy             -27.831320258786 Eh    ::
         :: gradient norm              0.040526299336 Eh/a0 ::
         :: HOMO-LUMO gap              3.245678449529 eV    ::
         ::.................................................::
         :: SCC energy               -28.316630854494 Eh    ::
         :: -> isotropic ES            0.104086602662 Eh    ::
         :: -> anisotropic ES         -0.009573092841 Eh    ::
         :: -> anisotropic XC          0.022682436013 Eh    ::
         :: -> dispersion             -0.015469315470 Eh    ::
         :: repulsion energy           0.485361600733 Eh    ::
         :: add. restraining           0.000000000000 Eh    ::
         :: total charge               1.000000000000 e     ::
         :::::::::::::::::::::::::::::::::::::::::::::::::::::

      ----------------------------------------------------------- 
     |                   =====================                   |
     |                        A N C O P T                        |
     |                   =====================                   |
     |               Approximate Normal Coordinate               |
     |                Rational Function Optimizer                |
      ----------------------------------------------------------- 

          ...................................................
          :                      SETUP                      :
          :.................................................:
          :   optimization level            normal          :
          :   max. optcycles                   200          :
          :   ANC micro-cycles                  20          :
          :   degrees of freedom                60          :
          :.................................................:
          :   RF solver                   davidson          :
          :   write xtbopt.log                true          :
          :   linear?                        false          :
          :   energy convergence         0.5000000E-05 Eh   :
          :   grad. convergence          0.1000000E-02 Eh/α :
          :   maximium RF displ.         1.0000000          :
          :   Hlow (freq-cutoff)         0.1000000E-01      :
          :   Hmax (freq-cutoff)         5.0000000          :
          :   S6 in model hess.         20.0000000          :
          ...................................................

generating ANC from model Hessian ...
Using Lindh-Hessian (1995)
 Shifting diagonal of input Hessian by    8.8243496240678777E-003
 Lowest  eigenvalues of input Hessian
    0.000000    0.000000    0.000000    0.000000    0.000000    0.000000
    0.010000    0.010369    0.011845    0.015021    0.017901    0.021404
    0.022968    0.026088    0.029229    0.031859    0.033187    0.042162
 Highest eigenvalues
    1.525478    1.588724    1.826906    1.867038    1.942409    1.992233


........................................................................
.............................. CYCLE    1 ..............................
........................................................................
   1    -28.3166309 -0.283166E+02  0.702E-05    3.25       0.0  T
   2    -28.3166309 -0.183213E-10  0.455E-05    3.25     468.2  T
   3    -28.3166309 -0.215472E-10  0.281E-05    3.25     758.2  T
     SCC iter.                  ...        0 min,  0.013 sec
     gradient                   ...        0 min,  0.005 sec
 * total energy  :   -27.8313203 Eh     change       -0.3925713E-09 Eh
   gradient norm :     0.0405264 Eh/α   predicted     0.0000000E+00 (-100.00%)
   displ. norm   :     0.1796764 α      lambda       -0.3801802E-02
   maximum displ.:     0.0777321 α      in ANC's #17, #9, #10, ...

........................................................................
.............................. CYCLE    2 ..............................
........................................................................
   1    -28.3363563 -0.283364E+02  0.147E-01    3.26       0.0  T
   2    -28.3363673 -0.110445E-04  0.897E-02    3.27       1.0  T
   3    -28.3363385  0.288871E-04  0.422E-02    3.27       1.0  T
   4    -28.3363719 -0.334630E-04  0.790E-03    3.27       2.7  T
   5    -28.3363726 -0.664607E-06  0.236E-03    3.27       9.0  T
   6    -28.3363726 -0.335232E-08  0.804E-04    3.27      26.5  T
   7    -28.3363726 -0.673377E-08  0.251E-04    3.27      84.9  T
     SCC iter.                  ...        0 min,  0.013 sec
     gradient                   ...        0 min,  0.003 sec
 * total energy  :   -27.8337680 Eh     change       -0.2447753E-02 Eh
   gradient norm :     0.0171217 Eh/α   predicted    -0.1962382E-02 ( -19.83%)
   displ. norm   :     0.1454458 α      lambda       -0.7739532E-03
   maximum displ.:     0.0723824 α      in ANC's #1, #5, #10, ...

........................................................................
.............................. CYCLE    3 ..............................
........................................................................
   1    -28.3432421 -0.283432E+02  0.830E-02    3.25       0.0  T
   2    -28.3432486 -0.653827E-05  0.504E-02    3.25       1.0  T
   3    -28.3432397  0.895907E-05  0.310E-02    3.25       1.0  T
   4    -28.3432524 -0.127369E-04  0.553E-03    3.25       3.9  T
   5    -28.3432527 -0.287385E-06  0.179E-03    3.25      11.9  T
   6    -28.3432527 -0.152911E-07  0.105E-03    3.25      20.4  T
   7    -28.3432527 -0.114890E-07  0.232E-04    3.25      92.1  T
   8    -28.3432527 -0.452179E-09  0.102E-04    3.25     209.6  T
     SCC iter.                  ...        0 min,  0.017 sec
     gradient                   ...        0 min,  0.003 sec
 * total energy  :   -27.8342591 Eh     change       -0.4911131E-03 Eh
   gradient norm :     0.0073241 Eh/α   predicted    -0.3952649E-03 ( -19.52%)
   displ. norm   :     0.1397582 α      lambda       -0.2481499E-03
   maximum displ.:     0.0861121 α      in ANC's #1, #5, #4, ...

........................................................................
.............................. CYCLE    4 ..............................
........................................................................
   1    -28.3435917 -0.283436E+02  0.763E-02    3.22       0.0  T
   2    -28.3435951 -0.341998E-05  0.444E-02    3.23       1.0  T
   3    -28.3435885  0.663961E-05  0.245E-02    3.22       1.0  T
   4    -28.3435968 -0.832823E-05  0.362E-03    3.23       5.9  T
   5    -28.3435970 -0.135912E-06  0.141E-03    3.23      15.1  T
   6    -28.3435970 -0.290706E-07  0.713E-04    3.23      29.9  T
   7    -28.3435970 -0.340953E-08  0.203E-04    3.23     104.9  T
     SCC iter.                  ...        0 min,  0.015 sec
     gradient                   ...        0 min,  0.003 sec
 * total energy  :   -27.8344435 Eh     change       -0.1844109E-03 Eh
   gradient norm :     0.0040048 Eh/α   predicted    -0.1265145E-03 ( -31.40%)
   displ. norm   :     0.2014074 α      lambda       -0.2185476E-03
   maximum displ.:     0.1201540 α      in ANC's #1, #5, #3, ...

........................................................................
.............................. CYCLE    5 ..............................
........................................................................
   1    -28.3420365 -0.283420E+02  0.110E-01    3.18       0.0  T
   2    -28.3420406 -0.413486E-05  0.645E-02    3.19       1.0  T
   3    -28.3420309  0.969813E-05  0.268E-02    3.19       1.0  T
   4    -28.3420423 -0.114035E-04  0.385E-03    3.19       5.5  T
   5    -28.3420425 -0.158069E-06  0.159E-03    3.19      13.4  T
   6    -28.3420425 -0.377988E-07  0.779E-04    3.19      27.4  T
   7    -28.3420425 -0.419849E-08  0.238E-04    3.19      89.7  T
     SCC iter.                  ...        0 min,  0.015 sec
     gradient                   ...        0 min,  0.003 sec
 * total energy  :   -27.8346008 Eh     change       -0.1572801E-03 Eh
   gradient norm :     0.0047008 Eh/α   predicted    -0.1137065E-03 ( -27.70%)
   displ. norm   :     0.2088698 α      lambda       -0.1559446E-03
   maximum displ.:     0.1202972 α      in ANC's #1, #5, #3, ...

........................................................................
.............................. CYCLE    6 ..............................
........................................................................
   1    -28.3404857 -0.283405E+02  0.115E-01    3.16       0.0  T
   2    -28.3404880 -0.222289E-05  0.676E-02    3.17       1.0  T
   3    -28.3404832  0.477194E-05  0.171E-02    3.16       1.2  T
   4    -28.3404888 -0.561158E-05  0.244E-03    3.17       8.8  T
   5    -28.3404888 -0.452484E-07  0.109E-03    3.17      19.5  T
   6    -28.3404888 -0.927932E-08  0.640E-04    3.17      33.3  T
   7    -28.3404888 -0.409290E-08  0.176E-04    3.17     121.2  T
     SCC iter.                  ...        0 min,  0.015 sec
     gradient                   ...        0 min,  0.003 sec
 * total energy  :   -27.8347195 Eh     change       -0.1186363E-03 Eh
   gradient norm :     0.0062915 Eh/α   predicted    -0.8137590E-04 ( -31.41%)
   displ. norm   :     0.2451775 α      lambda       -0.1695302E-03
   maximum displ.:     0.1381793 α      in ANC's #1, #5, #3, ...

........................................................................
.............................. CYCLE    7 ..............................
........................................................................
   1    -28.3395064 -0.283395E+02  0.134E-01    3.14       0.0  T
   2    -28.3395080 -0.167570E-05  0.787E-02    3.15       1.0  T
   3    -28.3395039  0.410339E-05  0.142E-02    3.15       1.5  T
   4    -28.3395088 -0.485663E-05  0.196E-03    3.15      10.9  T
   5    -28.3395088 -0.297061E-07  0.113E-03    3.15      18.8  T
   6    -28.3395088 -0.458759E-08  0.563E-04    3.15      37.9  T
   7    -28.3395088 -0.351449E-08  0.122E-04    3.15     175.4  T
     SCC iter.                  ...        0 min,  0.015 sec
     gradient                   ...        0 min,  0.003 sec
 * total energy  :   -27.8348459 Eh     change       -0.1264822E-03 Eh
   gradient norm :     0.0065209 Eh/α   predicted    -0.8986826E-04 ( -28.95%)
   displ. norm   :     0.2361563 α      lambda       -0.1569756E-03
   maximum displ.:     0.1329936 α      in ANC's #1, #3, #5, ...

........................................................................
.............................. CYCLE    8 ..............................
........................................................................
   1    -28.3399604 -0.283400E+02  0.128E-01    3.15       0.0  T
   2    -28.3399616 -0.115083E-05  0.754E-02    3.15       1.0  T
   3    -28.3399554  0.616701E-05  0.177E-02    3.15       1.2  T
   4    -28.3399624 -0.697665E-05  0.212E-03    3.15      10.1  T
   5    -28.3399624 -0.412128E-07  0.112E-03    3.15      19.0  T
   6    -28.3399625 -0.561942E-08  0.487E-04    3.15      43.8  T
   7    -28.3399625 -0.148106E-08  0.883E-05    3.15     241.5  T
     SCC iter.                  ...        0 min,  0.015 sec
     gradient                   ...        0 min,  0.003 sec
 * total energy  :   -27.8349564 Eh     change       -0.1104970E-03 Eh
   gradient norm :     0.0046435 Eh/α   predicted    -0.8286501E-04 ( -25.01%)
   displ. norm   :     0.1619296 α      lambda       -0.8373993E-04
   maximum displ.:     0.0862849 α      in ANC's #1, #2, #4, ...

........................................................................
.............................. CYCLE    9 ..............................
........................................................................
   1    -28.3414605 -0.283415E+02  0.893E-02    3.15       0.0  T
   2    -28.3414613 -0.790908E-06  0.524E-02    3.16       1.0  T
   3    -28.3414583  0.302967E-05  0.128E-02    3.15       1.7  T
   4    -28.3414617 -0.341085E-05  0.177E-03    3.15      12.1  T
   5    -28.3414617 -0.395863E-07  0.743E-04    3.15      28.7  T
   6    -28.3414617 -0.241254E-08  0.395E-04    3.15      53.9  T
     SCC iter.                  ...        0 min,  0.013 sec
     gradient                   ...        0 min,  0.003 sec
 * total energy  :   -27.8350131 Eh     change       -0.5663502E-04 Eh
   gradient norm :     0.0023940 Eh/α   predicted    -0.4296829E-04 ( -24.13%)
   displ. norm   :     0.1454265 α      lambda       -0.3659103E-04
   maximum displ.:     0.0685275 α      in ANC's #1, #2, #5, ...

........................................................................
.............................. CYCLE   10 ..............................
........................................................................
   1    -28.3418010 -0.283418E+02  0.839E-02    3.15       0.0  T
   2    -28.3418016 -0.577082E-06  0.492E-02    3.15       1.0  T
   3    -28.3418007  0.874945E-06  0.660E-03    3.15       3.2  T
   4    -28.3418018 -0.106536E-05  0.134E-03    3.15      15.9  T
   5    -28.3418018 -0.209740E-07  0.664E-04    3.15      32.1  T
   6    -28.3418018 -0.100034E-08  0.374E-04    3.15      57.0  T
     SCC iter.                  ...        0 min,  0.013 sec
     gradient                   ...        0 min,  0.004 sec
 * total energy  :   -27.8350362 Eh     change       -0.2316456E-04 Eh
   gradient norm :     0.0018709 Eh/α   predicted    -0.1868316E-04 ( -19.35%)
   displ. norm   :     0.1169431 α      lambda       -0.2487100E-04
   maximum displ.:     0.0775568 α      in ANC's #2, #4, #5, ...

........................................................................
.............................. CYCLE   11 ..............................
........................................................................
   1    -28.3437038 -0.283437E+02  0.688E-02    3.15       0.0  T
   2    -28.3437046 -0.785886E-06  0.402E-02    3.16       1.0  T
   3    -28.3437032  0.142075E-05  0.841E-03    3.15       2.5  T
   4    -28.3437048 -0.161777E-05  0.173E-03    3.16      12.4  T
   5    -28.3437048 -0.497110E-07  0.603E-04    3.16      35.4  T
   6    -28.3437048 -0.248343E-08  0.346E-04    3.16      61.6  T
     SCC iter.                  ...        0 min,  0.013 sec
     gradient                   ...        0 min,  0.003 sec
 * total energy  :   -27.8350484 Eh     change       -0.1218370E-04 Eh
   gradient norm :     0.0025140 Eh/α   predicted    -0.1251125E-04 (   2.69%)
   displ. norm   :     0.0698709 α      lambda       -0.1701475E-04
   maximum displ.:     0.0416191 α      in ANC's #2, #5, #4, ...

........................................................................
.............................. CYCLE   12 ..............................
........................................................................
   1    -28.3427145 -0.283427E+02  0.429E-02    3.15       0.0  T
   2    -28.3427146 -0.154072E-06  0.252E-02    3.15       1.0  T
   3    -28.3427142  0.427924E-06  0.493E-03    3.15       4.3  T
   4    -28.3427147 -0.503208E-06  0.710E-04    3.15      30.0  T
   5    -28.3427147 -0.290875E-08  0.360E-04    3.15      59.2  T
     SCC iter.                  ...        0 min,  0.011 sec
     gradient                   ...        0 min,  0.003 sec
 * total energy  :   -27.8350600 Eh     change       -0.1155516E-04 Eh
   gradient norm :     0.0017511 Eh/α   predicted    -0.8556619E-05 ( -25.95%)
   displ. norm   :     0.0580314 α      lambda       -0.1516811E-04
   maximum displ.:     0.0408120 α      in ANC's #2, #1, #5, ...

........................................................................
.............................. CYCLE   13 ..............................
........................................................................
   1    -28.3420191 -0.283420E+02  0.336E-02    3.14       0.0  T
   2    -28.3420193 -0.149701E-06  0.196E-02    3.14       1.1  T
   3    -28.3420188  0.442868E-06  0.538E-03    3.14       4.0  T
   4    -28.3420193 -0.505872E-06  0.688E-04    3.14      31.0  T
   5    -28.3420193 -0.481013E-08  0.401E-04    3.14      53.2  T
     SCC iter.                  ...        0 min,  0.011 sec
     gradient                   ...        0 min,  0.003 sec
 * total energy  :   -27.8350667 Eh     change       -0.6713982E-05 Eh
   gradient norm :     0.0023539 Eh/α   predicted    -0.7596190E-05 (  13.14%)
   displ. norm   :     0.0278308 α      lambda       -0.1188448E-04
   maximum displ.:     0.0213644 α      in ANC's #2, #1, #3, ...

........................................................................
.............................. CYCLE   14 ..............................
........................................................................
   1    -28.3417531 -0.283418E+02  0.158E-02    3.14       0.0  T
   2    -28.3417531 -0.407705E-07  0.933E-03    3.14       2.3  T
   3    -28.3417530  0.989018E-07  0.237E-03    3.14       9.0  T
   4    -28.3417531 -0.112471E-06  0.510E-04    3.14      41.8  T
   5    -28.3417531 -0.274423E-08  0.169E-04    3.14     126.5  T
     SCC iter.                  ...        0 min,  0.011 sec
     gradient                   ...        0 min,  0.003 sec
 * total energy  :   -27.8350751 Eh     change       -0.8450341E-05 Eh
   gradient norm :     0.0011701 Eh/α   predicted    -0.5950907E-05 ( -29.58%)
   displ. norm   :     0.0575620 α      lambda       -0.9849680E-05
   maximum displ.:     0.0413194 α      in ANC's #2, #1, #3, ...

........................................................................
.............................. CYCLE   15 ..............................
........................................................................
   1    -28.3422441 -0.283422E+02  0.283E-02    3.14       0.0  T
   2    -28.3422442 -0.421310E-07  0.166E-02    3.14       1.3  T
   3    -28.3422441  0.569720E-07  0.173E-03    3.14      12.3  T
   4    -28.3422442 -0.758383E-07  0.442E-04    3.14      48.3  T
   5    -28.3422442 -0.749846E-09  0.235E-04    3.14      90.6  T
     SCC iter.                  ...        0 min,  0.011 sec
     gradient                   ...        0 min,  0.003 sec
 * total energy  :   -27.8350842 Eh     change       -0.9094487E-05 Eh
   gradient norm :     0.0012012 Eh/α   predicted    -0.4936434E-05 ( -45.72%)
   displ. norm   :     0.0649076 α      lambda       -0.6008969E-05
   maximum displ.:     0.0486281 α      in ANC's #2, #3, #1, ...

........................................................................
.............................. CYCLE   16 ..............................
........................................................................
   1    -28.3423473 -0.283423E+02  0.340E-02    3.14       0.0  T
   2    -28.3423473 -0.366354E-07  0.199E-02    3.14       1.1  T
   3    -28.3423473  0.188179E-07  0.132E-03    3.14      16.2  T
   4    -28.3423473 -0.349811E-07  0.338E-04    3.14      63.0  T
   5    -28.3423473 -0.274810E-09  0.166E-04    3.14     128.8  T
     SCC iter.                  ...        0 min,  0.011 sec
     gradient                   ...        0 min,  0.004 sec
 * total energy  :   -27.8350918 Eh     change       -0.7609758E-05 Eh
   gradient norm :     0.0011065 Eh/α   predicted    -0.3012465E-05 ( -60.41%)
   displ. norm   :     0.1361041 α      lambda       -0.1084134E-04
   maximum displ.:     0.1022227 α      in ANC's #2, #3, #1, ...

........................................................................
.............................. CYCLE   17 ..............................
........................................................................
   1    -28.3423617 -0.283424E+02  0.699E-02    3.14       0.0  T
   2    -28.3423619 -0.135959E-06  0.410E-02    3.14       1.0  T
   3    -28.3423618  0.353455E-07  0.220E-03    3.14       9.7  T
   4    -28.3423619 -0.101278E-06  0.719E-04    3.14      29.6  T
   5    -28.3423619 -0.692342E-09  0.243E-04    3.14      87.8  T
     SCC iter.                  ...        0 min,  0.011 sec
     gradient                   ...        0 min,  0.003 sec
 * total energy  :   -27.8351028 Eh     change       -0.1095468E-04 Eh
   gradient norm :     0.0011131 Eh/α   predicted    -0.5469862E-05 ( -50.07%)
   displ. norm   :     0.1136729 α      lambda       -0.6723592E-05
   maximum displ.:     0.0873846 α      in ANC's #2, #3, #1, ...

........................................................................
.............................. CYCLE   18 ..............................
........................................................................
   1    -28.3419252 -0.283419E+02  0.599E-02    3.13       0.0  T
   2    -28.3419254 -0.198923E-06  0.351E-02    3.13       1.0  T
   3    -28.3419251  0.369410E-06  0.484E-03    3.13       4.4  T
   4    -28.3419255 -0.452804E-06  0.812E-04    3.13      26.2  T
   5    -28.3419255 -0.453528E-08  0.412E-04    3.13      51.7  T
     SCC iter.                  ...        0 min,  0.011 sec
     gradient                   ...        0 min,  0.003 sec
 * total energy  :   -27.8351080 Eh     change       -0.5193993E-05 Eh
   gradient norm :     0.0011882 Eh/α   predicted    -0.3384621E-05 ( -34.84%)
   displ. norm   :     0.0423485 α      lambda       -0.3715209E-05
   maximum displ.:     0.0339309 α      in ANC's #2, #3, #1, ...

........................................................................
.............................. CYCLE   19 ..............................
........................................................................
   1    -28.3424026 -0.283424E+02  0.203E-02    3.14       0.0  T
   2    -28.3424026 -0.210665E-07  0.119E-02    3.14       1.8  T
   3    -28.3424026  0.442544E-09  0.661E-04    3.14      32.2  T
   4    -28.3424026 -0.752331E-08  0.280E-04    3.14      76.1  T
     SCC iter.                  ...        0 min,  0.009 sec
     gradient                   ...        0 min,  0.003 sec
 * total energy  :   -27.8351122 Eh     change       -0.4172577E-05 Eh
   gradient norm :     0.0005327 Eh/α   predicted    -0.1861865E-05 ( -55.38%)
   displ. norm   :     0.1030425 α      lambda       -0.5390436E-05
   maximum displ.:     0.0875651 α      in ANC's #2, #3, #1, ...

   *** GEOMETRY OPTIMIZATION CONVERGED AFTER 19 ITERATIONS ***

------------------------------------------------------------------------
 total energy gain   :        -0.0037919 Eh       -2.3795 kcal/mol
 total RMSD          :         0.3982053 a0        0.2107 Å
 total power (kW/mol):        -0.5239808 (step)  -26.6211 (real)
------------------------------------------------------------------------

 ANCopt (total)                0 d,  0 h,  0 min,  0.374 sec
 optimizer setup                ...        0 min,  0.000 sec (  0.025%)
 model hessian                  ...        0 min,  0.014 sec (  3.823%)
 ANC generation                 ...        0 min,  0.002 sec (  0.615%)
 coordinate transformation      ...        0 min,  0.000 sec (  0.076%)
 single point calculation       ...        0 min,  0.344 sec ( 92.072%)
 optimization log               ...        0 min,  0.006 sec (  1.491%)
 hessian update                 ...        0 min,  0.002 sec (  0.565%)
 rational function              ...        0 min,  0.003 sec (  0.859%)

================
 final structure:
================
22
 xtb: 6.5.1 (fef0646)
N            1.71817336961544        0.96020251375155       -0.71201034328834
C            2.59784872798735       -0.07445801727734       -0.02875873826892
C            3.05530366334886        0.44665998610671        1.28935832799667
C            4.30547255201597        0.87283190302845        1.50079480626616
C            4.86087450912851        1.38942406412983        2.73419013519787
C            4.16091941098308        1.39416816575374        3.94519771357569
C            4.74584264797996        1.89652153411376        5.08998847174059
C            6.03536240088818        2.40614478689378        5.05252956510973
C            6.74246270433197        2.40698728870210        3.86055051226491
C            6.16317425589881        1.90089376670886        2.71405323290723
H            1.39137735644880        0.63468525686059       -1.63004297232413
H            2.25063665370990        1.83171539417259       -0.83050228215785
H            0.90379359072589        1.16297273499911       -0.11794068593349
H            3.44270679051506       -0.27741726412966       -0.68768691817289
H            2.00095747780699       -0.98096707158124        0.08423166742188
H            2.31786159165634        0.45517930155641        2.07616905784807
H            5.00785633200950        0.83412990645426        0.67501666549823
H            3.16251160662373        0.98895578021287        3.99785913240776
H            4.19699432894782        1.88861434216265        6.01915564227342
H            6.48779064598646        2.79666847577751        5.95066534484255
H            7.74710840455655        2.79902541044286        3.82697205223676
H            6.72021097883447        1.90049174116040        1.78801961255808

 Bond Distances (Angstroems)
 ---------------------------
N1-C2=1.5203         N1-H11=1.0274        N1-H12=1.0281        N1-H13=1.0282        C2-N1=1.5203         C2-C3=1.4894         
C2-H14=1.0905        C2-H15=1.0912        C3-C2=1.4894         C3-C4=1.3376         C3-H16=1.0784        C4-C3=1.3376         
C4-C5=1.4480         C4-H17=1.0848        C5-C4=1.4480         C5-C6=1.3987         C5-C10=1.3993        C6-C5=1.3987         
C6-C7=1.3802         C6-H18=1.0788        C7-C6=1.3802         C7-C8=1.3871         C7-H19=1.0792        C8-C7=1.3871         
C8-C9=1.3859         C8-H20=1.0788        C9-C8=1.3859         C9-C10=1.3806        C9-H21=1.0790        C10-C5=1.3993        
C10-C9=1.3806        C10-H22=1.0807       H11-N1=1.0274        H12-N1=1.0281        H13-N1=1.0282        H14-C2=1.0905        
H15-C2=1.0912        H16-C3=1.0784        H17-C4=1.0848        H18-C6=1.0788        H19-C7=1.0792        H20-C8=1.0788        
H21-C9=1.0790        H22-C10=1.0807       
 C  H  Rav=1.0824 sigma=0.0049  Rmin=1.0784  Rmax=1.0912     9
 C  C  Rav=1.4008 sigma=0.0412  Rmin=1.3376  Rmax=1.4894     9
 N  H  Rav=1.0279 sigma=0.0004  Rmin=1.0274  Rmax=1.0282     3
 N  C  Rav=1.5203 sigma=0.0000  Rmin=1.5203  Rmax=1.5203     1

 selected bond angles (degree)
 --------------------
H11-N1-C2=111.72               H12-N1-C2=109.21               H12-N1-H11=109.29              H13-N1-C2=109.44               
H13-N1-H11=109.08              H13-N1-H12=108.04              C3-C2-N1=109.72                H14-C2-N1=107.66               
H14-C2-C3=111.22               H15-C2-N1=107.18               H15-C2-C3=111.53               H15-C2-H14=109.37              
C4-C3-C2=122.58                H16-C3-C2=116.00               H16-C3-C4=121.42               C5-C4-C3=127.36                
H17-C4-C3=118.26               H17-C4-C5=114.38               C6-C5-C4=123.14                C10-C5-C4=118.37               
C10-C5-C6=118.49               C7-C6-C5=120.48                H18-C6-C5=120.27               H18-C6-C7=119.24               
C8-C7-C6=120.35                H19-C7-C6=119.73               H19-C7-C8=119.92               C9-C8-C7=119.85                
H20-C8-C7=120.03               H20-C8-C9=120.12               C10-C9-C8=119.99               H21-C9-C8=120.14               
H21-C9-C10=119.87              C9-C10-C5=120.83               H22-C10-C5=119.47              H22-C10-C9=119.70              

 selected dihedral angles (degree)
 ---------------------------------
C3-C2-N1-H11=179.50           C3-C2-N1-H12= 58.49           C3-C2-N1-H13=300.41           H14-C2-N1-H11= 58.33          
H14-C2-N1-H12=297.32          H14-C2-N1-H13=179.24          H15-C2-N1-H11=300.76          H15-C2-N1-H12=179.75          
H15-C2-N1-H13= 61.67          C4-C3-C2-N1=254.40            C4-C3-C2-H14= 13.40           C4-C3-C2-H15=135.79           
H16-C3-C2-N1= 74.85           H16-C3-C2-H14=193.86          H16-C3-C2-H15=316.25          C5-C4-C3-C2=180.37            
C5-C4-C3-H16=359.89           H17-C4-C3-C2=  0.00           H17-C4-C3-H16=179.51          C6-C5-C4-C3=  6.28            
C6-C5-C4-H17=186.65           C10-C5-C4-C3=185.89           C10-C5-C4-H17=  6.26          C7-C6-C5-C4=179.78            
C7-C6-C5-C10=  0.17           H18-C6-C5-C4=  0.83           H18-C6-C5-C10=181.22          C8-C7-C6-C5=  0.15            
C8-C7-C6-H18=179.11           H19-C7-C6-C5=180.38           H19-C7-C6-H18=359.34          C9-C8-C7-C6=359.78            
C9-C8-C7-H19=179.55           H20-C8-C7-C6=180.06           H20-C8-C7-H19=359.82          C10-C9-C8-C7=  0.00           
C10-C9-C8-H20=179.70          H21-C9-C8-C7=180.22           H21-C9-C8-H20=359.94          C9-C10-C5-C4=179.96           
C9-C10-C5-C6=359.59           H22-C10-C5-C4=  0.07          H22-C10-C5-C6=179.70          C5-C10-C9-C8=  0.34           
C5-C10-C9-H21=180.10          H22-C10-C9-C8=180.23          H22-C10-C9-H21=  0.00         
           -------------------------------------------------
          |                Final Singlepoint                |
           -------------------------------------------------

          ...................................................
          :                      SETUP                      :
          :.................................................:
          :  # basis functions                  52          :
          :  # atomic orbitals                  52          :
          :  # shells                           32          :
          :  # electrons                        52          :
          :  max. iterations                   250          :
          :  Hamiltonian                  GFN2-xTB          :
          :  restarted?                      false          :
          :  GBSA solvation                  false          :
          :  PC potential                    false          :
          :  electronic temp.          300.0000000     K    :
          :  accuracy                    1.0000000          :
          :  -> integral cutoff          0.2500000E+02      :
          :  -> integral neglect         0.1000000E-07      :
          :  -> SCF convergence          0.1000000E-05 Eh   :
          :  -> wf. convergence          0.1000000E-03 e    :
          :  Broyden damping             0.4000000          :
          ...................................................

 iter      E             dE          RMSdq      gap      omega  full diag
   1    -28.3424026 -0.283424E+02  0.129E-04    3.14       0.0  T
   2    -28.3424026 -0.738503E-10  0.774E-05    3.14     275.4  T
   3    -28.3424026 -0.452509E-10  0.464E-05    3.14     459.9  T

   *** convergence criteria satisfied after 3 iterations ***

         #    Occupation            Energy/Eh            Energy/eV
      -------------------------------------------------------------
         1        2.0000           -0.8856502             -24.0998
       ...           ...                  ...                  ...
        20        2.0000           -0.5785169             -15.7422
        21        2.0000           -0.5726273             -15.5820
        22        2.0000           -0.5597905             -15.2327
        23        2.0000           -0.5284897             -14.3809
        24        2.0000           -0.5219579             -14.2032
        25        2.0000           -0.5079986             -13.8233
        26        2.0000           -0.5025193             -13.6742 (HOMO)
        27                         -0.3872252             -10.5369 (LUMO)
        28                         -0.3247447              -8.8368
        29                         -0.2982722              -8.1164
        30                         -0.2448163              -6.6618
        31                         -0.1856194              -5.0510
       ...                                ...                  ...
        52                          0.5746160              15.6361
      -------------------------------------------------------------
                  HL-Gap            0.1152942 Eh            3.1373 eV
             Fermi-level           -0.4448722 Eh          -12.1056 eV

 SCC (total)                   0 d,  0 h,  0 min,  0.011 sec
 SCC setup                      ...        0 min,  0.000 sec (  1.524%)
 Dispersion                     ...        0 min,  0.000 sec (  2.380%)
 classical contributions        ...        0 min,  0.000 sec (  1.138%)
 integral evaluation            ...        0 min,  0.001 sec (  6.652%)
 iterations                     ...        0 min,  0.007 sec ( 61.084%)
 molecular gradient             ...        0 min,  0.003 sec ( 25.520%)
 printout                       ...        0 min,  0.000 sec (  0.961%)

         :::::::::::::::::::::::::::::::::::::::::::::::::::::
         ::                     SUMMARY                     ::
         :::::::::::::::::::::::::::::::::::::::::::::::::::::
         :: total energy             -27.835112160479 Eh    ::
         :: gradient norm              0.000532770075 Eh/a0 ::
         :: HOMO-LUMO gap              3.137314662603 eV    ::
         ::.................................................::
         :: SCC energy               -28.342402584511 Eh    ::
         :: -> isotropic ES            0.101907927106 Eh    ::
         :: -> anisotropic ES         -0.010111902350 Eh    ::
         :: -> anisotropic XC          0.021830665138 Eh    ::
         :: -> dispersion             -0.015581669243 Eh    ::
         :: repulsion energy           0.507334924774 Eh    ::
         :: add. restraining           0.000000000000 Eh    ::
         :: total charge               1.000000000000 e     ::
         :::::::::::::::::::::::::::::::::::::::::::::::::::::

           -------------------------------------------------
          |                Property Printout                |
           -------------------------------------------------

    * Orbital Energies and Occupations

         #    Occupation            Energy/Eh            Energy/eV
      -------------------------------------------------------------
         1        2.0000           -0.8856502             -24.0998
       ...           ...                  ...                  ...
        14        2.0000           -0.6430038             -17.4970
        15        2.0000           -0.6313556             -17.1801
        16        2.0000           -0.6046898             -16.4544
        17        2.0000           -0.6005012             -16.3405
        18        2.0000           -0.5954248             -16.2023
        19        2.0000           -0.5845648             -15.9068
        20        2.0000           -0.5785169             -15.7422
        21        2.0000           -0.5726273             -15.5820
        22        2.0000           -0.5597905             -15.2327
        23        2.0000           -0.5284897             -14.3809
        24        2.0000           -0.5219579             -14.2032
        25        2.0000           -0.5079986             -13.8233
        26        2.0000           -0.5025193             -13.6742 (HOMO)
        27                         -0.3872252             -10.5369 (LUMO)
        28                         -0.3247447              -8.8368
        29                         -0.2982722              -8.1164
        30                         -0.2448163              -6.6618
        31                         -0.1856194              -5.0510
        32                         -0.1557067              -4.2370
        33                         -0.0883589              -2.4044
        34                         -0.0846880              -2.3045
        35                         -0.0463550              -1.2614
        36                         -0.0192957              -0.5251
        37                          0.0103028               0.2804
       ...                                ...                  ...
        52                          0.5746160              15.6361
      -------------------------------------------------------------
                  HL-Gap            0.1152942 Eh            3.1373 eV
             Fermi-level           -0.4448722 Eh          -12.1056 eV

     #   Z          covCN         q      C6AA      α(0)
     1   7 N        3.481    -0.134    23.888     7.259
     2   6 C        3.733    -0.027    21.143     6.563
     3   6 C        2.890    -0.083    30.080     8.992
     4   6 C        2.903    -0.020    28.507     8.755
     5   6 C        2.971     0.009    27.806     8.650
     6   6 C        2.922    -0.028    28.703     8.786
     7   6 C        2.917    -0.022    28.559     8.763
     8   6 C        2.920    -0.014    28.373     8.735
     9   6 C        2.916    -0.022    28.548     8.762
    10   6 C        2.928    -0.026    28.656     8.779
    11   1 H        0.859     0.265     0.828     1.426
    12   1 H        0.859     0.269     0.815     1.414
    13   1 H        0.859     0.269     0.812     1.412
    14   1 H        0.924     0.102     1.770     2.080
    15   1 H        0.924     0.103     1.762     2.076
    16   1 H        0.926     0.058     2.221     2.331
    17   1 H        0.925     0.053     2.288     2.365
    18   1 H        0.926     0.040     2.453     2.449
    19   1 H        0.926     0.053     2.281     2.362
    20   1 H        0.926     0.058     2.224     2.332
    21   1 H        0.926     0.055     2.261     2.352
    22   1 H        0.926     0.044     2.399     2.422

 Mol. C6AA /au·bohr⁶  :       4657.384968
 Mol. C8AA /au·bohr⁸  :     111102.630310
 Mol. α(0) /au        :        109.062870


Wiberg/Mayer (AO) data.
largest (>0.10) Wiberg bond orders for each atom

 ---------------------------------------------------------------------------
     #   Z sym  total        # sym  WBO       # sym  WBO       # sym  WBO
 ---------------------------------------------------------------------------
     1   7 N    3.666 --    11 H    0.915    12 H    0.913    13 H    0.913
                             2 C    0.889
     2   6 C    3.884 --     3 C    1.031    14 H    0.966    15 H    0.963
                             1 N    0.889
     3   6 C    3.962 --     4 C    1.798     2 C    1.031    16 H    0.960
     4   6 C    3.983 --     3 C    1.798     5 C    1.123    17 H    0.960
     5   6 C    3.988 --    10 C    1.358     6 C    1.355     4 C    1.123
     6   6 C    3.992 --     7 C    1.470     5 C    1.355    18 H    0.966
                             9 C    0.103
     7   6 C    3.991 --     6 C    1.470     8 C    1.421    19 H    0.969
                            10 C    0.101
     8   6 C    3.985 --     9 C    1.429     7 C    1.421    20 H    0.969
     9   6 C    3.990 --    10 C    1.462     8 C    1.429    21 H    0.969
                             6 C    0.103
    10   6 C    3.987 --     9 C    1.462     5 C    1.358    22 H    0.968
                             7 C    0.101
    11   1 H    0.929 --     1 N    0.915
    12   1 H    0.928 --     1 N    0.913
    13   1 H    0.927 --     1 N    0.913
    14   1 H    0.990 --     2 C    0.966
    15   1 H    0.988 --     2 C    0.963
    16   1 H    0.997 --     3 C    0.960
    17   1 H    0.997 --     4 C    0.960
    18   1 H    0.998 --     6 C    0.966
    19   1 H    0.997 --     7 C    0.969
    20   1 H    0.996 --     8 C    0.969
    21   1 H    0.997 --     9 C    0.969
    22   1 H    0.998 --    10 C    0.968
 ---------------------------------------------------------------------------

Topologies differ in total number of bonds
Writing topology from bond orders to xtbtopo.mol

molecular dipole:
                 x           y           z       tot (Debye)
 q only:        4.536       2.016       0.097
   full:        4.363       2.088      -0.114      12.298
molecular quadrupole (traceless):
                xx          xy          yy          xz          yz          zz
 q only:       21.145      18.082     -17.180      14.575       5.391      -3.965
  q+dip:       21.949      20.901     -20.239      11.368       6.173      -1.710
   full:       20.476      18.850     -17.441      12.242       4.978      -3.035

           -------------------------------------------------
          |                Geometry Summary                 |
           -------------------------------------------------

      molecular mass/u    :      134.1986153
   center of mass at/Å    :        4.3407552       1.3368287       2.4256783
  moments of inertia/u·Å² :        0.1222766E+03   0.8912257E+03   0.9684165E+03
rotational constants/cm⁻¹ :        0.1378648E+00   0.1891511E-01   0.1740742E-01

 * 20 selected distances

     #   Z          #   Z                                           value/Å
     1   7 N        2   6 C                                       1.5202580 (max)
     3   6 C        4   6 C                                       1.3376287
     5   6 C        6   6 C                                       1.3987492
     6   6 C        7   6 C                                       1.3802320
     7   6 C        8   6 C                                       1.3870763
     8   6 C        9   6 C                                       1.3859314
     5   6 C       10   6 C                                       1.3992826
     9   6 C       10   6 C                                       1.3806383
     1   7 N       11   1 H                                       1.0273954 (min)
     1   7 N       12   1 H                                       1.0281500
     1   7 N       13   1 H                                       1.0282262
     2   6 C       14   1 H                                       1.0904880
     2   6 C       15   1 H                                       1.0912401
     3   6 C       16   1 H                                       1.0784084
     4   6 C       17   1 H                                       1.0847813
     6   6 C       18   1 H                                       1.0787904
     7   6 C       19   1 H                                       1.0791890
     8   6 C       20   1 H                                       1.0788179
     9   6 C       21   1 H                                       1.0789507
    10   6 C       22   1 H                                       1.0806612

 * 4 distinct bonds (by element types)

   Z      Z             #   av. dist./Å        max./Å        min./Å
   1 H    6 C           9     1.0823697     1.0912401     1.0784084
   6 C    6 C           7     1.3813626     1.3992826     1.3376287
   1 H    7 N           3     1.0279239     1.0282262     1.0273954
   6 C    7 N           1     1.5202580     1.5202580     1.5202580


optimized geometry written to: xtbopt.xyz


           -------------------------------------------------
          | TOTAL ENERGY              -27.835112160479 Eh   |
          | GRADIENT NORM               0.000532770075 Eh/α |
          | HOMO-LUMO GAP               3.137314662603 eV   |
           -------------------------------------------------

------------------------------------------------------------------------
 * finished run on 2023/01/23 at 18:37:53.009     
------------------------------------------------------------------------
 total:
 * wall-time:     0 d,  0 h,  0 min,  0.475 sec
 *  cpu-time:     0 d,  0 h,  0 min, 38.369 sec
 * ratio c/w:    80.791 speedup
 SCF:
 * wall-time:     0 d,  0 h,  0 min,  0.059 sec
 *  cpu-time:     0 d,  0 h,  0 min,  7.563 sec
 * ratio c/w:   127.945 speedup
 ANC optimizer:
 * wall-time:     0 d,  0 h,  0 min,  0.388 sec
 *  cpu-time:     0 d,  0 h,  0 min, 27.510 sec
 * ratio c/w:    70.905 speedup

