46
 energy: -73.471121972753 gnorm: 0.000716983488 xtb: 6.5.1 (fef0646)
N            1.29197497363738        0.89437511315069        2.64874620173577
C            2.60627037659026        1.04860786487403        2.03075024346772
C            3.49831008469302       -0.14110591195092        2.40670612366387
C            4.81103393092644       -0.06473207337585        1.70973872999965
C            5.22931438158986       -0.76257234510159        0.61712629080166
C            6.52290639879305       -0.41565171069312        0.19032040655158
C            7.10271789579319        0.56303048011305        0.95878434474179
C            8.39559027167538        1.14717386817426        0.81405757324742
C            9.35072964028409        0.86192288746917       -0.13189687913335
C           10.53207324436443        1.60991280514141       -0.00741796174087
C           11.69125616916392        1.45189269664979       -0.93193700756337
C           10.48794358534690        2.49045337690038        1.05808018361335
C           11.46228984504174        3.41472645059211        1.52819404853835
C           11.35611120671094        4.23760104490104        2.62748313839224
C           12.47761570504604        5.04318336153331        2.84202888735638
C           13.47155061386418        4.85714454382234        1.90982680729293
C           14.74497533526553        5.49785367290542        1.79197199453097
C           15.50543112705978        6.12839226703381        2.75228702225207
C           15.15464859738264        6.24580638514982        4.19891875112383
C           16.71158824600334        6.64080090102086        2.22008365131194
C           16.86699101610450        6.40056841306108        0.89358404838597
S           15.53891201729169        5.53498436998179        0.23771446825679
S           12.99789318180768        3.65477912876324        0.74282398624819
S            8.96280393455906        2.37830109891235        1.90098105680120
S            6.02415289016480        1.06049889675837        2.23197959704206
Cl           0.13619520845276       -1.65611010038278        1.76491468643078
H            0.66888881503243        1.64861109131110        2.38249408043527
H            1.36989747041456        0.87524746718955        3.66066131326442
H            0.66801265960301       -0.46097446386992        2.17564899913768
H            3.10399088353382        1.98260992732184        2.32851891845885
H            2.46450699822995        1.06599827470550        0.94736804847567
H            2.99020493566389       -1.06385385695148        2.12414391052436
H            3.64985487139244       -0.14456689124597        3.48933337320064
H            4.62610440090773       -1.51193080321424        0.13635785799518
H            7.01242596602828       -0.87052727354422       -0.65111068074684
H            9.20545311962756        0.12635598201868       -0.90250206870583
H           11.48010156634678        0.67655306997080       -1.66363139024928
H           12.59112555767085        1.17955296756141       -0.38096790551082
H           11.89653562926059        2.38422256953424       -1.45777538554623
H           10.48082622238498        4.25177144361216        3.25333226623329
H           12.53829360737672        5.76181203710883        3.63730488701668
H           14.67675185544460        5.33545467269379        4.55563145221605
H           14.47255823409253        7.08070404511940        4.36492099317868
H           16.05479237794354        6.42452550344357        4.78276953538844
H           17.43745638703848        7.16569807188614        2.81612215009390
H           17.68205856440073        6.67834867994506        0.25544925179553
