 Entering Gaussian System
 *********************************************
 Gaussian 98:
 frequency output generated by the xtb code
 *********************************************
                         Standard orientation:
 --------------------------------------------------------------------
  Center     Atomic     Atomic              Coordinates (Angstroms)
  Number     Number      Type              X           Y           Z
 --------------------------------------------------------------------
    1          7             0       -5.455891    0.401167   -0.777182
    2          6             0       -3.963121    0.414959   -0.845197
    3          6             0       -3.304500   -0.134532    0.416612
    4          6             0       -1.805340   -0.122660    0.343427
    5          6             0       -1.114207   -1.207205   -0.175874
    6          6             0        0.263603   -1.183742   -0.272639
    7          6             0        0.959890   -0.073605    0.143937
    8         35             0        2.847220   -0.042125    0.010770
    9          6             0        0.291658    1.013870    0.655017
   10          6             0       -1.086352    0.990587    0.752002
   11          1             0       -5.802156   -0.553761   -0.643309
   12          1             0       -5.872252    0.772838   -1.636991
   13          1             0       -5.786785    0.970140    0.008109
   14          1             0       -3.616126    1.438957   -1.025170
   15          1             0       -3.632707   -0.165394   -1.714337
   16          1             0       -3.650954   -1.155990    0.602035
   17          1             0       -3.630124    0.442531    1.287662
   18          1             0       -1.660873   -2.074592   -0.505231
   19          1             0        0.800497   -2.029146   -0.673759
   20          1             0        0.850283    1.879167    0.975974
   21          1             0       -1.611186    1.843031    1.148983
 --------------------------------------------------------------------
     1 basis functions        1 primitive gaussians
     1 alpha electrons        1 beta electrons

 Harmonic frequencies (cm**-1), IR intensities (km*mol⁻¹),
 Raman scattering activities (A**4/amu), Raman depolarization ratios,
 reduced masses (AMU), force constants (mDyne/A) and normal coordinates:
                      1                      2                      3
                        a                      a                      a 
 Frequencies --  -103.1331                22.4247                33.7888
 Red. masses --     4.2222                24.4616                12.4847
 Frc consts  --     0.0000                 0.0000                 0.0000
 IR Inten    --     0.0530                 8.8422                13.3980
 Raman Activ --     0.0000                 0.0000                 0.0000
 Depolar     --     0.0000                 0.0000                 0.0000
 Atom AN      X      Y      Z        X      Y      Z        X      Y      Z
   1   7     0.01  -0.03  -0.02     0.21   0.20  -0.34    -0.02   0.46   0.24
   2   6     0.01  -0.27  -0.11     0.21   0.04  -0.07    -0.02   0.00   0.01
   3   6    -0.00   0.14   0.06    -0.03  -0.04   0.02    -0.00  -0.24  -0.10
   4   6    -0.00   0.08   0.04    -0.02  -0.12   0.21    -0.00  -0.20  -0.11
   5   6    -0.05   0.13  -0.13    -0.01  -0.14   0.28     0.08  -0.22   0.03
   6   6    -0.05   0.11  -0.17    -0.01  -0.13   0.27     0.08  -0.15   0.06
   7   6    -0.00   0.01   0.01    -0.03  -0.09   0.19     0.00  -0.06  -0.05
   8  35    -0.00  -0.04  -0.02    -0.14   0.19  -0.38     0.02   0.19   0.13
   9   6     0.05  -0.05   0.19    -0.03  -0.11   0.23    -0.08  -0.03  -0.21
  10   6     0.05  -0.00   0.19    -0.03  -0.13   0.24    -0.08  -0.10  -0.24
  11   1    -0.01   0.06   0.43     0.02   0.07  -0.09    -0.06   0.18   0.31
  12   1    -0.00  -0.39  -0.17     0.11   0.05  -0.12    -0.01  -0.05  -0.01
  13   1     0.02   0.36  -0.26     0.03   0.08  -0.12     0.07   0.33  -0.06
  14   1     0.04  -0.11  -0.16     0.10   0.00  -0.00     0.07  -0.03  -0.00
  15   1    -0.04  -0.19   0.03     0.08   0.01  -0.01    -0.09  -0.02  -0.01
  16   1    -0.00   0.06   0.11    -0.04  -0.01  -0.02     0.00  -0.08  -0.09
  17   1     0.00   0.12  -0.03    -0.04  -0.01  -0.00     0.00  -0.12   0.01
  18   1    -0.02   0.06  -0.07    -0.00  -0.05   0.09     0.04  -0.08   0.03
  19   1    -0.02   0.04  -0.09    -0.00  -0.04   0.08     0.04  -0.05   0.05
  20   1     0.02  -0.03   0.09    -0.01  -0.03   0.06    -0.04   0.01  -0.09
  21   1     0.02  -0.01   0.09    -0.01  -0.04   0.07    -0.04  -0.03  -0.10
                      4                      5                      6
                        a                      a                      a 
 Frequencies --   139.6896               155.2087               200.4560
 Red. masses --     5.7629                15.3516                20.0184
 Frc consts  --     0.0000                 0.0000                 0.0000
 IR Inten    --     5.5475                10.5025                 2.6140
 Raman Activ --     0.0000                 0.0000                 0.0000
 Depolar     --     0.0000                 0.0000                 0.0000
 Atom AN      X      Y      Z        X      Y      Z        X      Y      Z
   1   7    -0.03   0.26   0.13    -0.31  -0.09   0.15    -0.00  -0.07  -0.03
   2   6    -0.03  -0.46  -0.23    -0.30   0.15  -0.20    -0.00   0.14   0.06
   3   6    -0.00   0.07  -0.01    -0.04   0.13  -0.33     0.00   0.34   0.14
   4   6     0.00   0.01  -0.02    -0.01   0.09  -0.20    -0.00  -0.03  -0.02
   5   6    -0.01   0.01  -0.04     0.04  -0.00   0.04    -0.15  -0.13  -0.04
   6   6    -0.01  -0.01  -0.03     0.06  -0.11   0.30    -0.13  -0.32  -0.13
   7   6     0.01  -0.04   0.03     0.08  -0.13   0.31    -0.00  -0.39  -0.16
   8  35     0.02   0.08   0.01     0.21   0.05  -0.15     0.01   0.35   0.15
   9   6     0.02  -0.06   0.08     0.06  -0.13   0.28     0.12  -0.32  -0.14
  10   6     0.02  -0.03   0.05     0.03  -0.02   0.02     0.15  -0.12  -0.07
  11   1    -0.16   0.09  -0.22    -0.02  -0.04   0.10     0.04  -0.03  -0.01
  12   1    -0.01   0.39   0.18    -0.16  -0.08   0.05    -0.00  -0.03  -0.01
  13   1     0.15  -0.10   0.23    -0.06  -0.01   0.04    -0.04  -0.03  -0.01
  14   1     0.10  -0.20  -0.24    -0.14   0.06  -0.06    -0.04   0.05  -0.01
  15   1    -0.13  -0.30   0.00    -0.11   0.07  -0.09     0.03   0.02   0.04
  16   1    -0.01   0.05   0.15    -0.00   0.03  -0.10    -0.07   0.14   0.14
  17   1     0.01   0.15  -0.08    -0.01   0.02  -0.08     0.07   0.19   0.00
  18   1    -0.01   0.01  -0.02     0.01   0.00  -0.01    -0.08  -0.02   0.00
  19   1    -0.01  -0.00  -0.01     0.02  -0.05   0.12    -0.08  -0.12  -0.04
  20   1     0.01  -0.02   0.04     0.01  -0.05   0.11     0.07  -0.11  -0.05
  21   1     0.01  -0.01   0.02     0.01   0.00  -0.01     0.08  -0.01  -0.02
                      7                      8                      9
                        a                      a                      a 
 Frequencies --   241.2691               321.0117               353.0499
 Red. masses --    34.9159                11.6165                 9.1139
 Frc consts  --     0.0000                 0.0000                 0.0000
 IR Inten    --    12.4783                 2.8024                 0.3930
 Raman Activ --     0.0000                 0.0000                 0.0000
 Depolar     --     0.0000                 0.0000                 0.0000
 Atom AN      X      Y      Z        X      Y      Z        X      Y      Z
   1   7    -0.32   0.13  -0.29     0.08  -0.08   0.18     0.01  -0.02   0.00
   2   6    -0.25  -0.06   0.14     0.04   0.14  -0.32     0.01   0.11   0.04
   3   6    -0.25  -0.07   0.18    -0.08   0.11  -0.26    -0.00   0.35   0.15
   4   6    -0.20  -0.05   0.13    -0.07  -0.09   0.21    -0.01  -0.33  -0.14
   5   6    -0.10   0.02   0.09    -0.04  -0.12   0.31     0.15  -0.25  -0.12
   6   6    -0.08   0.07  -0.03    -0.07   0.06  -0.10     0.17   0.14   0.04
   7   6     0.03   0.04  -0.10    -0.06   0.18  -0.43    -0.00   0.23   0.11
   8  35     0.59  -0.00  -0.01     0.13  -0.03   0.06     0.02  -0.08  -0.04
   9   6    -0.08  -0.03  -0.07    -0.07   0.03  -0.11    -0.19   0.13   0.08
  10   6    -0.10  -0.07   0.05    -0.04  -0.14   0.30    -0.18  -0.25  -0.11
  11   1    -0.15   0.05  -0.12     0.09  -0.04   0.09     0.03  -0.02  -0.00
  12   1     0.02   0.05  -0.12    -0.12  -0.04   0.11    -0.00  -0.02  -0.00
  13   1    -0.14   0.05  -0.11     0.09  -0.04   0.10    -0.02  -0.02  -0.00
  14   1    -0.04  -0.02   0.05    -0.02   0.05  -0.10    -0.02   0.03  -0.04
  15   1    -0.05  -0.02   0.06    -0.02   0.04  -0.11     0.02  -0.01   0.05
  16   1    -0.07  -0.02   0.05    -0.07   0.04  -0.10    -0.16   0.18   0.22
  17   1    -0.07  -0.02   0.05    -0.07   0.04  -0.10     0.16   0.28  -0.02
  18   1    -0.01  -0.01   0.03    -0.00  -0.07   0.16     0.11  -0.11  -0.06
  19   1    -0.05   0.01  -0.02    -0.03   0.01  -0.03     0.12   0.08   0.02
  20   1    -0.04   0.01  -0.02    -0.03   0.01  -0.03    -0.12   0.07   0.04
  21   1    -0.01  -0.02   0.03    -0.00  -0.07   0.16    -0.12  -0.11  -0.05
                     10                     11                     12
                        a                      a                      a 
 Frequencies --   364.4767               366.8805               479.9711
 Red. masses --     8.9465                19.1080                10.1602
 Frc consts  --     0.0000                 0.0000                 0.0000
 IR Inten    --     0.0022                 7.0084                 4.4750
 Raman Activ --     0.0000                 0.0000                 0.0000
 Depolar     --     0.0000                 0.0000                 0.0000
 Atom AN      X      Y      Z        X      Y      Z        X      Y      Z
   1   7     0.00   0.00   0.00     0.34  -0.08   0.19     0.13  -0.01   0.01
   2   6     0.00   0.01   0.00     0.23   0.02  -0.08     0.08  -0.06   0.14
   3   6    -0.00  -0.01  -0.01    -0.16  -0.03   0.02     0.04  -0.03   0.07
   4   6    -0.00   0.00   0.00    -0.23   0.00   0.04    -0.06   0.21  -0.49
   5   6     0.03  -0.17   0.39    -0.27   0.10  -0.16    -0.11  -0.01  -0.04
   6   6    -0.03   0.16  -0.38    -0.24   0.02   0.03    -0.09  -0.11   0.23
   7   6    -0.00  -0.00   0.00    -0.11  -0.13   0.29    -0.14   0.18  -0.43
   8  35     0.00   0.00  -0.00     0.35   0.02  -0.06     0.10  -0.00   0.01
   9   6     0.03  -0.16   0.38    -0.22  -0.04  -0.01    -0.09  -0.09   0.24
  10   6    -0.03   0.17  -0.40    -0.25   0.07  -0.17    -0.10   0.04  -0.02
  11   1     0.00  -0.00  -0.00     0.14  -0.04   0.08     0.02   0.00  -0.01
  12   1    -0.00   0.00   0.00    -0.01  -0.04   0.09     0.07   0.00  -0.01
  13   1    -0.00  -0.00   0.00     0.14  -0.04   0.09     0.02   0.00  -0.01
  14   1    -0.00   0.00   0.01     0.08   0.01  -0.01     0.04  -0.02   0.05
  15   1     0.00   0.01  -0.00     0.07   0.01  -0.02     0.04  -0.02   0.05
  16   1     0.01  -0.01  -0.01    -0.06  -0.01  -0.02     0.06  -0.02   0.04
  17   1    -0.01  -0.01   0.00    -0.08  -0.01  -0.01     0.06  -0.02   0.04
  18   1     0.02  -0.10   0.24    -0.08   0.06  -0.11    -0.03  -0.07   0.15
  19   1    -0.02   0.10  -0.24    -0.09   0.01  -0.02    -0.01  -0.11   0.25
  20   1     0.02  -0.10   0.24    -0.08   0.01  -0.03    -0.01  -0.10   0.25
  21   1    -0.02   0.10  -0.25    -0.07   0.05  -0.11    -0.03  -0.06   0.15
                     13                     14                     15
                        a                      a                      a 
 Frequencies --   602.6269               615.2269               669.3303
 Red. masses --    11.3877                12.9363                11.0351
 Frc consts  --     0.0000                 0.0000                 0.0000
 IR Inten    --     0.0409                 6.8663                 6.0202
 Raman Activ --     0.0000                 0.0000                 0.0000
 Depolar     --     0.0000                 0.0000                 0.0000
 Atom AN      X      Y      Z        X      Y      Z        X      Y      Z
   1   7     0.00   0.00   0.00    -0.10   0.01  -0.02     0.10  -0.01   0.01
   2   6     0.00  -0.02  -0.01    -0.02  -0.02   0.06     0.02  -0.02   0.06
   3   6    -0.00  -0.06  -0.02     0.40   0.04  -0.10    -0.12  -0.01   0.03
   4   6    -0.00  -0.12  -0.05     0.29   0.03  -0.09    -0.17   0.21  -0.50
   5   6    -0.38  -0.26  -0.08    -0.13  -0.30   0.05     0.03  -0.01   0.29
   6   6    -0.37   0.26   0.14    -0.17  -0.13  -0.19    -0.01   0.21  -0.23
   7   6     0.00   0.12   0.05    -0.40  -0.07   0.19     0.18  -0.14   0.34
   8  35    -0.00   0.04   0.02     0.17   0.00  -0.01    -0.05   0.00  -0.00
   9   6     0.38   0.27   0.08    -0.16   0.24  -0.03    -0.01   0.02  -0.31
  10   6     0.37  -0.26  -0.14    -0.12   0.17   0.25     0.03  -0.20   0.21
  11   1    -0.01   0.00   0.00    -0.07   0.01  -0.04     0.03  -0.00   0.01
  12   1    -0.00   0.00   0.00     0.05   0.01  -0.04     0.02  -0.00   0.01
  13   1     0.01   0.00   0.00    -0.07   0.02  -0.04     0.03  -0.00   0.01
  14   1     0.00  -0.01   0.01    -0.03  -0.00  -0.00     0.03  -0.01   0.03
  15   1    -0.00   0.00  -0.01    -0.03   0.00   0.00     0.03  -0.01   0.03
  16   1     0.02  -0.03  -0.05     0.14   0.01  -0.01     0.00  -0.01   0.02
  17   1    -0.02  -0.06   0.01     0.14  -0.00  -0.01     0.01  -0.01   0.02
  18   1    -0.06  -0.09  -0.04    -0.12  -0.03   0.02     0.05  -0.07   0.20
  19   1    -0.07   0.09   0.05     0.01   0.02  -0.09    -0.03   0.02  -0.02
  20   1     0.07   0.09   0.03     0.01   0.05  -0.07    -0.03   0.00  -0.03
  21   1     0.06  -0.09  -0.04    -0.12   0.01   0.04     0.05  -0.09   0.19
                     16                     17                     18
                        a                      a                      a 
 Frequencies --   791.9438               798.4862               832.9498
 Red. masses --     1.9441                 5.2893                 9.2033
 Frc consts  --     0.0000                 0.0000                 0.0000
 IR Inten    --    38.8845                41.9874                 4.8090
 Raman Activ --     0.0000                 0.0000                 0.0000
 Depolar     --     0.0000                 0.0000                 0.0000
 Atom AN      X      Y      Z        X      Y      Z        X      Y      Z
   1   7     0.00   0.06   0.03     0.06  -0.02   0.04     0.04   0.04  -0.09
   2   6     0.00   0.18   0.08    -0.01  -0.05   0.10    -0.02   0.03  -0.06
   3   6     0.00   0.17   0.07     0.12   0.04  -0.10    -0.43  -0.08   0.19
   4   6    -0.00  -0.01  -0.01    -0.05   0.09  -0.21    -0.04   0.09  -0.21
   5   6     0.01  -0.03  -0.03    -0.03  -0.00   0.24     0.11  -0.16   0.04
   6   6     0.02  -0.00  -0.01    -0.06   0.07   0.22     0.18  -0.32  -0.08
   7   6     0.00   0.01  -0.00     0.12   0.08  -0.18    -0.28   0.02  -0.03
   8  35    -0.00  -0.00  -0.00    -0.02  -0.01   0.01     0.03  -0.00   0.00
   9   6    -0.03  -0.02   0.01    -0.06  -0.21   0.11     0.19   0.27   0.17
  10   6    -0.01  -0.04   0.01    -0.03  -0.17   0.17     0.11   0.08   0.14
  11   1     0.25  -0.09  -0.09    -0.04   0.01  -0.03     0.13  -0.02   0.06
  12   1     0.00  -0.08  -0.04     0.12   0.01  -0.03    -0.21  -0.03   0.07
  13   1    -0.26  -0.12  -0.01    -0.04   0.02  -0.03     0.12  -0.04   0.06
  14   1     0.14  -0.09  -0.46    -0.01  -0.01   0.03     0.05  -0.01   0.01
  15   1    -0.15  -0.39   0.26    -0.01   0.00   0.02     0.05  -0.01   0.02
  16   1     0.06  -0.04  -0.35     0.07   0.00  -0.00    -0.12  -0.02   0.05
  17   1    -0.06  -0.28   0.21     0.08   0.01  -0.01    -0.12  -0.02   0.05
  18   1     0.02  -0.03   0.01    -0.02   0.17  -0.36    -0.01   0.04  -0.15
  19   1     0.01  -0.00   0.01    -0.09   0.16  -0.32     0.12   0.02  -0.16
  20   1    -0.02   0.01  -0.02    -0.09   0.12  -0.34     0.13   0.10  -0.13
  21   1    -0.02  -0.01  -0.04    -0.02   0.14  -0.37    -0.01   0.08  -0.13
                     19                     20                     21
                        a                      a                      a 
 Frequencies --   863.8479               870.3183               896.7967
 Red. masses --     3.2960                 2.8228                 6.1630
 Frc consts  --     0.0000                 0.0000                 0.0000
 IR Inten    --     0.4119                21.9748                48.3393
 Raman Activ --     0.0000                 0.0000                 0.0000
 Depolar     --     0.0000                 0.0000                 0.0000
 Atom AN      X      Y      Z        X      Y      Z        X      Y      Z
   1   7     0.00  -0.01  -0.00    -0.01  -0.20  -0.09     0.29  -0.12   0.27
   2   6     0.00  -0.00  -0.00     0.00  -0.01  -0.01    -0.14  -0.06   0.13
   3   6    -0.00  -0.02  -0.01     0.00   0.29   0.13    -0.24   0.12  -0.25
   4   6    -0.00  -0.00  -0.00    -0.00   0.01  -0.00    -0.10  -0.01   0.03
   5   6    -0.02   0.09  -0.22     0.01  -0.05  -0.02     0.05   0.01  -0.01
   6   6    -0.02   0.09  -0.20     0.03  -0.02  -0.00     0.09  -0.13  -0.08
   7   6    -0.00  -0.00  -0.00    -0.00   0.01   0.00    -0.13  -0.00   0.01
   8  35     0.00  -0.00  -0.00     0.00  -0.00  -0.00     0.01   0.00  -0.00
   9   6     0.02  -0.08   0.21    -0.03  -0.01  -0.01     0.09   0.15   0.03
  10   6     0.02  -0.09   0.21    -0.02  -0.05  -0.02     0.05  -0.00  -0.01
  11   1    -0.02   0.01   0.01    -0.43   0.12   0.10    -0.20   0.04  -0.13
  12   1     0.00   0.00   0.00    -0.01   0.16   0.07     0.59   0.06  -0.14
  13   1     0.02   0.01  -0.00     0.45   0.14   0.02    -0.19   0.08  -0.12
  14   1    -0.01   0.01   0.02    -0.25   0.07  -0.08    -0.09   0.00   0.01
  15   1     0.01   0.02  -0.01     0.26  -0.02   0.11    -0.08  -0.00   0.01
  16   1    -0.01   0.00   0.01     0.09  -0.02  -0.32    -0.12   0.04  -0.10
  17   1     0.01   0.01  -0.01    -0.09  -0.24   0.21    -0.13   0.04  -0.09
  18   1     0.03  -0.18   0.42     0.02  -0.02  -0.01     0.01   0.00   0.00
  19   1     0.03  -0.17   0.39     0.03   0.01  -0.01     0.06  -0.04   0.02
  20   1    -0.03   0.17  -0.41    -0.03  -0.00   0.01     0.06   0.01   0.04
  21   1    -0.03   0.17  -0.41    -0.02  -0.02  -0.01     0.01  -0.00   0.00
                     22                     23                     24
                        a                      a                      a 
 Frequencies --   909.7739               922.5546               998.5855
 Red. masses --     2.7579                 4.0685                10.7285
 Frc consts  --     0.0000                 0.0000                 0.0000
 IR Inten    --     0.0170                 0.0051                14.0872
 Raman Activ --     0.0000                 0.0000                 0.0000
 Depolar     --     0.0000                 0.0000                 0.0000
 Atom AN      X      Y      Z        X      Y      Z        X      Y      Z
   1   7    -0.01   0.01  -0.01    -0.00  -0.00  -0.00     0.16   0.00  -0.01
   2   6     0.00  -0.00   0.00     0.00   0.00   0.00    -0.19  -0.01   0.02
   3   6     0.00  -0.01   0.01     0.00   0.01   0.00    -0.17  -0.00   0.01
   4   6     0.01  -0.01   0.02    -0.00  -0.00   0.00     0.16   0.00  -0.02
   5   6     0.01  -0.07   0.17     0.02  -0.10   0.24    -0.13  -0.47  -0.19
   6   6    -0.02   0.08  -0.19    -0.02   0.11  -0.25    -0.02   0.18   0.08
   7   6     0.01   0.00  -0.01    -0.00   0.00   0.00     0.37   0.01  -0.03
   8  35    -0.00   0.00  -0.00     0.00  -0.00  -0.00    -0.04  -0.00   0.00
   9   6    -0.02   0.08  -0.19     0.02  -0.10   0.24    -0.02  -0.18  -0.07
  10   6     0.01  -0.08   0.18    -0.02   0.10  -0.24    -0.12   0.46   0.20
  11   1     0.01  -0.00   0.01    -0.00   0.00  -0.00     0.05  -0.00   0.00
  12   1    -0.02  -0.00   0.01    -0.00   0.00   0.00     0.04   0.00  -0.00
  13   1     0.01  -0.00   0.01     0.00   0.00   0.00     0.05  -0.00   0.00
  14   1     0.00  -0.00   0.00     0.00  -0.00  -0.00    -0.04  -0.01   0.01
  15   1     0.00   0.00   0.00    -0.00  -0.00   0.00    -0.03  -0.00   0.01
  16   1     0.01  -0.00   0.01     0.01  -0.00  -0.01    -0.07   0.01   0.00
  17   1     0.01  -0.00   0.00    -0.01  -0.00   0.00    -0.07  -0.01  -0.00
  18   1    -0.03   0.17  -0.39    -0.03   0.16  -0.38     0.04  -0.17  -0.08
  19   1     0.03  -0.19   0.44     0.03  -0.17   0.41     0.10   0.10   0.03
  20   1     0.03  -0.19   0.44    -0.03   0.17  -0.39     0.09  -0.09  -0.05
  21   1    -0.03   0.17  -0.41     0.03  -0.16   0.38     0.04   0.17   0.07
                     25                     26                     27
                        a                      a                      a 
 Frequencies --  1014.7683              1053.8945              1109.2024
 Red. masses --    10.2055                 4.4608                 8.9728
 Frc consts  --     0.0000                 0.0000                 0.0000
 IR Inten    --    18.0652                 3.1823                39.8195
 Raman Activ --     0.0000                 0.0000                 0.0000
 Depolar     --     0.0000                 0.0000                 0.0000
 Atom AN      X      Y      Z        X      Y      Z        X      Y      Z
   1   7    -0.47  -0.08   0.19    -0.01  -0.14  -0.06    -0.08   0.06  -0.14
   2   6     0.67   0.03  -0.09     0.01   0.26   0.11     0.14  -0.22   0.52
   3   6    -0.11  -0.01   0.04    -0.01  -0.34  -0.15    -0.11   0.22  -0.52
   4   6    -0.01   0.04  -0.09    -0.00  -0.11  -0.05    -0.03  -0.03   0.08
   5   6    -0.03  -0.12  -0.03    -0.00   0.12   0.06    -0.01  -0.01  -0.02
   6   6     0.02   0.02   0.01    -0.06   0.05   0.02     0.02  -0.02  -0.02
   7   6     0.08   0.00  -0.01     0.00  -0.05  -0.02     0.03  -0.00   0.00
   8  35    -0.01  -0.00   0.00    -0.00   0.00   0.00    -0.00  -0.00   0.00
   9   6     0.02  -0.02  -0.00     0.06   0.05   0.02     0.02   0.03   0.00
  10   6    -0.03   0.11   0.07     0.00   0.12   0.04    -0.01   0.02  -0.00
  11   1    -0.24   0.01  -0.05    -0.17   0.03   0.03     0.10  -0.01   0.08
  12   1     0.08   0.01  -0.03     0.00   0.06   0.02    -0.23  -0.02   0.05
  13   1    -0.24   0.03  -0.04     0.17   0.04  -0.00     0.10  -0.05   0.06
  14   1     0.12   0.03  -0.02    -0.02   0.02  -0.26     0.15  -0.09   0.21
  15   1     0.12   0.00  -0.04     0.02  -0.18   0.20     0.14  -0.09   0.21
  16   1    -0.12   0.02  -0.05    -0.47   0.08   0.04    -0.03   0.06  -0.14
  17   1    -0.13   0.03  -0.05     0.47   0.08   0.03    -0.03   0.06  -0.14
  18   1     0.01  -0.04  -0.04    -0.02   0.05   0.01     0.01  -0.02   0.01
  19   1     0.04   0.03  -0.00    -0.10  -0.03  -0.01     0.00  -0.01   0.00
  20   1     0.04  -0.02  -0.02     0.10  -0.03  -0.02     0.00   0.01   0.01
  21   1     0.01   0.05   0.00     0.02   0.04   0.03     0.01   0.01   0.02
                     28                     29                     30
                        a                      a                      a 
 Frequencies --  1113.4004              1137.7128              1195.5047
 Red. masses --     6.7767                 2.8105                 1.9456
 Frc consts  --     0.0000                 0.0000                 0.0000
 IR Inten    --    19.9974                 4.6345                 0.0646
 Raman Activ --     0.0000                 0.0000                 0.0000
 Depolar     --     0.0000                 0.0000                 0.0000
 Atom AN      X      Y      Z        X      Y      Z        X      Y      Z
   1   7    -0.01   0.00  -0.00    -0.00  -0.03  -0.01    -0.01  -0.00   0.00
   2   6     0.01  -0.01   0.02     0.00   0.06   0.03     0.00   0.01  -0.02
   3   6     0.01   0.01  -0.02    -0.00  -0.07  -0.03     0.05  -0.01   0.01
   4   6    -0.05  -0.00   0.01     0.00   0.11   0.05    -0.11  -0.00   0.01
   5   6     0.13   0.04   0.01    -0.13  -0.10  -0.03     0.04  -0.08  -0.04
   6   6    -0.06   0.26   0.12     0.13  -0.10  -0.05    -0.05  -0.14  -0.05
   7   6    -0.54  -0.01   0.04     0.00   0.14   0.06     0.02  -0.00  -0.00
   8  35     0.04   0.00  -0.00    -0.00  -0.00  -0.00    -0.00  -0.00   0.00
   9   6    -0.07  -0.27  -0.11    -0.13  -0.10  -0.03    -0.05   0.14   0.06
  10   6     0.13  -0.03  -0.02     0.13  -0.10  -0.05     0.04   0.08   0.03
  11   1     0.00  -0.00   0.00    -0.03   0.00   0.01    -0.00  -0.00  -0.00
  12   1    -0.01  -0.00   0.00     0.00   0.01   0.00     0.01   0.00  -0.00
  13   1     0.00  -0.00   0.00     0.03   0.01  -0.00     0.00   0.00  -0.00
  14   1     0.01  -0.00   0.01     0.03  -0.00  -0.04    -0.00   0.00  -0.00
  15   1     0.01  -0.01   0.01    -0.03  -0.03   0.02    -0.00  -0.00  -0.00
  16   1     0.02  -0.00  -0.01    -0.05   0.00   0.02     0.06  -0.02   0.00
  17   1     0.02   0.01  -0.00     0.05   0.01  -0.01     0.05   0.01   0.01
  18   1     0.33  -0.14  -0.08    -0.44   0.17   0.11     0.42  -0.23  -0.14
  19   1     0.23   0.22   0.08     0.38   0.16   0.04    -0.38  -0.24  -0.07
  20   1     0.22  -0.21  -0.10    -0.38   0.15   0.09    -0.37   0.23   0.12
  21   1     0.34   0.15   0.03     0.44   0.19   0.05     0.42   0.25   0.07
                     31                     32                     33
                        a                      a                      a 
 Frequencies --  1203.5607              1241.1068              1253.5300
 Red. masses --     4.1822                 8.1958                 2.2642
 Frc consts  --     0.0000                 0.0000                 0.0000
 IR Inten    --    12.0473                 2.1409                 2.3605
 Raman Activ --     0.0000                 0.0000                 0.0000
 Depolar     --     0.0000                 0.0000                 0.0000
 Atom AN      X      Y      Z        X      Y      Z        X      Y      Z
   1   7    -0.00  -0.24  -0.10    -0.03  -0.00   0.01    -0.00  -0.14  -0.06
   2   6     0.00   0.39   0.16     0.01   0.02  -0.05    -0.00  -0.05  -0.02
   3   6    -0.00  -0.10  -0.04     0.23   0.02  -0.05     0.00   0.21   0.09
   4   6     0.00   0.10   0.04    -0.60  -0.03   0.08     0.00  -0.13  -0.05
   5   6     0.01  -0.04  -0.02    -0.21  -0.03   0.00     0.03   0.00  -0.00
   6   6    -0.02  -0.02  -0.01     0.15  -0.17  -0.08     0.04   0.04   0.01
   7   6     0.00   0.01   0.00     0.18   0.00  -0.01    -0.00   0.04   0.02
   8  35    -0.00   0.00   0.00    -0.02  -0.00   0.00     0.00  -0.00  -0.00
   9   6     0.02  -0.02  -0.01     0.15   0.17   0.06    -0.04   0.04   0.02
  10   6    -0.02  -0.05  -0.01    -0.21   0.02   0.03    -0.03   0.00   0.00
  11   1    -0.21   0.03   0.07     0.00  -0.00  -0.00    -0.09   0.00   0.03
  12   1     0.00   0.11   0.04     0.02   0.00  -0.01     0.00   0.04   0.02
  13   1     0.21   0.06  -0.03     0.00   0.00   0.00     0.09   0.03  -0.02
  14   1     0.33  -0.04  -0.12     0.02   0.00  -0.01     0.47  -0.12   0.27
  15   1    -0.33  -0.11   0.05     0.02   0.00  -0.01    -0.46   0.12  -0.27
  16   1     0.32  -0.08   0.25     0.26  -0.05   0.06    -0.16   0.06  -0.23
  17   1    -0.31   0.14  -0.23     0.27  -0.02   0.08     0.15  -0.13   0.20
  18   1     0.10  -0.06  -0.03     0.06  -0.08  -0.04    -0.13   0.08   0.04
  19   1     0.03   0.01   0.00     0.28   0.08   0.01    -0.15  -0.08  -0.02
  20   1    -0.02   0.01   0.01     0.28  -0.07  -0.05     0.15  -0.07  -0.04
  21   1    -0.10  -0.06  -0.02     0.07   0.09   0.03     0.14   0.08   0.02
                     34                     35                     36
                        a                      a                      a 
 Frequencies --  1276.3154              1296.7326              1347.9844
 Red. masses --     2.8263                 4.1511                11.6919
 Frc consts  --     0.0000                 0.0000                 0.0000
 IR Inten    --     1.7726                43.3851                 0.2414
 Raman Activ --     0.0000                 0.0000                 0.0000
 Depolar     --     0.0000                 0.0000                 0.0000
 Atom AN      X      Y      Z        X      Y      Z        X      Y      Z
   1   7     0.00   0.03   0.01     0.14   0.05  -0.13    -0.00   0.01   0.00
   2   6     0.00   0.05   0.03     0.14  -0.10   0.23    -0.00  -0.02  -0.01
   3   6     0.00  -0.03  -0.01     0.31  -0.07   0.15     0.00  -0.01  -0.00
   4   6    -0.00  -0.15  -0.06    -0.14   0.03  -0.05     0.01   0.35   0.15
   5   6     0.12  -0.10  -0.05    -0.05   0.01   0.01     0.38  -0.16  -0.10
   6   6     0.09   0.05   0.02     0.03  -0.05  -0.02    -0.39  -0.16  -0.04
   7   6     0.00   0.23   0.10     0.03  -0.00  -0.00     0.00   0.29   0.12
   8  35    -0.00  -0.00  -0.00    -0.00   0.00   0.00     0.00   0.01   0.00
   9   6    -0.09   0.05   0.02     0.03   0.04   0.02     0.39  -0.15  -0.09
  10   6    -0.12  -0.10  -0.03    -0.05  -0.01   0.00    -0.39  -0.17  -0.04
  11   1     0.02   0.00  -0.00    -0.06   0.05   0.05    -0.00   0.00  -0.01
  12   1    -0.00  -0.00   0.00    -0.21  -0.02   0.06     0.00  -0.02  -0.01
  13   1    -0.02  -0.00   0.00    -0.06  -0.06  -0.01     0.01  -0.01   0.01
  14   1    -0.14   0.04  -0.10    -0.36   0.07  -0.17     0.01  -0.01   0.02
  15   1     0.13  -0.05   0.10    -0.37   0.08  -0.17    -0.01   0.01  -0.02
  16   1     0.18  -0.05   0.10    -0.32   0.07  -0.23    -0.11   0.03  -0.03
  17   1    -0.19   0.05  -0.11    -0.32   0.12  -0.20     0.10  -0.01   0.04
  18   1    -0.33   0.16   0.09     0.05  -0.03  -0.02    -0.00   0.01   0.01
  19   1    -0.38  -0.21  -0.06     0.06   0.02  -0.00     0.01   0.02   0.01
  20   1     0.38  -0.20  -0.11     0.05  -0.01  -0.01    -0.01   0.02   0.01
  21   1     0.33   0.17   0.04     0.04   0.03   0.00     0.01   0.02   0.01
                     37                     38                     39
                        a                      a                      a 
 Frequencies --  1350.3002              1362.9769              1384.3986
 Red. masses --     4.3405                 2.9093                 1.5623
 Frc consts  --     0.0000                 0.0000                 0.0000
 IR Inten    --    23.3425               294.4086               119.8796
 Raman Activ --     0.0000                 0.0000                 0.0000
 Depolar     --     0.0000                 0.0000                 0.0000
 Atom AN      X      Y      Z        X      Y      Z        X      Y      Z
   1   7     0.16   0.03  -0.08    -0.33   0.05  -0.09     0.01   0.18   0.07
   2   6     0.27  -0.05   0.12     0.13  -0.04   0.10    -0.01   0.05   0.01
   3   6    -0.37   0.06  -0.13    -0.06   0.00  -0.00     0.00  -0.00   0.01
   4   6     0.09  -0.02   0.04     0.02  -0.00  -0.00    -0.00   0.00   0.00
   5   6     0.03  -0.02  -0.01    -0.00   0.00   0.00    -0.02  -0.00   0.00
   6   6    -0.01   0.03   0.01     0.00   0.00   0.00     0.02   0.00  -0.00
   7   6    -0.03  -0.00   0.00    -0.00  -0.00   0.00     0.00   0.00   0.00
   8  35     0.00  -0.00   0.00     0.00  -0.00  -0.00    -0.00  -0.00  -0.00
   9   6    -0.01  -0.03  -0.02    -0.00  -0.00  -0.00    -0.02   0.00   0.00
  10   6     0.03   0.02   0.00     0.00  -0.00  -0.00     0.02  -0.00  -0.00
  11   1    -0.19   0.10   0.11     0.40  -0.11   0.22    -0.30   0.08  -0.34
  12   1    -0.15  -0.03   0.05     0.48   0.08  -0.23    -0.01  -0.67  -0.28
  13   1    -0.19  -0.15   0.01     0.40  -0.10   0.24     0.26  -0.23   0.30
  14   1    -0.31   0.09  -0.15    -0.18   0.04  -0.13     0.06  -0.01   0.01
  15   1    -0.32   0.06  -0.17    -0.18   0.07  -0.12    -0.04  -0.01   0.00
  16   1     0.32  -0.08   0.19     0.02  -0.01   0.01     0.01  -0.00  -0.00
  17   1     0.32  -0.09   0.19     0.02   0.00   0.01    -0.02   0.01  -0.01
  18   1    -0.03   0.01   0.02    -0.00   0.00   0.00     0.00  -0.00  -0.00
  19   1    -0.04  -0.01   0.00    -0.00  -0.00   0.00    -0.01  -0.01  -0.00
  20   1    -0.04   0.01   0.01    -0.00  -0.00  -0.00     0.01  -0.01  -0.00
  21   1    -0.03  -0.02   0.00    -0.00  -0.00   0.00    -0.00  -0.01  -0.00
                     40                     41                     42
                        a                      a                      a 
 Frequencies --  1392.0870              1414.3546              1478.4609
 Red. masses --     1.8263                 9.5852                 8.3155
 Frc consts  --     0.0000                 0.0000                 0.0000
 IR Inten    --   100.1425                 0.0125                47.9489
 Raman Activ --     0.0000                 0.0000                 0.0000
 Depolar     --     0.0000                 0.0000                 0.0000
 Atom AN      X      Y      Z        X      Y      Z        X      Y      Z
   1   7     0.08   0.06  -0.16     0.00  -0.00  -0.00    -0.01  -0.00   0.00
   2   6    -0.10   0.05  -0.11    -0.00  -0.01  -0.01    -0.05  -0.04   0.09
   3   6     0.07  -0.02   0.05     0.00  -0.07  -0.03     0.11  -0.00   0.00
   4   6    -0.01   0.00  -0.01     0.00   0.42   0.18    -0.39  -0.01   0.03
   5   6    -0.00   0.00   0.00    -0.28  -0.13  -0.03     0.12  -0.21  -0.10
   6   6    -0.00  -0.00  -0.00     0.26  -0.14  -0.08     0.27   0.24   0.08
   7   6     0.00  -0.00  -0.00     0.01   0.39   0.17    -0.28  -0.00   0.02
   8  35    -0.00   0.00  -0.00    -0.00  -0.01  -0.00     0.00   0.00  -0.00
   9   6     0.00   0.00   0.00    -0.27  -0.14  -0.04     0.26  -0.23  -0.12
  10   6    -0.01  -0.00   0.00     0.28  -0.12  -0.07     0.12   0.22   0.08
  11   1    -0.23   0.18   0.59     0.01  -0.00   0.01    -0.01   0.00   0.00
  12   1     0.16   0.06  -0.07     0.00   0.02   0.01    -0.01  -0.00   0.00
  13   1    -0.26  -0.52   0.25    -0.01   0.00  -0.01    -0.01  -0.00   0.00
  14   1     0.14  -0.03   0.09     0.01  -0.00   0.01     0.11  -0.08  -0.22
  15   1     0.15  -0.05   0.08    -0.00   0.00  -0.01     0.11   0.21  -0.09
  16   1    -0.05   0.00  -0.06    -0.13   0.03  -0.02     0.03  -0.01  -0.03
  17   1    -0.04   0.04  -0.04     0.13   0.00   0.03     0.03   0.03  -0.02
  18   1     0.00   0.00  -0.00     0.13  -0.15  -0.08    -0.20   0.06   0.04
  19   1     0.01   0.00   0.00    -0.13  -0.16  -0.06    -0.22  -0.09  -0.02
  20   1     0.00   0.00  -0.00     0.13  -0.16  -0.08    -0.21   0.08   0.05
  21   1     0.00   0.00  -0.00    -0.13  -0.15  -0.05    -0.20  -0.06  -0.01
                     43                     44                     45
                        a                      a                      a 
 Frequencies --  1484.4331              1495.6478              1600.8490
 Red. masses --     2.7771                 2.2256                11.5630
 Frc consts  --     0.0000                 0.0000                 0.0000
 IR Inten    --     8.0221                12.5385                 5.3794
 Raman Activ --     0.0000                 0.0000                 0.0000
 Depolar     --     0.0000                 0.0000                 0.0000
 Atom AN      X      Y      Z        X      Y      Z        X      Y      Z
   1   7     0.00  -0.00   0.01    -0.00   0.01  -0.02    -0.00   0.00  -0.00
   2   6    -0.11  -0.09   0.20     0.04   0.01  -0.03     0.01  -0.00   0.01
   3   6    -0.03   0.02  -0.05     0.20   0.09  -0.22     0.06   0.01  -0.01
   4   6     0.15   0.00  -0.01    -0.08   0.00  -0.01    -0.33  -0.01   0.02
   5   6    -0.04   0.08   0.04    -0.01  -0.02  -0.01     0.45  -0.13  -0.09
   6   6    -0.10  -0.09  -0.03     0.05   0.02   0.01    -0.41  -0.11  -0.01
   7   6     0.11   0.00  -0.01    -0.04  -0.00   0.00     0.17   0.00  -0.01
   8  35    -0.00  -0.00   0.00     0.00  -0.00   0.00     0.01   0.00  -0.00
   9   6    -0.10   0.09   0.04     0.05  -0.02  -0.01    -0.40   0.10   0.07
  10   6    -0.05  -0.08  -0.03    -0.01   0.02   0.01     0.46   0.15   0.03
  11   1    -0.04   0.01   0.01    -0.01   0.01   0.03     0.00  -0.00   0.00
  12   1    -0.02  -0.01   0.01     0.01  -0.00  -0.01    -0.00   0.00  -0.00
  13   1    -0.04  -0.02   0.00    -0.00  -0.03   0.02     0.00  -0.00   0.00
  14   1     0.26  -0.19  -0.53    -0.05   0.04   0.08    -0.01   0.00   0.00
  15   1     0.27   0.51  -0.23    -0.06  -0.08   0.03    -0.01  -0.00  -0.00
  16   1    -0.05   0.03   0.11    -0.27   0.20   0.56     0.00   0.00   0.02
  17   1    -0.05  -0.10   0.05    -0.28  -0.54   0.24     0.00  -0.01   0.01
  18   1     0.09  -0.03  -0.01     0.00  -0.01  -0.00    -0.08   0.07   0.03
  19   1     0.08   0.03   0.01    -0.02  -0.01  -0.00     0.06   0.06   0.02
  20   1     0.08  -0.03  -0.02    -0.02   0.01   0.01     0.06  -0.06  -0.03
  21   1     0.09   0.03   0.01     0.00   0.01   0.00    -0.08  -0.07  -0.02
                     46                     47                     48
                        a                      a                      a 
 Frequencies --  1603.9855              2949.9612              2967.8714
 Red. masses --    11.7048                 1.9349                 2.0093
 Frc consts  --     0.0000                 0.0000                 0.0000
 IR Inten    --     1.9313                10.8834                13.1291
 Raman Activ --     0.0000                 0.0000                 0.0000
 Depolar     --     0.0000                 0.0000                 0.0000
 Atom AN      X      Y      Z        X      Y      Z        X      Y      Z
   1   7    -0.00   0.00   0.00    -0.00   0.00   0.00    -0.00  -0.00  -0.00
   2   6     0.00   0.00   0.00     0.00   0.10   0.04     0.00   0.25   0.11
   3   6     0.00   0.04   0.02    -0.00  -0.25  -0.11     0.00   0.11   0.05
   4   6    -0.01  -0.46  -0.19    -0.00  -0.01  -0.00     0.00   0.00   0.00
   5   6    -0.13   0.25   0.12     0.00   0.00   0.00    -0.00  -0.00  -0.00
   6   6    -0.16  -0.29  -0.11    -0.00  -0.00   0.00     0.00   0.00   0.00
   7   6     0.01   0.50   0.21     0.00   0.00   0.00    -0.00  -0.00  -0.00
   8  35    -0.00  -0.00  -0.00    -0.00   0.00   0.00     0.00   0.00   0.00
   9   6     0.16  -0.28  -0.13     0.00  -0.00  -0.00    -0.00   0.00   0.00
  10   6     0.14   0.25   0.10    -0.00   0.00   0.00     0.00  -0.00  -0.00
  11   1    -0.00   0.00  -0.00     0.00   0.00  -0.00     0.00   0.01  -0.00
  12   1    -0.00  -0.00  -0.00     0.00  -0.00  -0.00     0.00  -0.00  -0.00
  13   1     0.00  -0.00   0.00    -0.00   0.00   0.00    -0.00   0.01   0.01
  14   1    -0.00   0.00  -0.00    -0.09  -0.25   0.05    -0.20  -0.57   0.11
  15   1     0.00  -0.00   0.00     0.08  -0.14  -0.22     0.19  -0.32  -0.50
  16   1     0.06  -0.01   0.01     0.20   0.58  -0.11    -0.09  -0.25   0.05
  17   1    -0.06  -0.00  -0.01    -0.19   0.32   0.50     0.08  -0.14  -0.21
  18   1     0.07   0.01  -0.00    -0.00  -0.00  -0.00     0.00   0.00   0.00
  19   1     0.06  -0.02  -0.01     0.00   0.00  -0.00    -0.00   0.00  -0.00
  20   1    -0.07  -0.02  -0.00    -0.00  -0.00   0.00    -0.00  -0.00   0.00
  21   1    -0.07   0.01   0.01     0.00  -0.00  -0.00    -0.00   0.00   0.00
                     49                     50                     51
                        a                      a                      a 
 Frequencies --  2977.6314              2991.1018              3100.4313
 Red. masses --     1.4904                 1.5340                 1.8125
 Frc consts  --     0.0000                 0.0000                 0.0000
 IR Inten    --    13.5695                23.5137                 8.9901
 Raman Activ --     0.0000                 0.0000                 0.0000
 Depolar     --     0.0000                 0.0000                 0.0000
 Atom AN      X      Y      Z        X      Y      Z        X      Y      Z
   1   7    -0.00  -0.00   0.00     0.00  -0.00   0.00     0.00  -0.00  -0.00
   2   6    -0.04  -0.03   0.06     0.10   0.07  -0.16     0.00  -0.00  -0.00
   3   6     0.10   0.06  -0.16     0.04   0.03  -0.07     0.00   0.00   0.00
   4   6     0.01   0.00  -0.00     0.00   0.00  -0.00    -0.00  -0.00  -0.00
   5   6    -0.00  -0.00  -0.00    -0.00   0.00   0.00    -0.03  -0.04  -0.02
   6   6     0.00   0.00   0.00     0.00  -0.00  -0.00    -0.10   0.15   0.07
   7   6    -0.00  -0.00   0.00    -0.00  -0.00   0.00    -0.00   0.00   0.00
   8  35     0.00   0.00  -0.00    -0.00   0.00  -0.00     0.00  -0.00  -0.00
   9   6     0.00  -0.00   0.00     0.00   0.00   0.00     0.09   0.14   0.05
  10   6    -0.00   0.00   0.00    -0.00  -0.00  -0.00     0.02  -0.04  -0.02
  11   1    -0.00  -0.01  -0.00     0.01   0.02  -0.00     0.00   0.00  -0.00
  12   1    -0.00   0.00  -0.00     0.00   0.00  -0.00    -0.00  -0.00  -0.00
  13   1    -0.00   0.01   0.00     0.01  -0.01  -0.01    -0.00   0.00   0.00
  14   1     0.08   0.25  -0.03    -0.19  -0.61   0.07    -0.00   0.00  -0.00
  15   1     0.07  -0.15  -0.20    -0.18   0.36   0.49     0.00   0.00   0.00
  16   1    -0.18  -0.61   0.08    -0.07  -0.25   0.03     0.00   0.00  -0.00
  17   1    -0.17   0.37   0.50    -0.07   0.15   0.20    -0.00   0.00   0.00
  18   1     0.00   0.00   0.00     0.00  -0.00  -0.00     0.11   0.17   0.06
  19   1     0.00  -0.00  -0.00    -0.00   0.00   0.00     0.34  -0.53  -0.25
  20   1     0.00   0.00   0.00    -0.00  -0.00  -0.00    -0.32  -0.50  -0.19
  21   1     0.00  -0.00  -0.00     0.00   0.00   0.00    -0.09   0.15   0.07
                     52                     53                     54
                        a                      a                      a 
 Frequencies --  3101.5623              3118.9199              3120.7614
 Red. masses --     1.8114                 1.8655                 1.8685
 Frc consts  --     0.0000                 0.0000                 0.0000
 IR Inten    --    38.8946                40.4495                 1.3820
 Raman Activ --     0.0000                 0.0000                 0.0000
 Depolar     --     0.0000                 0.0000                 0.0000
 Atom AN      X      Y      Z        X      Y      Z        X      Y      Z
   1   7    -0.00   0.00  -0.00     0.00  -0.00  -0.00     0.00  -0.00   0.00
   2   6     0.00   0.00  -0.00     0.00   0.00   0.00    -0.00  -0.00   0.00
   3   6    -0.00  -0.00   0.00    -0.00   0.00   0.00    -0.00   0.00  -0.00
   4   6    -0.00   0.00   0.00    -0.00   0.00   0.00     0.01   0.00  -0.00
   5   6    -0.02  -0.04  -0.01     0.09   0.14   0.05     0.10   0.16   0.06
   6   6    -0.09   0.14   0.07    -0.03   0.05   0.02    -0.03   0.05   0.02
   7   6    -0.01  -0.00   0.00     0.00  -0.00  -0.00    -0.01  -0.00   0.00
   8  35     0.00   0.00  -0.00    -0.00   0.00   0.00     0.00   0.00  -0.00
   9   6    -0.10  -0.16  -0.06     0.03   0.05   0.02    -0.03  -0.05  -0.02
  10   6    -0.03   0.04   0.02    -0.10   0.16   0.07     0.08  -0.14  -0.07
  11   1    -0.00  -0.00   0.00     0.00   0.00  -0.00     0.00  -0.00  -0.00
  12   1     0.00  -0.00   0.00     0.00  -0.00  -0.00    -0.00   0.00  -0.00
  13   1    -0.00   0.00   0.00    -0.00   0.00   0.00    -0.00   0.00   0.00
  14   1    -0.00  -0.00   0.00     0.00  -0.00   0.00     0.00   0.00  -0.00
  15   1    -0.00   0.00   0.00    -0.00   0.00  -0.00    -0.00  -0.00  -0.00
  16   1     0.00   0.00  -0.00    -0.00  -0.00   0.00    -0.00  -0.00   0.00
  17   1     0.00  -0.00  -0.00     0.00  -0.00  -0.00    -0.00   0.00   0.00
  18   1     0.10   0.15   0.06    -0.31  -0.49  -0.19    -0.34  -0.55  -0.21
  19   1     0.31  -0.49  -0.23     0.09  -0.15  -0.07     0.10  -0.16  -0.08
  20   1     0.35   0.55   0.20    -0.11  -0.17  -0.06     0.10   0.15   0.06
  21   1     0.10  -0.17  -0.08     0.33  -0.54  -0.25    -0.29   0.49   0.23
                     55                     56                     57
                        a                      a                      a 
 Frequencies --  3272.8244              3280.6609              3302.5887
 Red. masses --     2.0471                 2.0518                 1.2994
 Frc consts  --     0.0000                 0.0000                 0.0000
 IR Inten    --   198.1999               175.0680                78.1842
 Raman Activ --     0.0000                 0.0000                 0.0000
 Depolar     --     0.0000                 0.0000                 0.0000
 Atom AN      X      Y      Z        X      Y      Z        X      Y      Z
   1   7    -0.04   0.08  -0.27    -0.01   0.27   0.08    -0.14  -0.04   0.04
   2   6     0.00   0.00  -0.00    -0.00   0.01   0.00    -0.01  -0.00   0.00
   3   6     0.00   0.00  -0.00     0.00  -0.00  -0.00     0.00   0.00  -0.00
   4   6    -0.00  -0.00   0.00    -0.00  -0.00   0.00    -0.00  -0.00   0.00
   5   6     0.00   0.00   0.00     0.00   0.00   0.00     0.00   0.00   0.00
   6   6     0.00  -0.00   0.00     0.00   0.00   0.00    -0.00   0.00   0.00
   7   6     0.00  -0.00   0.00    -0.00  -0.00  -0.00    -0.00   0.00  -0.00
   8  35    -0.00   0.00  -0.00    -0.00   0.00   0.00     0.00  -0.00  -0.00
   9   6     0.00  -0.00   0.00    -0.00   0.00   0.00    -0.00  -0.00  -0.00
  10   6     0.00  -0.00  -0.00    -0.00   0.00   0.00     0.00  -0.00  -0.00
  11   1    -0.08  -0.21   0.01    -0.22  -0.62   0.10     0.21   0.63  -0.08
  12   1     0.33  -0.31   0.72     0.05  -0.02   0.12     0.16  -0.17   0.38
  13   1    -0.12   0.23   0.28     0.21  -0.37  -0.53     0.17  -0.33  -0.44
  14   1    -0.00  -0.01   0.00    -0.00  -0.01   0.00     0.01   0.01  -0.00
  15   1    -0.00   0.00   0.01     0.00  -0.01  -0.01     0.01  -0.01  -0.01
  16   1    -0.00  -0.00   0.00     0.00  -0.00   0.00    -0.00  -0.00   0.00
  17   1    -0.00   0.00   0.00    -0.00   0.00   0.00    -0.00   0.00   0.00
  18   1    -0.00  -0.00  -0.00    -0.00  -0.00  -0.00    -0.00  -0.00  -0.00
  19   1    -0.00   0.00   0.00     0.00  -0.00  -0.00     0.00  -0.00  -0.00
  20   1    -0.00  -0.00   0.00    -0.00  -0.00  -0.00     0.00   0.00  -0.00
  21   1    -0.00   0.00   0.00     0.00  -0.00  -0.00    -0.00   0.00   0.00
