      -----------------------------------------------------------      
     |                   =====================                   |     
     |                           x T B                           |     
     |                   =====================                   |     
     |                         S. Grimme                         |     
     |          Mulliken Center for Theoretical Chemistry        |     
     |                    University of Bonn                     |     
      -----------------------------------------------------------      

   * xtb version 6.5.1 (fef0646) compiled by 'conda@b96dff2e9fd6' on 2023-01-04

   xtb is free software: you can redistribute it and/or modify it under
   the terms of the GNU Lesser General Public License as published by
   the Free Software Foundation, either version 3 of the License, or
   (at your option) any later version.
   
   xtb is distributed in the hope that it will be useful,
   but WITHOUT ANY WARRANTY; without even the implied warranty of
   MERCHANTABILITY or FITNESS FOR A PARTICULAR PURPOSE.  See the
   GNU Lesser General Public License for more details.
   
   Cite this work as:
   * C. Bannwarth, E. Caldeweyher, S. Ehlert, A. Hansen, P. Pracht,
     J. Seibert, S. Spicher, S. Grimme, WIREs Comput. Mol. Sci., 2020, 11,
     e01493. DOI: 10.1002/wcms.1493
   
   for GFN2-xTB:
   * C. Bannwarth, S. Ehlert and S. Grimme., J. Chem. Theory Comput., 2019,
     15, 1652-1671. DOI: 10.1021/acs.jctc.8b01176
   for GFN1-xTB:
   * S. Grimme, C. Bannwarth, P. Shushkov, J. Chem. Theory Comput., 2017,
     13, 1989-2009. DOI: 10.1021/acs.jctc.7b00118
   for GFN0-xTB:
   * P. Pracht, E. Caldeweyher, S. Ehlert, S. Grimme, ChemRxiv, 2019, preprint.
     DOI: 10.26434/chemrxiv.8326202.v1
   for GFN-FF:
   * S. Spicher and S. Grimme, Angew. Chem. Int. Ed., 2020, 59, 15665-15673.
     DOI: 10.1002/anie.202004239
   
   for ALPB and GBSA implicit solvation:
   * S. Ehlert, M. Stahn, S. Spicher, S. Grimme, J. Chem. Theory Comput.,
     2021, 17, 4250-4261. DOI: 10.1021/acs.jctc.1c00471
   
   for DFT-D4:
   * E. Caldeweyher, C. Bannwarth and S. Grimme, J. Chem. Phys., 2017,
     147, 034112. DOI: 10.1063/1.4993215
   * E. Caldeweyher, S. Ehlert, A. Hansen, H. Neugebauer, S. Spicher,
     C. Bannwarth and S. Grimme, J. Chem. Phys., 2019, 150, 154122.
     DOI: 10.1063/1.5090222
   * E. Caldeweyher, J.-M. Mewes, S. Ehlert and S. Grimme, Phys. Chem. Chem. Phys.
     2020, 22, 8499-8512. DOI: 10.1039/D0CP00502A
   
   for sTDA-xTB:
   * S. Grimme and C. Bannwarth, J. Chem. Phys., 2016, 145, 054103.
     DOI: 10.1063/1.4959605
   
   in the mass-spec context:
   * V. Asgeirsson, C. Bauer and S. Grimme, Chem. Sci., 2017, 8, 4879.
     DOI: 10.1039/c7sc00601b
   * J. Koopman and S. Grimme, ACS Omega 2019, 4, 12, 15120-15133.
     DOI: 10.1021/acsomega.9b02011
   
   for metadynamics refer to:
   * S. Grimme, J. Chem. Theory Comput., 2019, 155, 2847-2862
     DOI: 10.1021/acs.jctc.9b00143
   
   for SPH calculations refer to:
   * S. Spicher and S. Grimme, J. Chem. Theory Comput., 2021, 17, 1701-1714
     DOI: 10.1021/acs.jctc.0c01306
   
   with help from (in alphabetical order)
   P. Atkinson, C. Bannwarth, F. Bohle, G. Brandenburg, E. Caldeweyher
   M. Checinski, S. Dohm, S. Ehlert, S. Ehrlich, I. Gerasimov, C. Hölzer
   A. Katbashev, J. Koopman, C. Lavigne, S. Lehtola, F. März, M. Müller,
   F. Musil, H. Neugebauer, J. Pisarek, C. Plett, P. Pracht, F. Pultar,
   J. Seibert, P. Shushkov, S. Spicher, M. Stahn, M. Steiner, T. Strunk,
   J. Stückrath, T. Rose, and J. Unsleber
   
 * started run on 2023/01/23 at 18:38:31.059     

           -------------------------------------------------
          |                Calculation Setup                |
           -------------------------------------------------

          program call               : xtb init.xyz --opt -c 0 -u 0 -P 16 --input xtb.inp
          hostname                   : gpg-woodward
          coordinate file            : init.xyz
          omp threads                :                    16

   ID    Z sym.   atoms
    1    7 N      1
    2    6 C      2-7
    3   17 Cl     8
    4    1 H      9-16

molecular fragmentation (1/2 indicates fragments):
1111111211111111
# atoms in fragment 1/2:    15     1
 fragment masses (1/2) :       94.13       35.45
CMA distance (Bohr)    :   8.284
constraining FC (au)   :  0.0500

           -------------------------------------------------
          |                 G F N 2 - x T B                 |
           -------------------------------------------------

        Reference                      10.1021/acs.jctc.8b01176
      * Hamiltonian:
        H0-scaling (s, p, d)           1.850000    2.230000    2.230000
        zeta-weighting                 0.500000
      * Dispersion:
        s8                             2.700000
        a1                             0.520000
        a2                             5.000000
        s9                             5.000000
      * Repulsion:
        kExp                           1.500000    1.000000
        rExp                           1.000000
      * Coulomb:
        alpha                          2.000000
        third order                    shell-resolved
        anisotropic                    true
        a3                             3.000000
        a5                             4.000000
        cn-shift                       1.200000
        cn-exp                         4.000000
        max-rad                        5.000000


          ...................................................
          :                      SETUP                      :
          :.................................................:
          :  # basis functions                  46          :
          :  # atomic orbitals                  45          :
          :  # shells                           25          :
          :  # electrons                        44          :
          :  max. iterations                   250          :
          :  Hamiltonian                  GFN2-xTB          :
          :  restarted?                      false          :
          :  GBSA solvation                  false          :
          :  PC potential                    false          :
          :  electronic temp.          300.0000000     K    :
          :  accuracy                    1.0000000          :
          :  -> integral cutoff          0.2500000E+02      :
          :  -> integral neglect         0.1000000E-07      :
          :  -> SCF convergence          0.1000000E-05 Eh   :
          :  -> wf. convergence          0.1000000E-03 e    :
          :  Broyden damping             0.4000000          :
          ...................................................

 iter      E             dE          RMSdq      gap      omega  full diag
   1    -24.5809872 -0.245810E+02  0.516E+00    4.25       0.0  T
   2    -24.6878310 -0.106844E+00  0.307E+00    3.46       1.0  T
   3    -24.6911596 -0.332860E-02  0.157E+00    2.40       1.0  T
   4    -24.6930316 -0.187195E-02  0.850E-01    2.09       1.0  T
   5    -24.6977172 -0.468568E-02  0.334E-01    2.04       1.0  T
   6    -24.6979955 -0.278263E-03  0.246E-01    2.08       1.0  T
   7    -24.6982978 -0.302281E-03  0.139E-01    2.12       1.0  T
   8    -24.6984351 -0.137315E-03  0.485E-02    2.13       1.0  T
   9    -24.6984420 -0.693036E-05  0.193E-02    2.13       1.3  T
  10    -24.6984469 -0.489720E-05  0.582E-03    2.13       4.3  T
  11    -24.6984470 -0.601261E-07  0.209E-03    2.12      12.0  T
  12    -24.6984470 -0.146521E-07  0.619E-04    2.12      40.4  T
  13    -24.6984470 -0.381029E-09  0.350E-04    2.12      71.3  T

   *** convergence criteria satisfied after 13 iterations ***

         #    Occupation            Energy/Eh            Energy/eV
      -------------------------------------------------------------
         1        2.0000           -0.9548327             -25.9823
       ...           ...                  ...                  ...
        16        2.0000           -0.4693383             -12.7713
        17        2.0000           -0.4602321             -12.5236
        18        2.0000           -0.4410607             -12.0019
        19        2.0000           -0.4390064             -11.9460
        20        2.0000           -0.3539169              -9.6306
        21        2.0000           -0.3419646              -9.3053
        22        2.0000           -0.3416631              -9.2971 (HOMO)
        23                         -0.2635862              -7.1725 (LUMO)
        24                         -0.2623555              -7.1391
        25                         -0.1367843              -3.7221
        26                         -0.0589880              -1.6051
        27                          0.0591373               1.6092
       ...                                ...                  ...
        45                          0.5995378              16.3143
      -------------------------------------------------------------
                  HL-Gap            0.0780770 Eh            2.1246 eV
             Fermi-level           -0.3026246 Eh           -8.2348 eV

 SCC (total)                   0 d,  0 h,  0 min,  0.037 sec
 SCC setup                      ...        0 min,  0.001 sec (  1.355%)
 Dispersion                     ...        0 min,  0.000 sec (  1.302%)
 classical contributions        ...        0 min,  0.000 sec (  0.700%)
 integral evaluation            ...        0 min,  0.002 sec (  4.635%)
 iterations                     ...        0 min,  0.029 sec ( 78.469%)
 molecular gradient             ...        0 min,  0.005 sec ( 12.668%)
 printout                       ...        0 min,  0.000 sec (  0.476%)

         :::::::::::::::::::::::::::::::::::::::::::::::::::::
         ::                     SUMMARY                     ::
         :::::::::::::::::::::::::::::::::::::::::::::::::::::
         :: total energy             -24.355629271578 Eh    ::
         :: gradient norm              0.063071480393 Eh/a0 ::
         :: HOMO-LUMO gap              2.124582092952 eV    ::
         ::.................................................::
         :: SCC energy               -24.698446992173 Eh    ::
         :: -> isotropic ES            0.085635405874 Eh    ::
         :: -> anisotropic ES         -0.022761053993 Eh    ::
         :: -> anisotropic XC          0.003578046426 Eh    ::
         :: -> dispersion             -0.011650267345 Eh    ::
         :: repulsion energy           0.342780542450 Eh    ::
         :: add. restraining           0.000000000000 Eh    ::
         :: total charge               0.000000000000 e     ::
         :::::::::::::::::::::::::::::::::::::::::::::::::::::

      ----------------------------------------------------------- 
     |                   =====================                   |
     |                        A N C O P T                        |
     |                   =====================                   |
     |               Approximate Normal Coordinate               |
     |                Rational Function Optimizer                |
      ----------------------------------------------------------- 

          ...................................................
          :                      SETUP                      :
          :.................................................:
          :   optimization level            normal          :
          :   max. optcycles                   200          :
          :   ANC micro-cycles                  20          :
          :   degrees of freedom                42          :
          :.................................................:
          :   RF solver                   davidson          :
          :   write xtbopt.log                true          :
          :   linear?                        false          :
          :   energy convergence         0.5000000E-05 Eh   :
          :   grad. convergence          0.1000000E-02 Eh/α :
          :   maximium RF displ.         1.0000000          :
          :   Hlow (freq-cutoff)         0.1000000E-01      :
          :   Hmax (freq-cutoff)         5.0000000          :
          :   S6 in model hess.         20.0000000          :
          ...................................................

generating ANC from model Hessian ...
Using Lindh-Hessian (1995)
 Shifting diagonal of input Hessian by    9.8027222942523012E-003
 Lowest  eigenvalues of input Hessian
    0.000000    0.000000    0.000000    0.000000    0.000000    0.000000
    0.010000    0.011506    0.016551    0.022275    0.026813    0.029107
    0.032752    0.034103    0.047133    0.065904    0.070605    0.079850
 Highest eigenvalues
    1.450076    1.592042    1.707450    1.859193    1.982970    2.014607


........................................................................
.............................. CYCLE    1 ..............................
........................................................................
   1    -24.6984470 -0.246984E+02  0.210E-04    2.12       0.0  T
   2    -24.6984470 -0.763976E-10  0.168E-04    2.12     148.5  T
   3    -24.6984470 -0.630536E-10  0.104E-04    2.12     240.0  T
     SCC iter.                  ...        0 min,  0.007 sec
     gradient                   ...        0 min,  0.004 sec
 * total energy  :   -24.3556293 Eh     change       -0.8531593E-09 Eh
   gradient norm :     0.0630703 Eh/α   predicted     0.0000000E+00 (-100.00%)
   displ. norm   :     0.2516709 α      lambda       -0.1024629E-01
   maximum displ.:     0.1256726 α      in ANC's #9, #11, #18, ...

........................................................................
.............................. CYCLE    2 ..............................
........................................................................
   1    -24.7140692 -0.247141E+02  0.345E-01    2.39       0.0  T
   2    -24.7143392 -0.270079E-03  0.204E-01    2.50       1.0  T
   3    -24.7143632 -0.239690E-04  0.752E-02    2.62       1.0  T
   4    -24.7143708 -0.757817E-05  0.431E-02    2.64       1.0  T
   5    -24.7143820 -0.111903E-04  0.296E-02    2.64       1.0  T
   6    -24.7143859 -0.389659E-05  0.167E-02    2.64       1.5  T
   7    -24.7143877 -0.183660E-05  0.867E-03    2.63       2.9  T
   8    -24.7143882 -0.539749E-06  0.331E-03    2.63       7.5  T
   9    -24.7143883 -0.522581E-07  0.775E-04    2.64      32.3  T
  10    -24.7143883 -0.272128E-08  0.456E-04    2.63      54.8  T
     SCC iter.                  ...        0 min,  0.019 sec
     gradient                   ...        0 min,  0.004 sec
 * total energy  :   -24.3630066 Eh     change       -0.7377351E-02 Eh
   gradient norm :     0.0509527 Eh/α   predicted    -0.5447631E-02 ( -26.16%)
   displ. norm   :     0.3384072 α      lambda       -0.8671629E-02
   maximum displ.:     0.1195021 α      in ANC's #4, #5, #2, ...

........................................................................
.............................. CYCLE    3 ..............................
........................................................................
   1    -24.7269940 -0.247270E+02  0.371E-01    2.79       0.0  T
   2    -24.7273840 -0.390066E-03  0.225E-01    2.94       1.0  T
   3    -24.7274057 -0.216536E-04  0.955E-02    3.08       1.0  T
   4    -24.7274367 -0.310424E-04  0.575E-02    3.12       1.0  T
   5    -24.7274597 -0.229163E-04  0.361E-02    3.12       1.0  T
   6    -24.7274650 -0.537717E-05  0.219E-02    3.12       1.1  T
   7    -24.7274684 -0.335634E-05  0.110E-02    3.12       2.3  T
   8    -24.7274692 -0.835479E-06  0.440E-03    3.12       5.7  T
   9    -24.7274693 -0.919266E-07  0.167E-03    3.12      15.0  T
  10    -24.7274693 -0.172029E-07  0.112E-03    3.12      22.3  T
  11    -24.7274693 -0.568343E-08  0.503E-04    3.12      49.7  T
  12    -24.7274693 -0.130350E-08  0.172E-04    3.12     145.5  T
     SCC iter.                  ...        0 min,  0.023 sec
     gradient                   ...        0 min,  0.003 sec
 * total energy  :   -24.3691580 Eh     change       -0.6151406E-02 Eh
   gradient norm :     0.0426838 Eh/α   predicted    -0.4832353E-02 ( -21.44%)
   displ. norm   :     0.2917703 α      lambda       -0.5525394E-02
   maximum displ.:     0.1214551 α      in ANC's #5, #4, #24, ...

........................................................................
.............................. CYCLE    4 ..............................
........................................................................
   1    -24.7282679 -0.247283E+02  0.371E-01    3.20       0.0  T
   2    -24.7286588 -0.390908E-03  0.212E-01    3.42       1.0  T
   3    -24.7286937 -0.348770E-04  0.908E-02    3.61       1.0  T
   4    -24.7287241 -0.303923E-04  0.575E-02    3.65       1.0  T
   5    -24.7287460 -0.219112E-04  0.383E-02    3.66       1.0  T
   6    -24.7287532 -0.720290E-05  0.232E-02    3.66       1.1  T
   7    -24.7287575 -0.425770E-05  0.116E-02    3.66       2.2  T
   8    -24.7287585 -0.104501E-05  0.493E-03    3.66       5.1  T
   9    -24.7287587 -0.130436E-06  0.178E-03    3.66      14.1  T
  10    -24.7287587 -0.167890E-07  0.128E-03    3.66      19.5  T
  11    -24.7287587 -0.782600E-08  0.523E-04    3.66      47.8  T
  12    -24.7287587 -0.128707E-08  0.187E-04    3.66     133.8  T
     SCC iter.                  ...        0 min,  0.018 sec
     gradient                   ...        0 min,  0.002 sec
 * total energy  :   -24.3734795 Eh     change       -0.4321497E-02 Eh
   gradient norm :     0.0381348 Eh/α   predicted    -0.2997877E-02 ( -30.63%)
   displ. norm   :     0.3462977 α      lambda       -0.6093110E-02
   maximum displ.:     0.1534385 α      in ANC's #34, #5, #24, ...

........................................................................
.............................. CYCLE    5 ..............................
........................................................................
   1    -24.7310967 -0.247311E+02  0.400E-01    3.73       0.0  T
   2    -24.7315165 -0.419830E-03  0.219E-01    4.01       1.0  T
   3    -24.7315608 -0.442235E-04  0.928E-02    4.24       1.0  T
   4    -24.7315928 -0.320617E-04  0.573E-02    4.24       1.0  T
   5    -24.7316142 -0.213628E-04  0.375E-02    4.24       1.0  T
   6    -24.7316217 -0.753642E-05  0.239E-02    4.25       1.0  T
   7    -24.7316264 -0.463749E-05  0.134E-02    4.25       1.9  T
   8    -24.7316280 -0.160594E-05  0.597E-03    4.25       4.2  T
   9    -24.7316282 -0.234815E-06  0.178E-03    4.25      14.1  T
  10    -24.7316282 -0.933558E-08  0.134E-03    4.25      18.7  T
  11    -24.7316282 -0.918696E-08  0.631E-04    4.25      39.6  T
  12    -24.7316282 -0.207504E-08  0.218E-04    4.25     114.8  T
     SCC iter.                  ...        0 min,  0.018 sec
     gradient                   ...        0 min,  0.002 sec
 * total energy  :   -24.3777529 Eh     change       -0.4273423E-02 Eh
   gradient norm :     0.0228468 Eh/α   predicted    -0.3411901E-02 ( -20.16%)
   displ. norm   :     0.2807836 α      lambda       -0.3013707E-02
   maximum displ.:     0.1420204 α      in ANC's #9, #5, #34, ...

........................................................................
.............................. CYCLE    6 ..............................
........................................................................
   1    -24.7312701 -0.247313E+02  0.205E-01    4.25       0.0  T
   2    -24.7313500 -0.799846E-04  0.109E-01    4.25       1.0  T
   3    -24.7313561 -0.606009E-05  0.452E-02    4.25       1.0  T
   4    -24.7313632 -0.713659E-05  0.205E-02    4.26       1.2  T
   5    -24.7313652 -0.192003E-05  0.795E-03    4.26       3.1  T
   6    -24.7313653 -0.185449E-06  0.495E-03    4.26       5.1  T
   7    -24.7313655 -0.106134E-06  0.365E-03    4.26       6.8  T
   8    -24.7313655 -0.855414E-07  0.211E-03    4.26      11.9  T
   9    -24.7313656 -0.423883E-07  0.739E-04    4.26      33.8  T
  10    -24.7313656 -0.139748E-08  0.504E-04    4.26      49.6  T
     SCC iter.                  ...        0 min,  0.008 sec
     gradient                   ...        0 min,  0.002 sec
 * total energy  :   -24.3794513 Eh     change       -0.1698367E-02 Eh
   gradient norm :     0.0120618 Eh/α   predicted    -0.1625653E-02 (  -4.28%)
   displ. norm   :     0.2569888 α      lambda       -0.1344453E-02
   maximum displ.:     0.1515394 α      in ANC's #2, #34, #5, ...

........................................................................
.............................. CYCLE    7 ..............................
........................................................................
   1    -24.7336762 -0.247337E+02  0.204E-01    4.21       0.0  T
   2    -24.7337334 -0.571738E-04  0.115E-01    4.21       1.0  T
   3    -24.7337369 -0.347018E-05  0.595E-02    4.22       1.0  T
   4    -24.7337553 -0.184593E-04  0.308E-02    4.22       1.0  T
   5    -24.7337590 -0.366911E-05  0.223E-02    4.23       1.1  T
   6    -24.7337622 -0.317267E-05  0.123E-02    4.22       2.0  T
   7    -24.7337636 -0.147265E-05  0.545E-03    4.23       4.6  T
   8    -24.7337638 -0.201155E-06  0.287E-03    4.23       8.7  T
   9    -24.7337639 -0.450460E-07  0.182E-03    4.23      13.8  T
  10    -24.7337639 -0.120734E-07  0.143E-03    4.23      17.4  T
  11    -24.7337639 -0.149028E-07  0.392E-04    4.23      63.8  T
  12    -24.7337639 -0.394351E-09  0.125E-04    4.23     199.4  T
     SCC iter.                  ...        0 min,  0.009 sec
     gradient                   ...        0 min,  0.002 sec
 * total energy  :   -24.3798337 Eh     change       -0.3824089E-03 Eh
   gradient norm :     0.0158593 Eh/α   predicted    -0.7166245E-03 (  87.40%)
   displ. norm   :     0.0985022 α      lambda       -0.8088298E-03
   maximum displ.:     0.0546719 α      in ANC's #3, #2, #10, ...

........................................................................
.............................. CYCLE    8 ..............................
........................................................................
   1    -24.7336588 -0.247337E+02  0.965E-02    4.24       0.0  T
   2    -24.7336641 -0.531668E-05  0.596E-02    4.23       1.0  T
   3    -24.7336664 -0.228426E-05  0.220E-02    4.23       1.1  T
   4    -24.7336693 -0.292182E-05  0.166E-02    4.23       1.5  T
   5    -24.7336710 -0.167993E-05  0.110E-02    4.23       2.3  T
   6    -24.7336719 -0.903832E-06  0.549E-03    4.23       4.6  T
   7    -24.7336722 -0.287355E-06  0.221E-03    4.23      11.3  T
   8    -24.7336722 -0.244583E-07  0.129E-03    4.23      19.3  T
   9    -24.7336722 -0.586391E-08  0.897E-04    4.23      27.9  T
  10    -24.7336722 -0.514912E-08  0.501E-04    4.23      49.9  T
     SCC iter.                  ...        0 min,  0.007 sec
     gradient                   ...        0 min,  0.002 sec
 * total energy  :   -24.3803014 Eh     change       -0.4677025E-03 Eh
   gradient norm :     0.0042645 Eh/α   predicted    -0.4083387E-03 ( -12.69%)
   displ. norm   :     0.0996222 α      lambda       -0.1371928E-03
   maximum displ.:     0.0607130 α      in ANC's #3, #2, #1, ...

........................................................................
.............................. CYCLE    9 ..............................
........................................................................
   1    -24.7339533 -0.247340E+02  0.596E-02    4.22       0.0  T
   2    -24.7339545 -0.119420E-05  0.353E-02    4.23       1.0  T
   3    -24.7339537  0.852026E-06  0.140E-02    4.23       1.8  T
   4    -24.7339555 -0.179652E-05  0.630E-03    4.23       4.0  T
   5    -24.7339556 -0.128474E-06  0.438E-03    4.23       5.7  T
   6    -24.7339557 -0.885542E-07  0.239E-03    4.23      10.5  T
   7    -24.7339557 -0.368726E-07  0.860E-04    4.23      29.1  T
   8    -24.7339557 -0.191234E-08  0.397E-04    4.23      62.9  T
     SCC iter.                  ...        0 min,  0.006 sec
     gradient                   ...        0 min,  0.002 sec
 * total energy  :   -24.3803955 Eh     change       -0.9407623E-04 Eh
   gradient norm :     0.0032914 Eh/α   predicted    -0.6927890E-04 ( -26.36%)
   displ. norm   :     0.1045983 α      lambda       -0.8963054E-04
   maximum displ.:     0.0692052 α      in ANC's #3, #1, #2, ...

........................................................................
.............................. CYCLE   10 ..............................
........................................................................
   1    -24.7349507 -0.247350E+02  0.587E-02    4.22       0.0  T
   2    -24.7349517 -0.101607E-05  0.345E-02    4.22       1.0  T
   3    -24.7349508  0.961023E-06  0.133E-02    4.22       1.9  T
   4    -24.7349525 -0.167527E-05  0.495E-03    4.22       5.0  T
   5    -24.7349525 -0.695712E-07  0.339E-03    4.22       7.4  T
   6    -24.7349526 -0.496828E-07  0.189E-03    4.22      13.3  T
   7    -24.7349526 -0.210585E-07  0.611E-04    4.22      40.9  T
   8    -24.7349526 -0.574861E-09  0.198E-04    4.22     126.5  T
     SCC iter.                  ...        0 min,  0.006 sec
     gradient                   ...        0 min,  0.002 sec
 * total energy  :   -24.3804578 Eh     change       -0.6233558E-04 Eh
   gradient norm :     0.0023518 Eh/α   predicted    -0.4530780E-04 ( -27.32%)
   displ. norm   :     0.1047205 α      lambda       -0.6508922E-04
   maximum displ.:     0.0669868 α      in ANC's #1, #3, #5, ...

........................................................................
.............................. CYCLE   11 ..............................
........................................................................
   1    -24.7351841 -0.247352E+02  0.503E-02    4.21       0.0  T
   2    -24.7351849 -0.854670E-06  0.293E-02    4.22       1.0  T
   3    -24.7351841  0.828359E-06  0.119E-02    4.22       2.1  T
   4    -24.7351854 -0.129386E-05  0.320E-03    4.22       7.8  T
   5    -24.7351854 -0.255995E-07  0.229E-03    4.22      10.9  T
   6    -24.7351855 -0.199745E-07  0.152E-03    4.22      16.4  T
   7    -24.7351855 -0.123249E-07  0.821E-04    4.22      30.5  T
   8    -24.7351855 -0.434531E-08  0.250E-04    4.22      99.8  T
     SCC iter.                  ...        0 min,  0.006 sec
     gradient                   ...        0 min,  0.002 sec
 * total energy  :   -24.3805027 Eh     change       -0.4485497E-04 Eh
   gradient norm :     0.0030327 Eh/α   predicted    -0.3290104E-04 ( -26.65%)
   displ. norm   :     0.0966721 α      lambda       -0.5048638E-04
   maximum displ.:     0.0742099 α      in ANC's #1, #3, #9, ...

........................................................................
.............................. CYCLE   12 ..............................
........................................................................
   1    -24.7357185 -0.247357E+02  0.448E-02    4.21       0.0  T
   2    -24.7357192 -0.764985E-06  0.269E-02    4.22       1.0  T
   3    -24.7357187  0.512410E-06  0.101E-02    4.22       2.5  T
   4    -24.7357196 -0.897763E-06  0.388E-03    4.22       6.4  T
   5    -24.7357197 -0.390352E-07  0.282E-03    4.22       8.9  T
   6    -24.7357197 -0.308204E-07  0.157E-03    4.22      15.9  T
   7    -24.7357197 -0.120862E-07  0.772E-04    4.22      32.4  T
   8    -24.7357197 -0.305091E-08  0.111E-04    4.22     224.5  T
     SCC iter.                  ...        0 min,  0.006 sec
     gradient                   ...        0 min,  0.002 sec
 * total energy  :   -24.3805408 Eh     change       -0.3812747E-04 Eh
   gradient norm :     0.0020503 Eh/α   predicted    -0.2547903E-04 ( -33.17%)
   displ. norm   :     0.1395952 α      lambda       -0.6229819E-04
   maximum displ.:     0.1088742 α      in ANC's #1, #5, #4, ...

........................................................................
.............................. CYCLE   13 ..............................
........................................................................
   1    -24.7356003 -0.247356E+02  0.572E-02    4.21       0.0  T
   2    -24.7356015 -0.125526E-05  0.344E-02    4.21       1.0  T
   3    -24.7356009  0.591997E-06  0.120E-02    4.21       2.1  T
   4    -24.7356021 -0.120087E-05  0.547E-03    4.21       4.6  T
   5    -24.7356022 -0.842632E-07  0.406E-03    4.21       6.2  T
   6    -24.7356023 -0.740797E-07  0.180E-03    4.21      13.9  T
   7    -24.7356023 -0.173101E-07  0.806E-04    4.21      31.0  T
   8    -24.7356023 -0.336417E-08  0.188E-04    4.21     133.2  T
     SCC iter.                  ...        0 min,  0.006 sec
     gradient                   ...        0 min,  0.002 sec
 * total energy  :   -24.3805904 Eh     change       -0.4957187E-04 Eh
   gradient norm :     0.0024528 Eh/α   predicted    -0.3175708E-04 ( -35.94%)
   displ. norm   :     0.2091486 α      lambda       -0.8508232E-04
   maximum displ.:     0.1689270 α      in ANC's #1, #5, #4, ...

........................................................................
.............................. CYCLE   14 ..............................
........................................................................
   1    -24.7354809 -0.247355E+02  0.828E-02    4.21       0.0  T
   2    -24.7354827 -0.172260E-05  0.498E-02    4.21       1.0  T
   3    -24.7354828 -0.194219E-06  0.126E-02    4.21       2.0  T
   4    -24.7354838 -0.977712E-06  0.858E-03    4.21       2.9  T
   5    -24.7354841 -0.239364E-06  0.617E-03    4.21       4.1  T
   6    -24.7354843 -0.209814E-06  0.168E-03    4.21      14.8  T
   7    -24.7354843 -0.133043E-07  0.774E-04    4.21      32.3  T
   8    -24.7354843 -0.329810E-08  0.372E-04    4.21      67.2  T
     SCC iter.                  ...        0 min,  0.006 sec
     gradient                   ...        0 min,  0.002 sec
 * total energy  :   -24.3806521 Eh     change       -0.6168012E-04 Eh
   gradient norm :     0.0031073 Eh/α   predicted    -0.4440574E-04 ( -28.01%)
   displ. norm   :     0.2018374 α      lambda       -0.6373467E-04
   maximum displ.:     0.1554144 α      in ANC's #1, #5, #4, ...

........................................................................
.............................. CYCLE   15 ..............................
........................................................................
   1    -24.7352930 -0.247353E+02  0.726E-02    4.21       0.0  T
   2    -24.7352936 -0.612233E-06  0.433E-02    4.21       1.0  T
   3    -24.7352937 -0.869319E-07  0.884E-03    4.21       2.8  T
   4    -24.7352943 -0.584686E-06  0.632E-03    4.21       4.0  T
   5    -24.7352945 -0.170303E-06  0.338E-03    4.21       7.4  T
   6    -24.7352945 -0.634070E-07  0.910E-04    4.21      27.5  T
   7    -24.7352945 -0.410923E-08  0.452E-04    4.21      55.3  T
     SCC iter.                  ...        0 min,  0.005 sec
     gradient                   ...        0 min,  0.002 sec
 * total energy  :   -24.3806967 Eh     change       -0.4459304E-04 Eh
   gradient norm :     0.0034947 Eh/α   predicted    -0.3316586E-04 ( -25.63%)
   displ. norm   :     0.1497108 α      lambda       -0.5627854E-04
   maximum displ.:     0.1026903 α      in ANC's #1, #2, #5, ...

........................................................................
.............................. CYCLE   16 ..............................
........................................................................
   1    -24.7357268 -0.247357E+02  0.518E-02    4.22       0.0  T
   2    -24.7357273 -0.493616E-06  0.306E-02    4.22       1.0  T
   3    -24.7357265  0.820420E-06  0.989E-03    4.22       2.5  T
   4    -24.7357277 -0.117969E-05  0.338E-03    4.22       7.4  T
   5    -24.7357277 -0.302073E-07  0.250E-03    4.22      10.0  T
   6    -24.7357278 -0.318604E-07  0.116E-03    4.22      21.6  T
   7    -24.7357278 -0.883320E-08  0.525E-04    4.22      47.7  T
   8    -24.7357278 -0.103769E-08  0.222E-04    4.22     112.5  T
     SCC iter.                  ...        0 min,  0.006 sec
     gradient                   ...        0 min,  0.002 sec
 * total energy  :   -24.3807378 Eh     change       -0.4111176E-04 Eh
   gradient norm :     0.0024353 Eh/α   predicted    -0.2877114E-04 ( -30.02%)
   displ. norm   :     0.1401303 α      lambda       -0.4871713E-04
   maximum displ.:     0.0910038 α      in ANC's #2, #1, #5, ...

........................................................................
.............................. CYCLE   17 ..............................
........................................................................
   1    -24.7358494 -0.247358E+02  0.530E-02    4.22       0.0  T
   2    -24.7358503 -0.920224E-06  0.318E-02    4.22       1.0  T
   3    -24.7358493  0.967613E-06  0.119E-02    4.22       2.1  T
   4    -24.7358509 -0.160732E-05  0.505E-03    4.22       4.9  T
   5    -24.7358510 -0.748053E-07  0.369E-03    4.22       6.8  T
   6    -24.7358511 -0.693860E-07  0.169E-03    4.22      14.8  T
   7    -24.7358511 -0.205157E-07  0.742E-04    4.22      33.7  T
   8    -24.7358511 -0.267180E-08  0.382E-04    4.22      65.4  T
     SCC iter.                  ...        0 min,  0.006 sec
     gradient                   ...        0 min,  0.002 sec
 * total energy  :   -24.3807696 Eh     change       -0.3184727E-04 Eh
   gradient norm :     0.0012335 Eh/α   predicted    -0.2483503E-04 ( -22.02%)
   displ. norm   :     0.1143663 α      lambda       -0.2054670E-04
   maximum displ.:     0.0951873 α      in ANC's #2, #1, #23, ...

........................................................................
.............................. CYCLE   18 ..............................
........................................................................
   1    -24.7362309 -0.247362E+02  0.527E-02    4.22       0.0  T
   2    -24.7362318 -0.845903E-06  0.318E-02    4.22       1.0  T
   3    -24.7362308  0.913474E-06  0.129E-02    4.22       1.9  T
   4    -24.7362326 -0.174684E-05  0.611E-03    4.22       4.1  T
   5    -24.7362327 -0.139300E-06  0.354E-03    4.22       7.1  T
   6    -24.7362328 -0.695613E-07  0.119E-03    4.22      21.0  T
   7    -24.7362328 -0.796789E-08  0.524E-04    4.22      47.7  T
   8    -24.7362328 -0.617696E-09  0.161E-04    4.22     154.8  T
     SCC iter.                  ...        0 min,  0.006 sec
     gradient                   ...        0 min,  0.002 sec
 * total energy  :   -24.3807849 Eh     change       -0.1529229E-04 Eh
   gradient norm :     0.0029494 Eh/α   predicted    -0.1033304E-04 ( -32.43%)
   displ. norm   :     0.0259157 α      lambda       -0.1217151E-04
   maximum displ.:     0.0201715 α      in ANC's #2, #3, #1, ...

........................................................................
.............................. CYCLE   19 ..............................
........................................................................
   1    -24.7359418 -0.247359E+02  0.133E-02    4.22       0.0  T
   2    -24.7359418 -0.388658E-07  0.791E-03    4.22       3.2  T
   3    -24.7359418 -0.174555E-09  0.221E-03    4.22      11.3  T
   4    -24.7359418 -0.332164E-07  0.139E-03    4.22      18.0  T
   5    -24.7359418 -0.626981E-08  0.996E-04    4.22      25.1  T
   6    -24.7359418 -0.602096E-08  0.291E-04    4.22      85.8  T
     SCC iter.                  ...        0 min,  0.005 sec
     gradient                   ...        0 min,  0.002 sec
 * total energy  :   -24.3807942 Eh     change       -0.9279153E-05 Eh
   gradient norm :     0.0017083 Eh/α   predicted    -0.6090407E-05 ( -34.36%)
   displ. norm   :     0.0718564 α      lambda       -0.1778979E-04
   maximum displ.:     0.0492237 α      in ANC's #2, #1, #3, ...

........................................................................
.............................. CYCLE   20 ..............................
........................................................................
   1    -24.7355342 -0.247355E+02  0.361E-02    4.22       0.0  T
   2    -24.7355346 -0.441313E-06  0.215E-02    4.22       1.2  T
   3    -24.7355346 -0.986162E-09  0.562E-03    4.22       4.4  T
   4    -24.7355348 -0.199333E-06  0.352E-03    4.22       7.1  T
   5    -24.7355349 -0.416032E-07  0.263E-03    4.22       9.5  T
   6    -24.7355349 -0.340898E-07  0.968E-04    4.22      25.8  T
   7    -24.7355349 -0.506577E-08  0.369E-04    4.22      67.7  T
     SCC iter.                  ...        0 min,  0.005 sec
     gradient                   ...        0 min,  0.002 sec
 * total energy  :   -24.3808088 Eh     change       -0.1459120E-04 Eh
   gradient norm :     0.0019858 Eh/α   predicted    -0.8915229E-05 ( -38.90%)
   displ. norm   :     0.0627362 α      lambda       -0.6733619E-05
   maximum displ.:     0.0439350 α      in ANC's #1, #2, #23, ...
 * RMSD in coord.:     0.5102366 α      energy gain  -0.2517952E-01 Eh

generating ANC from model Hessian ...
Using Lindh-Hessian (1995)
 Shifting diagonal of input Hessian by    1.0027088556074955E-002
 Lowest  eigenvalues of input Hessian
    0.010000    0.000000    0.000000    0.000000    0.000000    0.000000
    0.000000    0.010836    0.012975    0.017738    0.022584    0.025121
    0.029818    0.032273    0.036372    0.040682    0.043089    0.067568
 Highest eigenvalues
    1.484870    1.639648    1.740001    1.916370    2.033254    2.084221


........................................................................
.............................. CYCLE   21 ..............................
........................................................................
   1    -24.7355227 -0.247355E+02  0.251E-02    4.22       0.0  T
   2    -24.7355228 -0.883550E-07  0.150E-02    4.22       1.7  T
   3    -24.7355227  0.536711E-07  0.390E-03    4.22       6.4  T
   4    -24.7355229 -0.159765E-06  0.242E-03    4.22      10.4  T
   5    -24.7355229 -0.306655E-07  0.750E-04    4.22      33.3  T
   6    -24.7355229 -0.279052E-08  0.275E-04    4.22      90.7  T
     SCC iter.                  ...        0 min,  0.005 sec
     gradient                   ...        0 min,  0.002 sec
 * total energy  :   -24.3808171 Eh     change       -0.8281825E-05 Eh
   gradient norm :     0.0015655 Eh/α   predicted     0.0000000E+00 (-100.00%)
   displ. norm   :     0.0349879 α      lambda       -0.1321890E-04
   maximum displ.:     0.0274589 α      in ANC's #3, #2, #11, ...

........................................................................
.............................. CYCLE   22 ..............................
........................................................................
   1    -24.7358555 -0.247359E+02  0.212E-02    4.22       0.0  T
   2    -24.7358557 -0.243427E-06  0.130E-02    4.22       1.9  T
   3    -24.7358556  0.831600E-07  0.591E-03    4.22       4.2  T
   4    -24.7358559 -0.312297E-06  0.344E-03    4.22       7.3  T
   5    -24.7358560 -0.401372E-07  0.225E-03    4.22      11.1  T
   6    -24.7358560 -0.252697E-07  0.781E-04    4.22      32.0  T
   7    -24.7358560 -0.472251E-08  0.284E-04    4.22      88.2  T
     SCC iter.                  ...        0 min,  0.005 sec
     gradient                   ...        0 min,  0.002 sec
 * total energy  :   -24.3808242 Eh     change       -0.7134398E-05 Eh
   gradient norm :     0.0006165 Eh/α   predicted    -0.6613069E-05 (  -7.31%)
   displ. norm   :     0.0339470 α      lambda       -0.7132770E-05
   maximum displ.:     0.0297232 α      in ANC's #1, #2, #3, ...

........................................................................
.............................. CYCLE   23 ..............................
........................................................................
   1    -24.7359993 -0.247360E+02  0.224E-02    4.22       0.0  T
   2    -24.7359995 -0.178112E-06  0.137E-02    4.22       1.8  T
   3    -24.7359993  0.119704E-06  0.569E-03    4.22       4.4  T
   4    -24.7359997 -0.319674E-06  0.321E-03    4.22       7.8  T
   5    -24.7359997 -0.435762E-07  0.158E-03    4.22      15.9  T
   6    -24.7359997 -0.148305E-07  0.521E-04    4.22      48.0  T
   7    -24.7359997 -0.194802E-08  0.154E-04    4.22     162.8  T
     SCC iter.                  ...        0 min,  0.005 sec
     gradient                   ...        0 min,  0.002 sec
 * total energy  :   -24.3808308 Eh     change       -0.6629069E-05 Eh
   gradient norm :     0.0006610 Eh/α   predicted    -0.3568622E-05 ( -46.17%)
   displ. norm   :     0.0349240 α      lambda       -0.3298283E-05
   maximum displ.:     0.0270843 α      in ANC's #1, #2, #3, ...

........................................................................
.............................. CYCLE   24 ..............................
........................................................................
   1    -24.7359335 -0.247359E+02  0.181E-02    4.22       0.0  T
   2    -24.7359336 -0.844334E-07  0.109E-02    4.22       2.3  T
   3    -24.7359335  0.463619E-07  0.395E-03    4.22       6.3  T
   4    -24.7359337 -0.136399E-06  0.220E-03    4.22      11.4  T
   5    -24.7359337 -0.183124E-07  0.129E-03    4.22      19.4  T
   6    -24.7359337 -0.945282E-08  0.348E-04    4.22      71.8  T
   7    -24.7359337 -0.925322E-09  0.138E-04    4.22     181.6  T
     SCC iter.                  ...        0 min,  0.005 sec
     gradient                   ...        0 min,  0.002 sec
 * total energy  :   -24.3808343 Eh     change       -0.3477909E-05 Eh
   gradient norm :     0.0003587 Eh/α   predicted    -0.1648120E-05 ( -52.61%)
   displ. norm   :     0.0467956 α      lambda       -0.2728186E-05
   maximum displ.:     0.0347466 α      in ANC's #1, #2, #3, ...

   *** GEOMETRY OPTIMIZATION CONVERGED AFTER 24 ITERATIONS ***

------------------------------------------------------------------------
 total energy gain   :        -0.0252050 Eh      -15.8164 kcal/mol
 total RMSD          :         0.5144007 a0        0.2722 Å
 total power (kW/mol):        -2.7573260 (step) -222.9122 (real)
------------------------------------------------------------------------

 ANCopt (total)                0 d,  0 h,  0 min,  0.297 sec
 optimizer setup                ...        0 min,  0.000 sec (  0.045%)
 model hessian                  ...        0 min,  0.009 sec (  3.083%)
 ANC generation                 ...        0 min,  0.001 sec (  0.505%)
 coordinate transformation      ...        0 min,  0.000 sec (  0.110%)
 single point calculation       ...        0 min,  0.278 sec ( 93.628%)
 optimization log               ...        0 min,  0.002 sec (  0.721%)
 hessian update                 ...        0 min,  0.001 sec (  0.171%)
 rational function              ...        0 min,  0.003 sec (  1.097%)

================
 final structure:
================
16
 xtb: 6.5.1 (fef0646)
N            2.17574730798005        0.05793809870864       -0.34621468090250
C            0.76972456248433        0.03104675694619       -0.31424719708910
C            0.09405528025915       -1.17016037940069       -0.13068074679839
C           -1.28444923387452       -1.18164819192884       -0.02891698819872
C           -2.00189033449879       -0.00020227028156       -0.10971756489532
C           -1.33080488711162        1.19736027346236       -0.29177672884685
C            0.04724502678996        1.21664957074427       -0.39454383210907
Cl           3.29757068356199        0.51771866651515        2.40075713130659
H            2.59587575175627       -0.81921609058681       -0.62417976635885
H            2.75436813760537        0.30945485911631        1.19820963340916
H            2.55888491806530        0.84455590362450       -0.85353171900761
H            0.65440181608876       -2.09163397160504       -0.06442316451662
H           -1.80061197769660       -2.11937082151383        0.11332241973382
H           -3.07812748868807       -0.01244304276252       -0.03069667317565
H           -1.88283642111415        2.12321670324065       -0.35459248750937
H            0.57222685839082        2.15065393572236       -0.53328763504130

 Bond Distances (Angstroems)
 ---------------------------
N1-C2=1.4066         N1-H9=1.0115         N1-H11=1.0114        C2-N1=1.4066         C2-C3=1.3904         C2-C7=1.3907         
C3-C2=1.3904         C3-C4=1.3823         C3-H12=1.0805        C4-C3=1.3823         C4-C5=1.3846         C4-H13=1.0798        
C5-C4=1.3846         C5-C6=1.3848         C5-H14=1.0792        C6-C5=1.3848         C6-C7=1.3820         C6-H15=1.0798        
C7-C2=1.3907         C7-C6=1.3820         C7-H16=1.0804        Cl8-H10=1.3359       H9-N1=1.0115         H10-Cl8=1.3359       
H11-N1=1.0114        H12-C3=1.0805        H13-C4=1.0798        H14-C5=1.0792        H15-C6=1.0798        H16-C7=1.0804        
 C  H  Rav=1.0799 sigma=0.0005  Rmin=1.0792  Rmax=1.0805     5
 C  C  Rav=1.3858 sigma=0.0035  Rmin=1.3820  Rmax=1.3907     6
 N  H  Rav=1.0115 sigma=0.0001  Rmin=1.0114  Rmax=1.0115     2
 N  C  Rav=1.4066 sigma=0.0000  Rmin=1.4066  Rmax=1.4066     1
 Cl H  Rav=1.3359 sigma=0.0000  Rmin=1.3359  Rmax=1.3359     1

 selected bond angles (degree)
 --------------------
H9-N1-C2=113.88                H11-N1-C2=113.89               H11-N1-H9=112.29               C3-C2-N1=120.35                
C7-C2-N1=120.11                C7-C2-C3=119.45                C4-C3-C2=120.10                H12-C3-C2=119.53               
H12-C3-C4=120.37               C5-C4-C3=120.35                H13-C4-C3=119.58               H13-C4-C5=120.07               
C6-C5-C4=119.64                H14-C5-C4=120.18               H14-C5-C6=120.18               C7-C6-C5=120.34                
H15-C6-C5=120.09               H15-C6-C7=119.57               C6-C7-C2=120.12                H16-C7-C2=119.47               
H16-C7-C6=120.41               

 selected dihedral angles (degree)
 ---------------------------------
C3-C2-N1-H9= 24.92            C3-C2-N1-H11=155.44           C7-C2-N1-H9=201.48            C7-C2-N1-H11=331.99           
C4-C3-C2-N1=176.56            C4-C3-C2-C7=  0.00            H12-C3-C2-N1=356.80           H12-C3-C2-C7=180.23           
C5-C4-C3-C2=  0.05            C5-C4-C3-H12=179.80           H13-C4-C3-C2=179.99           H13-C4-C3-H12=359.74          
C6-C5-C4-C3=359.92            C6-C5-C4-H13=179.98           H14-C5-C4-C3=179.95           H14-C5-C4-H13=  0.00          
C7-C6-C5-C4=  0.09            C7-C6-C5-H14=180.06           H15-C6-C5-C4=180.08           H15-C6-C5-H14=  0.04          
C6-C7-C2-N1=183.44            C6-C7-C2-C3=  0.03            H16-C7-C2-N1=  3.18           H16-C7-C2-C3=179.76           
C2-C7-C6-C5=359.94            C2-C7-C6-H15=179.95           H16-C7-C6-C5=180.21           H16-C7-C6-H15=  0.22          

 CMA Distance (Angstroems)
 ---------------------------
R(CMA):  4.3414
           -------------------------------------------------
          |                Final Singlepoint                |
           -------------------------------------------------

          ...................................................
          :                      SETUP                      :
          :.................................................:
          :  # basis functions                  46          :
          :  # atomic orbitals                  45          :
          :  # shells                           25          :
          :  # electrons                        44          :
          :  max. iterations                   250          :
          :  Hamiltonian                  GFN2-xTB          :
          :  restarted?                      false          :
          :  GBSA solvation                  false          :
          :  PC potential                    false          :
          :  electronic temp.          300.0000000     K    :
          :  accuracy                    1.0000000          :
          :  -> integral cutoff          0.2500000E+02      :
          :  -> integral neglect         0.1000000E-07      :
          :  -> SCF convergence          0.1000000E-05 Eh   :
          :  -> wf. convergence          0.1000000E-03 e    :
          :  Broyden damping             0.4000000          :
          ...................................................

 iter      E             dE          RMSdq      gap      omega  full diag
   1    -24.7359337 -0.247359E+02  0.628E-05    4.22       0.0  T
   2    -24.7359337 -0.103242E-10  0.504E-05    4.22     495.8  T
   3    -24.7359337 -0.617106E-11  0.418E-05    4.22     598.1  T

   *** convergence criteria satisfied after 3 iterations ***

         #    Occupation            Energy/Eh            Energy/eV
      -------------------------------------------------------------
         1        2.0000           -1.0306142             -28.0444
       ...           ...                  ...                  ...
        16        2.0000           -0.4465940             -12.1524
        17        2.0000           -0.4376540             -11.9092
        18        2.0000           -0.4292504             -11.6805
        19        2.0000           -0.4102021             -11.1622
        20        2.0000           -0.4073427             -11.0844
        21        2.0000           -0.4072519             -11.0819
        22        2.0000           -0.3832105             -10.4277 (HOMO)
        23                         -0.2282450              -6.2109 (LUMO)
        24                         -0.2212885              -6.0216
        25                         -0.0960578              -2.6139
        26                         -0.0643325              -1.7506
        27                          0.0236878               0.6446
       ...                                ...                  ...
        45                          0.6614888              18.0000
      -------------------------------------------------------------
                  HL-Gap            0.1549655 Eh            4.2168 eV
             Fermi-level           -0.3057277 Eh           -8.3193 eV

 SCC (total)                   0 d,  0 h,  0 min,  0.005 sec
 SCC setup                      ...        0 min,  0.000 sec (  1.831%)
 Dispersion                     ...        0 min,  0.000 sec (  2.347%)
 classical contributions        ...        0 min,  0.000 sec (  0.493%)
 integral evaluation            ...        0 min,  0.001 sec ( 15.325%)
 iterations                     ...        0 min,  0.002 sec ( 45.514%)
 molecular gradient             ...        0 min,  0.002 sec ( 31.275%)
 printout                       ...        0 min,  0.000 sec (  1.904%)

         :::::::::::::::::::::::::::::::::::::::::::::::::::::
         ::                     SUMMARY                     ::
         :::::::::::::::::::::::::::::::::::::::::::::::::::::
         :: total energy             -24.380834311695 Eh    ::
         :: gradient norm              0.000358757247 Eh/a0 ::
         :: HOMO-LUMO gap              4.216825893907 eV    ::
         ::.................................................::
         :: SCC energy               -24.735933679073 Eh    ::
         :: -> isotropic ES            0.024756605267 Eh    ::
         :: -> anisotropic ES         -0.003594245347 Eh    ::
         :: -> anisotropic XC          0.009217264606 Eh    ::
         :: -> dispersion             -0.012107672211 Eh    ::
         :: repulsion energy           0.355051113422 Eh    ::
         :: add. restraining           0.000000000000 Eh    ::
         :: total charge               0.000000000000 e     ::
         :::::::::::::::::::::::::::::::::::::::::::::::::::::

           -------------------------------------------------
          |                Property Printout                |
           -------------------------------------------------

    * Orbital Energies and Occupations

         #    Occupation            Energy/Eh            Energy/eV
      -------------------------------------------------------------
         1        2.0000           -1.0306142             -28.0444
       ...           ...                  ...                  ...
        10        2.0000           -0.5265479             -14.3281
        11        2.0000           -0.5169709             -14.0675
        12        2.0000           -0.4916090             -13.3774
        13        2.0000           -0.4901184             -13.3368
        14        2.0000           -0.4838561             -13.1664
        15        2.0000           -0.4835727             -13.1587
        16        2.0000           -0.4465940             -12.1524
        17        2.0000           -0.4376540             -11.9092
        18        2.0000           -0.4292504             -11.6805
        19        2.0000           -0.4102021             -11.1622
        20        2.0000           -0.4073427             -11.0844
        21        2.0000           -0.4072519             -11.0819
        22        2.0000           -0.3832105             -10.4277 (HOMO)
        23                         -0.2282450              -6.2109 (LUMO)
        24                         -0.2212885              -6.0216
        25                         -0.0960578              -2.6139
        26                         -0.0643325              -1.7506
        27                          0.0236878               0.6446
        28                          0.0509004               1.3851
        29                          0.0510158               1.3882
        30                          0.0570218               1.5516
        31                          0.0570239               1.5517
        32                          0.1093555               2.9757
        33                          0.1373218               3.7367
       ...                                ...                  ...
        45                          0.6614888              18.0000
      -------------------------------------------------------------
                  HL-Gap            0.1549655 Eh            4.2168 eV
             Fermi-level           -0.3057277 Eh           -8.3193 eV

     #   Z          covCN         q      C6AA      α(0)
     1   7 N        2.648    -0.286    27.391     7.773
     2   6 C        2.902     0.073    26.372     8.420
     3   6 C        2.923    -0.054    29.345     8.883
     4   6 C        2.920    -0.027    28.678     8.782
     5   6 C        2.919    -0.038    28.953     8.824
     6   6 C        2.920    -0.027    28.675     8.781
     7   6 C        2.923    -0.054    29.343     8.883
     8  17 Cl       0.841    -0.439   113.481    16.297
     9   1 H        0.860     0.175     1.246     1.748
    10   1 H        0.851     0.334     0.621     1.235
    11   1 H        0.860     0.175     1.243     1.746
    12   1 H        0.926     0.032     2.555     2.500
    13   1 H        0.926     0.035     2.513     2.479
    14   1 H        0.926     0.033     2.540     2.492
    15   1 H        0.926     0.035     2.511     2.478
    16   1 H        0.926     0.033     2.542     2.493

 Mol. C6AA /au·bohr⁶  :       3467.328662
 Mol. C8AA /au·bohr⁸  :      92288.910218
 Mol. α(0) /au        :         93.814888


Wiberg/Mayer (AO) data.
largest (>0.10) Wiberg bond orders for each atom

 ---------------------------------------------------------------------------
     #   Z sym  total        # sym  WBO       # sym  WBO       # sym  WBO
 ---------------------------------------------------------------------------
     1   7 N    3.304 --     2 C    1.080     9 H    0.950    11 H    0.950
                            10 H    0.140
     2   6 C    3.966 --     3 C    1.377     7 C    1.376     1 N    1.080
     3   6 C    3.989 --     4 C    1.451     2 C    1.377    12 H    0.968
                             6 C    0.108
     4   6 C    3.992 --     3 C    1.451     5 C    1.435    13 H    0.971
                             7 C    0.108
     5   6 C    3.990 --     4 C    1.435     6 C    1.433    14 H    0.971
     6   6 C    3.992 --     7 C    1.453     5 C    1.433    15 H    0.971
                             3 C    0.108
     7   6 C    3.989 --     6 C    1.453     2 C    1.376    16 H    0.968
                             4 C    0.108
     8  17 Cl   0.807 --    10 H    0.743
     9   1 H    0.969 --     1 N    0.950
    10   1 H    0.888 --     8 Cl   0.743     1 N    0.140
    11   1 H    0.969 --     1 N    0.950
    12   1 H    0.999 --     3 C    0.968
    13   1 H    0.998 --     4 C    0.971
    14   1 H    0.999 --     5 C    0.971
    15   1 H    0.998 --     6 C    0.971
    16   1 H    0.999 --     7 C    0.968
 ---------------------------------------------------------------------------

Topologies differ in total number of bonds
Writing topology from bond orders to xtbtopo.mol

molecular dipole:
                 x           y           z       tot (Debye)
 q only:       -0.464      -0.249      -1.556
   full:       -0.260      -0.219      -1.408       3.682
molecular quadrupole (traceless):
                xx          xy          yy          xz          yz          zz
 q only:       -0.798      -2.657       6.869     -15.255      -2.657      -6.070
  q+dip:        0.039      -2.201       6.846     -13.043      -2.413      -6.885
   full:       -0.936      -2.134       5.308     -12.627      -1.930      -4.372

           -------------------------------------------------
          |                Geometry Summary                 |
           -------------------------------------------------

      molecular mass/u    :      129.5875822
   center of mass at/Å    :        0.8122957       0.1595214       0.4927481
  moments of inertia/u·Å² :        0.1569907E+03   0.6878572E+03   0.7093251E+03
rotational constants/cm⁻¹ :        0.1073798E+00   0.2450746E-01   0.2376573E-01

 * 15 selected distances

     #   Z          #   Z                                           value/Å
     1   7 N        2   6 C                                       1.4066433 (max)
     2   6 C        3   6 C                                       1.3903685
     3   6 C        4   6 C                                       1.3823035
     4   6 C        5   6 C                                       1.3845813
     5   6 C        6   6 C                                       1.3847952
     2   6 C        7   6 C                                       1.3907116
     6   6 C        7   6 C                                       1.3820112
     1   7 N        9   1 H                                       1.0115197
     8  17 Cl      10   1 H                                       1.3358756
     1   7 N       11   1 H                                       1.0114014 (min)
     3   6 C       12   1 H                                       1.0805055
     4   6 C       13   1 H                                       1.0798055
     5   6 C       14   1 H                                       1.0792038
     6   6 C       15   1 H                                       1.0797662
     7   6 C       16   1 H                                       1.0803796

 * 5 distinct bonds (by element types)

   Z      Z             #   av. dist./Å        max./Å        min./Å
   1 H    6 C           5     1.0799321     1.0805055     1.0792038
   6 C    6 C           6     1.3857952     1.3907116     1.3820112
   1 H    7 N           2     1.0114606     1.0115197     1.0114014
   6 C    7 N           1     1.4066433     1.4066433     1.4066433
   1 H   17 Cl          1     1.3358756     1.3358756     1.3358756


optimized geometry written to: xtbopt.xyz


           -------------------------------------------------
          | TOTAL ENERGY              -24.380834311695 Eh   |
          | GRADIENT NORM               0.000358757247 Eh/α |
          | HOMO-LUMO GAP               4.216825893907 eV   |
           -------------------------------------------------

------------------------------------------------------------------------
 * finished run on 2023/01/23 at 18:38:31.421     
------------------------------------------------------------------------
 total:
 * wall-time:     0 d,  0 h,  0 min,  0.362 sec
 *  cpu-time:     0 d,  0 h,  0 min, 30.332 sec
 * ratio c/w:    83.690 speedup
 SCF:
 * wall-time:     0 d,  0 h,  0 min,  0.038 sec
 *  cpu-time:     0 d,  0 h,  0 min,  4.853 sec
 * ratio c/w:   129.214 speedup
 ANC optimizer:
 * wall-time:     0 d,  0 h,  0 min,  0.303 sec
 *  cpu-time:     0 d,  0 h,  0 min, 22.813 sec
 * ratio c/w:    75.316 speedup

