16
 energy: -24.413299249417 gnorm: 0.000306503037 xtb: 6.5.1 (fef0646)
N            2.21097613088982        0.00608236201602       -0.07512953120196
C            0.76511988719162        0.06483010327745        0.03037228108894
C            0.04081324633039       -1.11319370637005        0.12256160561764
C           -1.33930200455358       -1.06276295337949        0.21342733377468
C           -1.99244292245936        0.15956677907345        0.21212024404450
C           -1.26404551240908        1.33306473837465        0.11755844670806
C            0.11798244268601        1.28863374504206        0.02703509003186
Cl           3.04909570598446       -1.09078652690240       -2.74469779082258
H            2.61609090933963       -0.63975286216825        0.60957474928036
H            2.63158884375371        0.93461473580725        0.02310483691991
H            2.49834368619615       -0.36868237155094       -1.03085807793943
H            0.55338814993675       -2.06168761568124        0.10572879759099
H           -1.90580321965394       -1.97825520536704        0.28191766026528
H           -3.06840347736105        0.19558161911669        0.27969484268664
H           -1.77127118130313        2.28497121524282        0.11192507635991
H            0.68099931543164        2.20491594346896       -0.05327556440485
