16
 energy: -24.380834311695 gnorm: 0.000358757247 xtb: 6.5.1 (fef0646)
N            2.17574730798005        0.05793809870864       -0.34621468090250
C            0.76972456248433        0.03104675694619       -0.31424719708910
C            0.09405528025915       -1.17016037940069       -0.13068074679839
C           -1.28444923387452       -1.18164819192884       -0.02891698819872
C           -2.00189033449879       -0.00020227028156       -0.10971756489532
C           -1.33080488711162        1.19736027346236       -0.29177672884685
C            0.04724502678996        1.21664957074427       -0.39454383210907
Cl           3.29757068356199        0.51771866651515        2.40075713130659
H            2.59587575175627       -0.81921609058681       -0.62417976635885
H            2.75436813760537        0.30945485911631        1.19820963340916
H            2.55888491806530        0.84455590362450       -0.85353171900761
H            0.65440181608876       -2.09163397160504       -0.06442316451662
H           -1.80061197769660       -2.11937082151383        0.11332241973382
H           -3.07812748868807       -0.01244304276252       -0.03069667317565
H           -1.88283642111415        2.12321670324065       -0.35459248750937
H            0.57222685839082        2.15065393572236       -0.53328763504130
