 Entering Gaussian System
 *********************************************
 Gaussian 98:
 frequency output generated by the xtb code
 *********************************************
                         Standard orientation:
 --------------------------------------------------------------------
  Center     Atomic     Atomic              Coordinates (Angstroms)
  Number     Number      Type              X           Y           Z
 --------------------------------------------------------------------
    1          7             0       -5.658764    1.664369   -0.533113
    2          6             0       -4.196025    1.420321   -0.690758
    3          6             0       -3.603215    0.676680    0.500891
    4          6             0       -2.136087    0.401122    0.345877
    5          6             0       -1.191520    1.310698    0.799042
    6          6             0        0.155978    1.074650    0.630798
    7          6             0        0.606560   -0.083503   -0.004342
    8          6             0        2.022198   -0.369661   -0.202786
    9          6             0        3.036303    0.317265    0.342789
   10          6             0        4.452521    0.033107    0.144674
   11          6             0        4.907783   -0.904427   -0.784826
   12          6             0        6.256021   -1.144565   -0.944630
   13          6             0        7.179828   -0.455528   -0.183674
   14          6             0        6.750696    0.478226    0.738656
   15          6             0        5.403697    0.721263    0.900810
   16          6             0       -0.350337   -0.986009   -0.470337
   17          6             0       -1.696255   -0.745632   -0.298833
   18         17             0       -7.110139   -1.489113   -0.027263
   19          1             0       -5.847538    2.240431    0.297837
   20          1             0       -6.159588    0.768142   -0.406650
   21          1             0       -6.063574    2.141730   -1.350323
   22          1             0       -3.670631    2.372058   -0.831701
   23          1             0       -4.011822    0.848388   -1.607878
   24          1             0       -4.137210   -0.267887    0.650145
   25          1             0       -3.773039    1.250342    1.418391
   26          1             0       -1.524924    2.212900    1.284242
   27          1             0        0.866823    1.801237    0.983094
   28          1             0        2.249361   -1.215683   -0.826406
   29          1             0        2.807500    1.138287    0.998558
   30          1             0        4.200698   -1.440925   -1.392672
   31          1             0        6.590865   -1.871508   -1.667140
   32          1             0        8.233566   -0.645174   -0.310388
   33          1             0        7.470581    1.017873    1.332852
   34          1             0        5.071694    1.449596    1.621750
   35          1             0       -0.024033   -1.883012   -0.969517
   36          1             0       -2.422530   -1.449979   -0.668479
 --------------------------------------------------------------------
     1 basis functions        1 primitive gaussians
     1 alpha electrons        1 beta electrons

 Harmonic frequencies (cm**-1), IR intensities (km*mol⁻¹),
 Raman scattering activities (A**4/amu), Raman depolarization ratios,
 reduced masses (AMU), force constants (mDyne/A) and normal coordinates:
                      1                      2                      3
                        a                      a                      a 
 Frequencies --  -142.4634               -79.0201               -57.2411
 Red. masses --    20.7171                 8.0382                 9.6085
 Frc consts  --     0.0000                 0.0000                 0.0000
 IR Inten    --   157.9478                 0.2119                 0.1035
 Raman Activ --     0.0000                 0.0000                 0.0000
 Depolar     --     0.0000                 0.0000                 0.0000
 Atom AN      X      Y      Z        X      Y      Z        X      Y      Z
   1   7    -0.23  -0.58   0.06    -0.01   0.01  -0.02    -0.01   0.02   0.02
   2   6    -0.16  -0.16   0.04    -0.00   0.05  -0.01    -0.00   0.04   0.03
   3   6    -0.00  -0.03   0.05    -0.03  -0.06  -0.07    -0.02  -0.04  -0.01
   4   6    -0.00   0.01   0.00    -0.02  -0.04  -0.03    -0.01  -0.02  -0.01
   5   6    -0.00   0.00   0.00    -0.04  -0.06   0.05    -0.02  -0.15   0.26
   6   6    -0.00   0.00  -0.00    -0.03  -0.07   0.15    -0.01  -0.14   0.27
   7   6    -0.00   0.01  -0.01     0.01  -0.07   0.18    -0.00  -0.00   0.02
   8   6    -0.00   0.01  -0.01     0.02  -0.16   0.35    -0.01  -0.00   0.02
   9   6    -0.00  -0.01   0.01     0.03   0.34  -0.29     0.01   0.01  -0.02
  10   6    -0.00  -0.00   0.00     0.02   0.18  -0.16     0.01  -0.00  -0.01
  11   6    -0.00   0.00  -0.00    -0.03   0.15  -0.15    -0.00  -0.24   0.23
  12   6    -0.00   0.00  -0.00    -0.04  -0.02  -0.04     0.00  -0.24   0.23
  13   6    -0.00  -0.00   0.00    -0.02  -0.16   0.08     0.01   0.01  -0.01
  14   6     0.00  -0.01   0.00     0.02  -0.13   0.06     0.02   0.24  -0.24
  15   6     0.00  -0.00   0.00     0.03   0.06  -0.07     0.02   0.23  -0.24
  16   6    -0.00   0.01  -0.02     0.03  -0.05   0.09    -0.00   0.12  -0.23
  17   6    -0.00   0.01  -0.01     0.02  -0.03  -0.03    -0.00   0.12  -0.24
  18  17     0.29   0.56  -0.09     0.03   0.05  -0.05     0.01   0.02  -0.04
  19   1    -0.10  -0.16   0.01    -0.01  -0.02   0.01    -0.01  -0.01   0.02
  20   1    -0.01  -0.21   0.03     0.00  -0.00  -0.03     0.00   0.00  -0.02
  21   1    -0.10  -0.20   0.01     0.00   0.02   0.00     0.00   0.02   0.01
  22   1    -0.11  -0.01   0.01    -0.00   0.02   0.03    -0.00   0.02   0.03
  23   1    -0.01  -0.04   0.01     0.01   0.04  -0.02     0.01   0.03  -0.00
  24   1     0.02  -0.01   0.04    -0.01  -0.02  -0.05    -0.01  -0.01  -0.03
  25   1     0.00   0.01   0.00    -0.02  -0.04  -0.01    -0.01  -0.03   0.01
  26   1     0.00   0.00   0.00    -0.02  -0.02   0.02    -0.01  -0.08   0.13
  27   1     0.00   0.00  -0.00    -0.02  -0.03   0.08    -0.01  -0.07   0.15
  28   1    -0.00   0.01  -0.01     0.01  -0.21   0.33    -0.01  -0.00   0.01
  29   1    -0.00  -0.01   0.01     0.02   0.27  -0.30     0.01   0.02  -0.02
  30   1    -0.00   0.00  -0.00    -0.02   0.10  -0.08    -0.00  -0.13   0.12
  31   1    -0.00   0.00  -0.00    -0.02  -0.00  -0.01    -0.00  -0.12   0.12
  32   1    -0.00  -0.00   0.00    -0.01  -0.09   0.05     0.00   0.01  -0.00
  33   1     0.00  -0.00   0.00     0.01  -0.07   0.04     0.01   0.13  -0.12
  34   1     0.00  -0.00   0.00     0.02   0.03  -0.03     0.01   0.12  -0.12
  35   1    -0.00   0.00  -0.01     0.02  -0.01   0.03     0.00   0.07  -0.12
  36   1    -0.00   0.00  -0.00     0.01  -0.00  -0.03     0.00   0.06  -0.13
                      4                      5                      6
                        a                      a                      a 
 Frequencies --   -32.2087                25.3220                40.2108
 Red. masses --    11.3684                12.3227                17.4199
 Frc consts  --     0.0000                 0.0000                 0.0000
 IR Inten    --     7.0602                 1.3365                 2.6242
 Raman Activ --     0.0000                 0.0000                 0.0000
 Depolar     --     0.0000                 0.0000                 0.0000
 Atom AN      X      Y      Z        X      Y      Z        X      Y      Z
   1   7     0.03   0.13   0.22    -0.09  -0.08   0.24     0.07   0.18   0.03
   2   6     0.05   0.23   0.24    -0.08   0.03   0.14     0.01  -0.06  -0.09
   3   6    -0.03  -0.19   0.01     0.02  -0.06   0.04    -0.01  -0.15  -0.14
   4   6    -0.03  -0.15  -0.00     0.03   0.03  -0.07    -0.02  -0.17  -0.14
   5   6    -0.05  -0.01  -0.22     0.01   0.06  -0.11    -0.02  -0.21  -0.04
   6   6    -0.05   0.03  -0.24     0.01   0.12  -0.19    -0.02  -0.20  -0.02
   7   6    -0.02  -0.07  -0.04     0.03   0.15  -0.24    -0.01  -0.15  -0.10
   8   6    -0.01  -0.05  -0.03     0.03   0.16  -0.23     0.01  -0.13  -0.07
   9   6    -0.03  -0.01  -0.04     0.02   0.15  -0.21    -0.04  -0.07  -0.05
  10   6    -0.02   0.01  -0.02     0.02   0.07  -0.09    -0.01   0.01   0.00
  11   6     0.01  -0.08   0.10     0.05   0.00   0.00     0.09   0.10  -0.03
  12   6     0.01  -0.05   0.12     0.05  -0.15   0.20     0.12   0.19   0.03
  13   6    -0.01   0.08   0.03     0.02  -0.24   0.32     0.03   0.19   0.13
  14   6    -0.04   0.17  -0.08    -0.01  -0.14   0.21    -0.08   0.10   0.17
  15   6    -0.05   0.13  -0.10    -0.01   0.01   0.01    -0.10   0.01   0.11
  16   6     0.01  -0.21   0.16     0.04   0.13  -0.23     0.00  -0.11  -0.20
  17   6     0.00  -0.24   0.18     0.04   0.07  -0.15    -0.00  -0.12  -0.22
  18  17     0.15   0.15  -0.22    -0.12  -0.17   0.14    -0.02   0.36   0.39
  19   1    -0.02  -0.08   0.13    -0.03  -0.05   0.09     0.07   0.11  -0.02
  20   1     0.01   0.01  -0.08    -0.01  -0.03   0.04    -0.01   0.08   0.09
  21   1     0.03   0.14   0.11    -0.04   0.00   0.08     0.01   0.01  -0.01
  22   1     0.01   0.09   0.18    -0.04   0.02   0.06     0.04  -0.04  -0.04
  23   1     0.04   0.17   0.01    -0.02   0.04   0.02    -0.04  -0.03  -0.03
  24   1    -0.02  -0.06  -0.09     0.02  -0.03  -0.00    -0.01  -0.04  -0.05
  25   1    -0.02  -0.14   0.06     0.02  -0.04   0.03     0.00  -0.06  -0.03
  26   1    -0.02   0.02  -0.11     0.00   0.01  -0.02    -0.01  -0.07   0.01
  27   1    -0.02   0.04  -0.13     0.00   0.04  -0.06    -0.01  -0.07   0.02
  28   1     0.00  -0.02   0.00     0.01   0.04  -0.06     0.02  -0.04  -0.01
  29   1    -0.02   0.00  -0.02     0.00   0.05  -0.07    -0.03  -0.02  -0.02
  30   1     0.01  -0.06   0.05     0.02   0.02  -0.02     0.04   0.03  -0.03
  31   1     0.01  -0.04   0.06     0.02  -0.06   0.08     0.06   0.08  -0.00
  32   1    -0.00   0.03   0.01     0.00  -0.11   0.14     0.01   0.08   0.05
  33   1    -0.02   0.08  -0.04    -0.01  -0.06   0.08    -0.04   0.03   0.07
  34   1    -0.02   0.06  -0.05    -0.01   0.02  -0.02    -0.05  -0.02   0.04
  35   1     0.01  -0.08   0.09     0.02   0.05  -0.08     0.00  -0.02  -0.08
  36   1     0.01  -0.10   0.10     0.02   0.01  -0.04     0.00  -0.02  -0.09
                      7                      8                      9
                        a                      a                      a 
 Frequencies --    54.3583                76.6894                82.0166
 Red. masses --    29.0364                10.5711                11.2927
 Frc consts  --     0.0000                 0.0000                 0.0000
 IR Inten    --    22.9343                 1.1566                 1.6965
 Raman Activ --     0.0000                 0.0000                 0.0000
 Depolar     --     0.0000                 0.0000                 0.0000
 Atom AN      X      Y      Z        X      Y      Z        X      Y      Z
   1   7     0.00   0.13  -0.07    -0.02  -0.06   0.01    -0.23  -0.06   0.19
   2   6     0.01   0.17  -0.02     0.01   0.06   0.07    -0.18   0.26   0.01
   3   6    -0.06   0.08  -0.04     0.08   0.32   0.20     0.02   0.11  -0.18
   4   6    -0.07   0.05  -0.02     0.04   0.16   0.11     0.02   0.15  -0.28
   5   6    -0.06   0.02   0.02     0.17   0.05   0.06     0.04   0.11  -0.23
   6   6    -0.07  -0.00   0.01     0.13  -0.12  -0.03     0.04   0.01  -0.07
   7   6    -0.09   0.01  -0.03    -0.03  -0.17  -0.04     0.04  -0.07   0.06
   8   6    -0.10   0.00  -0.04    -0.05  -0.29  -0.08     0.04  -0.20   0.27
   9   6    -0.09  -0.02  -0.01    -0.05  -0.15  -0.26     0.05  -0.10   0.15
  10   6    -0.10  -0.03  -0.00    -0.02  -0.08  -0.15     0.05  -0.12   0.16
  11   6    -0.09  -0.01  -0.02     0.14  -0.06  -0.08     0.03  -0.07   0.10
  12   6    -0.09  -0.03  -0.00     0.18   0.06   0.07     0.03   0.05  -0.05
  13   6    -0.10  -0.06   0.04     0.04   0.16   0.16     0.05   0.11  -0.13
  14   6    -0.10  -0.08   0.06    -0.13   0.14   0.10     0.07   0.02  -0.03
  15   6    -0.10  -0.07   0.04    -0.17   0.03  -0.06     0.06  -0.09   0.11
  16   6    -0.10   0.05  -0.07    -0.16  -0.06   0.02     0.02   0.02  -0.07
  17   6    -0.10   0.06  -0.06    -0.13   0.11   0.09     0.02   0.12  -0.24
  18  17     0.83  -0.19   0.15    -0.04  -0.09  -0.13    -0.06  -0.16   0.12
  19   1    -0.01   0.06  -0.04    -0.03  -0.03   0.01    -0.08  -0.08   0.09
  20   1     0.03   0.02   0.01     0.01  -0.03  -0.01    -0.01  -0.05   0.01
  21   1    -0.01  -0.00  -0.03    -0.00  -0.02   0.00    -0.11   0.01   0.09
  22   1     0.00   0.05   0.02    -0.02   0.03  -0.03    -0.11   0.11   0.05
  23   1     0.02   0.06  -0.01     0.02  -0.02   0.05    -0.04   0.14  -0.03
  24   1    -0.03   0.03  -0.03     0.01   0.11   0.13     0.02   0.02  -0.08
  25   1    -0.02   0.01  -0.00     0.06   0.16   0.02     0.02  -0.01  -0.02
  26   1    -0.01   0.00   0.02     0.09   0.03   0.02     0.01   0.04  -0.08
  27   1    -0.02  -0.01   0.01     0.06  -0.06  -0.02     0.01  -0.01   0.00
  28   1    -0.03   0.00  -0.02    -0.02  -0.13   0.03     0.01  -0.11   0.15
  29   1    -0.03  -0.01  -0.00    -0.02  -0.00  -0.13     0.02   0.02  -0.02
  30   1    -0.03   0.01  -0.01     0.07  -0.03  -0.04     0.00  -0.03   0.04
  31   1    -0.03  -0.00  -0.00     0.10   0.03   0.03     0.01   0.03  -0.03
  32   1    -0.03  -0.02   0.02     0.02   0.07   0.08     0.02   0.07  -0.08
  33   1    -0.03  -0.03   0.02    -0.07   0.06   0.05     0.02   0.02  -0.02
  34   1    -0.03  -0.02   0.01    -0.09   0.00  -0.03     0.02  -0.04   0.05
  35   1    -0.03   0.02  -0.03    -0.09  -0.03   0.00     0.00  -0.01  -0.00
  36   1    -0.03   0.03  -0.02    -0.07   0.06   0.04     0.00   0.05  -0.09
                     10                     11                     12
                        a                      a                      a 
 Frequencies --   144.8241               169.5530               186.7320
 Red. masses --     9.5247                10.1030                 9.8736
 Frc consts  --     0.0000                 0.0000                 0.0000
 IR Inten    --    12.8529                 4.7847                 1.4664
 Raman Activ --     0.0000                 0.0000                 0.0000
 Depolar     --     0.0000                 0.0000                 0.0000
 Atom AN      X      Y      Z        X      Y      Z        X      Y      Z
   1   7    -0.00  -0.24  -0.37    -0.27   0.14   0.12    -0.05   0.06  -0.14
   2   6     0.16   0.44   0.10    -0.28   0.06  -0.18    -0.05  -0.08   0.07
   3   6    -0.02  -0.01  -0.09    -0.13   0.07  -0.23    -0.18  -0.18   0.08
   4   6    -0.01  -0.03   0.04    -0.10   0.04  -0.08    -0.14  -0.03   0.12
   5   6    -0.01  -0.07   0.11    -0.09  -0.03   0.06    -0.18   0.05   0.05
   6   6    -0.01  -0.06   0.10    -0.07  -0.07   0.21    -0.15   0.18  -0.02
   7   6     0.00  -0.01   0.01    -0.01  -0.02   0.16    -0.06   0.21  -0.04
   8   6     0.00   0.07  -0.12     0.01   0.11  -0.12    -0.05   0.04   0.03
   9   6     0.01  -0.04  -0.01     0.09  -0.10   0.00     0.08   0.04  -0.22
  10   6     0.02   0.01  -0.05     0.11   0.01  -0.16     0.09  -0.23  -0.01
  11   6     0.05   0.05  -0.08     0.20   0.03  -0.15     0.21  -0.25   0.06
  12   6     0.05   0.04  -0.03     0.22  -0.03   0.01     0.26   0.01  -0.02
  13   6     0.03  -0.01   0.04     0.17  -0.09   0.13     0.19   0.20  -0.12
  14   6     0.00  -0.03   0.05     0.10  -0.01   0.01     0.06  -0.02   0.05
  15   6    -0.00  -0.02  -0.00     0.09   0.04  -0.15     0.03  -0.25   0.09
  16   6     0.01  -0.02   0.03    -0.01  -0.07   0.25    -0.04   0.17  -0.01
  17   6     0.00  -0.03   0.04    -0.03  -0.05   0.13    -0.05   0.04   0.06
  18  17    -0.18  -0.02   0.19     0.06  -0.03  -0.03     0.03   0.02   0.01
  19   1    -0.15  -0.06  -0.13    -0.02   0.03   0.05    -0.03   0.05  -0.06
  20   1     0.10  -0.12  -0.09    -0.07   0.04   0.05    -0.03   0.03  -0.02
  21   1    -0.00  -0.14  -0.14    -0.11   0.05   0.06     0.03  -0.00  -0.07
  22   1    -0.05   0.21   0.23    -0.08   0.01  -0.09     0.01  -0.03   0.05
  23   1     0.22   0.29  -0.04    -0.14   0.00  -0.05     0.00  -0.01   0.02
  24   1    -0.02  -0.01  -0.15    -0.03   0.02  -0.06    -0.04  -0.07  -0.03
  25   1    -0.04  -0.10   0.03    -0.05   0.02  -0.07    -0.09  -0.08   0.04
  26   1    -0.00  -0.03   0.04    -0.03  -0.00   0.01    -0.07   0.01   0.02
  27   1    -0.00  -0.02   0.03    -0.03  -0.02   0.08    -0.06   0.06  -0.00
  28   1    -0.00   0.06  -0.09    -0.02   0.12  -0.16    -0.05  -0.08   0.11
  29   1     0.00  -0.06   0.05     0.04  -0.12   0.12     0.06   0.11  -0.18
  30   1     0.02   0.02  -0.03     0.07   0.01  -0.06     0.07  -0.11   0.03
  31   1     0.02   0.02  -0.01     0.08  -0.02   0.02     0.10   0.02  -0.02
  32   1     0.01  -0.01   0.03     0.05  -0.06   0.09     0.07   0.14  -0.08
  33   1    -0.00  -0.01   0.03     0.01  -0.00   0.02    -0.00   0.01   0.03
  34   1    -0.01  -0.01   0.00     0.02   0.02  -0.06    -0.02  -0.10   0.04
  35   1     0.00  -0.00   0.01    -0.00  -0.03   0.10    -0.00   0.06  -0.01
  36   1     0.00  -0.01   0.01     0.00  -0.03   0.04     0.00  -0.01   0.02
                     13                     14                     15
                        a                      a                      a 
 Frequencies --   239.0922               255.1420               265.9829
 Red. masses --     8.9306                 9.7197                 4.5872
 Frc consts  --     0.0000                 0.0000                 0.0000
 IR Inten    --     2.0863                 1.2586                 1.1792
 Raman Activ --     0.0000                 0.0000                 0.0000
 Depolar     --     0.0000                 0.0000                 0.0000
 Atom AN      X      Y      Z        X      Y      Z        X      Y      Z
   1   7     0.10  -0.11   0.15     0.16  -0.06  -0.01     0.00  -0.03  -0.17
   2   6     0.06   0.02  -0.25     0.13  -0.13   0.02     0.00  -0.05  -0.05
   3   6     0.12   0.01  -0.29     0.00  -0.25  -0.02    -0.08   0.11   0.08
   4   6     0.13   0.04  -0.05     0.04   0.08  -0.01    -0.11  -0.04   0.06
   5   6     0.07   0.01   0.14    -0.05   0.20  -0.07    -0.06  -0.08   0.03
   6   6     0.07   0.03   0.19    -0.02   0.19   0.05    -0.07  -0.08  -0.07
   7   6     0.04   0.11   0.03    -0.03   0.10   0.21    -0.06  -0.05  -0.10
   8   6    -0.03   0.12  -0.17    -0.09  -0.13   0.20     0.01   0.00  -0.00
   9   6    -0.03   0.11  -0.19    -0.01  -0.27   0.18     0.01  -0.01   0.06
  10   6    -0.10  -0.10  -0.05    -0.05  -0.13  -0.15     0.06   0.07   0.08
  11   6    -0.09  -0.18   0.04     0.05   0.02  -0.26     0.06   0.11   0.03
  12   6    -0.07  -0.01   0.00     0.08   0.04  -0.05     0.04   0.04  -0.02
  13   6    -0.13   0.17  -0.08    -0.04  -0.07   0.20     0.10  -0.06  -0.01
  14   6    -0.19  -0.01   0.08    -0.14   0.07  -0.00     0.14  -0.04  -0.00
  15   6    -0.20  -0.15   0.10    -0.15   0.05  -0.20     0.15   0.02   0.04
  16   6     0.12  -0.00   0.13     0.03   0.16  -0.00    -0.12   0.00  -0.12
  17   6     0.13  -0.03   0.10     0.04   0.16  -0.12    -0.13   0.00  -0.03
  18  17    -0.02   0.00   0.06    -0.00   0.02   0.04     0.03   0.03   0.13
  19   1     0.07  -0.24   0.19     0.05  -0.12   0.07    -0.03  -0.41   0.22
  20   1     0.03  -0.06  -0.14     0.01  -0.01  -0.12    -0.07  -0.03  -0.49
  21   1    -0.01   0.17   0.18     0.08   0.11   0.05     0.11   0.42   0.15
  22   1    -0.00   0.02  -0.07     0.06  -0.04   0.04     0.00  -0.02  -0.02
  23   1    -0.02   0.03  -0.09     0.04  -0.01  -0.01     0.02  -0.03  -0.00
  24   1     0.04  -0.00  -0.10     0.05  -0.11  -0.07    -0.05   0.06   0.09
  25   1    -0.00  -0.00  -0.09    -0.06  -0.13   0.02     0.01   0.10  -0.01
  26   1     0.00  -0.01   0.05    -0.03   0.07  -0.05    -0.00  -0.02   0.01
  27   1     0.02  -0.00   0.08    -0.01   0.06   0.00    -0.02  -0.02  -0.03
  28   1    -0.02   0.02  -0.04    -0.06  -0.01   0.01     0.01   0.00   0.00
  29   1     0.00   0.05  -0.08     0.02  -0.12   0.11    -0.01  -0.00   0.02
  30   1    -0.02  -0.08   0.03     0.03   0.02  -0.11     0.01   0.05   0.00
  31   1     0.00   0.00   0.00     0.06   0.02  -0.01    -0.01   0.01  -0.01
  32   1    -0.03   0.11  -0.06    -0.01  -0.06   0.13     0.03  -0.04  -0.01
  33   1    -0.06  -0.00   0.03    -0.06   0.04   0.01     0.05  -0.02  -0.01
  34   1    -0.08  -0.07   0.04    -0.08   0.03  -0.09     0.07   0.01   0.02
  35   1     0.05  -0.00   0.06     0.03   0.06  -0.01    -0.05   0.00  -0.05
  36   1     0.04  -0.02   0.04     0.01   0.06  -0.06    -0.04   0.00  -0.01
                     16                     17                     18
                        a                      a                      a 
 Frequencies --   334.9100               344.4420               358.1327
 Red. masses --     9.8892                 8.9801                 8.7411
 Frc consts  --     0.0000                 0.0000                 0.0000
 IR Inten    --     6.0271                 1.2924                 0.0383
 Raman Activ --     0.0000                 0.0000                 0.0000
 Depolar     --     0.0000                 0.0000                 0.0000
 Atom AN      X      Y      Z        X      Y      Z        X      Y      Z
   1   7     0.34  -0.21   0.28     0.11  -0.07   0.16     0.01  -0.00   0.01
   2   6     0.27   0.12  -0.16     0.05   0.01  -0.23     0.01  -0.01  -0.00
   3   6     0.05   0.26  -0.03    -0.11  -0.18  -0.27    -0.01  -0.04  -0.02
   4   6    -0.10  -0.16  -0.03    -0.01   0.16   0.25     0.01   0.04   0.01
   5   6    -0.22  -0.05  -0.07     0.08   0.08   0.24     0.02   0.04  -0.02
   6   6    -0.22   0.07  -0.01     0.04   0.00  -0.17     0.01  -0.03   0.01
   7   6    -0.17   0.06   0.04    -0.05  -0.03  -0.20    -0.01  -0.04   0.00
   8   6    -0.13   0.11   0.12    -0.02  -0.18  -0.05    -0.01  -0.01  -0.02
   9   6    -0.02   0.04   0.05    -0.05  -0.11  -0.03    -0.01  -0.01   0.00
  10   6     0.00  -0.02  -0.02     0.03   0.05   0.15     0.00   0.03   0.01
  11   6     0.08  -0.02  -0.00     0.01   0.15   0.05    -0.02  -0.27   0.30
  12   6     0.11   0.02  -0.00    -0.02   0.01   0.02     0.01   0.30  -0.29
  13   6     0.12  -0.01   0.01     0.06  -0.09   0.01     0.01  -0.01  -0.01
  14   6     0.06  -0.02  -0.01     0.12   0.03  -0.08     0.00  -0.30   0.28
  15   6     0.05  -0.02  -0.07     0.12   0.06   0.06     0.04   0.31  -0.28
  16   6    -0.11   0.01  -0.04    -0.18   0.02  -0.04    -0.03  -0.00  -0.02
  17   6    -0.15  -0.14  -0.07    -0.11   0.16   0.19    -0.02   0.03   0.02
  18  17    -0.05  -0.02  -0.03    -0.02  -0.01  -0.01    -0.00   0.00  -0.00
  19   1     0.15  -0.01   0.06     0.10   0.01   0.04     0.01   0.00   0.00
  20   1     0.17  -0.09   0.19     0.06  -0.03   0.13     0.00   0.00   0.01
  21   1    -0.06  -0.15   0.09    -0.07  -0.07   0.06     0.00  -0.00   0.00
  22   1     0.05   0.04  -0.07     0.02   0.01  -0.03     0.00  -0.00   0.01
  23   1     0.07   0.01  -0.03    -0.01   0.05  -0.10     0.00   0.00  -0.00
  24   1    -0.08   0.14   0.06     0.03  -0.11  -0.23     0.01  -0.02  -0.03
  25   1     0.08   0.16  -0.05    -0.20  -0.15  -0.05    -0.03  -0.03   0.00
  26   1    -0.10  -0.02  -0.04     0.07   0.02   0.11     0.02   0.02  -0.01
  27   1    -0.07   0.03  -0.01     0.04  -0.00  -0.09     0.01  -0.02   0.01
  28   1    -0.04   0.03   0.03    -0.01  -0.10   0.05    -0.00   0.01  -0.02
  29   1     0.02   0.02   0.02    -0.05   0.00  -0.06    -0.01  -0.00  -0.00
  30   1     0.03  -0.02  -0.00    -0.01   0.08  -0.00    -0.01  -0.20   0.21
  31   1     0.03   0.01  -0.01    -0.03  -0.00  -0.00     0.00   0.18  -0.18
  32   1     0.03  -0.01   0.01     0.01  -0.05   0.00     0.00  -0.01   0.00
  33   1     0.01  -0.00   0.01     0.05   0.02  -0.05    -0.00  -0.19   0.18
  34   1     0.02   0.00  -0.02     0.07   0.03   0.02     0.03   0.20  -0.18
  35   1    -0.00   0.02  -0.02    -0.11  -0.01  -0.02    -0.02  -0.00  -0.01
  36   1    -0.03  -0.04  -0.03    -0.07   0.07   0.07    -0.01   0.01   0.01
                     19                     20                     21
                        a                      a                      a 
 Frequencies --   364.0231               374.6363               446.4528
 Red. masses --     8.8367                 9.8944                 9.7662
 Frc consts  --     0.0000                 0.0000                 0.0000
 IR Inten    --     0.1021                 0.6187                 0.1584
 Raman Activ --     0.0000                 0.0000                 0.0000
 Depolar     --     0.0000                 0.0000                 0.0000
 Atom AN      X      Y      Z        X      Y      Z        X      Y      Z
   1   7    -0.03   0.01  -0.01    -0.16   0.05  -0.02    -0.05   0.01   0.01
   2   6    -0.02   0.02  -0.00    -0.11   0.11  -0.10    -0.04   0.04  -0.09
   3   6     0.01   0.05   0.01     0.01   0.16  -0.05    -0.06  -0.00  -0.06
   4   6     0.00  -0.06   0.00     0.01  -0.21   0.14     0.00  -0.03   0.28
   5   6    -0.00  -0.24   0.38     0.00  -0.18   0.12     0.10  -0.01   0.05
   6   6    -0.01   0.23  -0.36     0.04   0.12  -0.07     0.04  -0.10  -0.21
   7   6     0.02   0.05  -0.01     0.11   0.24  -0.23     0.02  -0.21   0.00
   8   6     0.01   0.02   0.02     0.07  -0.10   0.13     0.12   0.20   0.30
   9   6     0.01  -0.01   0.04     0.05  -0.12   0.14     0.09   0.26   0.28
  10   6    -0.01  -0.04  -0.01    -0.01  -0.21   0.12    -0.03   0.06  -0.29
  11   6    -0.00  -0.04  -0.01    -0.03  -0.02  -0.08    -0.00  -0.13  -0.13
  12   6     0.01   0.03  -0.03    -0.02   0.09  -0.11     0.05  -0.09   0.08
  13   6    -0.01  -0.00   0.02    -0.09  -0.10   0.15    -0.01   0.15  -0.06
  14   6    -0.03  -0.01   0.02    -0.08   0.09  -0.04    -0.09  -0.06   0.10
  15   6    -0.02   0.01  -0.04    -0.07   0.08  -0.10    -0.10  -0.11  -0.11
  16   6     0.06  -0.18   0.35     0.17   0.18  -0.20    -0.04  -0.05  -0.21
  17   6     0.03   0.15  -0.35     0.14  -0.24   0.24    -0.01   0.05   0.09
  18  17     0.00  -0.00   0.00     0.00  -0.00  -0.00    -0.00  -0.00   0.00
  19   1    -0.01  -0.00  -0.00    -0.04   0.01  -0.00     0.00  -0.01   0.01
  20   1    -0.01   0.00  -0.01    -0.03   0.00  -0.00    -0.00  -0.00   0.01
  21   1    -0.00   0.01  -0.00    -0.06   0.01  -0.00    -0.04   0.01   0.02
  22   1    -0.01   0.01  -0.01    -0.05   0.04  -0.05    -0.02   0.01  -0.02
  23   1    -0.01  -0.00   0.00    -0.05   0.02  -0.02    -0.02   0.02  -0.03
  24   1    -0.02   0.03   0.03    -0.06   0.09   0.04    -0.02  -0.01  -0.06
  25   1     0.03   0.03  -0.01     0.04   0.10  -0.04    -0.08  -0.01  -0.02
  26   1    -0.01  -0.14   0.24    -0.02  -0.07   0.06     0.07   0.04  -0.03
  27   1    -0.01   0.14  -0.24    -0.02   0.05   0.01     0.04  -0.02  -0.15
  28   1     0.00  -0.01   0.02     0.01  -0.11   0.15     0.13   0.12   0.03
  29   1     0.01  -0.00   0.01     0.02   0.04  -0.06     0.11   0.02   0.17
  30   1     0.00  -0.02   0.00    -0.01   0.03  -0.06     0.03  -0.11  -0.01
  31   1     0.01   0.02  -0.02     0.02   0.08  -0.07     0.05  -0.07   0.08
  32   1    -0.00  -0.00   0.01    -0.03  -0.06   0.09     0.00   0.07  -0.02
  33   1    -0.01  -0.00   0.01    -0.02   0.05  -0.04    -0.05  -0.05   0.09
  34   1    -0.01   0.01  -0.03    -0.04   0.06  -0.08    -0.06  -0.08  -0.00
  35   1     0.03  -0.11   0.22     0.08   0.08  -0.09    -0.06   0.01  -0.14
  36   1     0.01   0.10  -0.23     0.07  -0.13   0.12    -0.03   0.05  -0.00
                     22                     23                     24
                        a                      a                      a 
 Frequencies --   463.8110               506.8299               533.4910
 Red. masses --     9.6122                10.0116                 9.8477
 Frc consts  --     0.0000                 0.0000                 0.0000
 IR Inten    --     0.0910                 2.6721                 9.2265
 Raman Activ --     0.0000                 0.0000                 0.0000
 Depolar     --     0.0000                 0.0000                 0.0000
 Atom AN      X      Y      Z        X      Y      Z        X      Y      Z
   1   7     0.02   0.00  -0.02     0.07  -0.04   0.04    -0.15   0.05  -0.04
   2   6     0.01  -0.06   0.08     0.04   0.03  -0.07    -0.07   0.03  -0.03
   3   6     0.08  -0.06   0.01    -0.22   0.03   0.05     0.19  -0.01  -0.08
   4   6     0.08   0.20  -0.21    -0.19  -0.07   0.22     0.21  -0.20   0.28
   5   6     0.05   0.08   0.05    -0.04  -0.02  -0.17     0.10   0.07   0.03
   6   6    -0.02  -0.15   0.04    -0.02  -0.14  -0.01     0.08   0.12   0.01
   7   6    -0.14  -0.02  -0.24     0.19  -0.18   0.22    -0.14  -0.13   0.33
   8   6    -0.04   0.33   0.07     0.23   0.11  -0.16    -0.22   0.06  -0.07
   9   6    -0.02   0.25   0.14     0.21   0.10  -0.14    -0.24   0.11  -0.12
  10   6    -0.09  -0.32   0.19     0.13  -0.23   0.18    -0.19  -0.06   0.13
  11   6     0.02  -0.07  -0.04    -0.06  -0.12  -0.02     0.05   0.06   0.13
  12   6     0.08   0.14  -0.09    -0.07   0.05  -0.16     0.08   0.13   0.01
  13   6     0.07  -0.14   0.17    -0.21  -0.10   0.15     0.22  -0.13   0.05
  14   6    -0.00   0.11  -0.13    -0.04   0.18  -0.04     0.03  -0.02  -0.15
  15   6    -0.03  -0.11  -0.09    -0.02   0.02   0.12    -0.01  -0.12  -0.03
  16   6    -0.11  -0.22   0.02     0.03   0.04   0.09     0.03  -0.06  -0.11
  17   6    -0.07   0.02   0.02    -0.00   0.17  -0.08     0.06  -0.09  -0.06
  18  17     0.00   0.00   0.00    -0.01  -0.00  -0.00     0.00  -0.00   0.00
  19   1    -0.01   0.01  -0.01     0.05  -0.02   0.02    -0.05   0.02  -0.02
  20   1    -0.01   0.01  -0.01     0.04  -0.02   0.03    -0.05   0.02  -0.02
  21   1     0.04   0.00  -0.02    -0.03  -0.02   0.03    -0.01   0.02  -0.02
  22   1     0.01  -0.02   0.03     0.02   0.00  -0.01    -0.04   0.02  -0.02
  23   1     0.01  -0.01   0.02     0.02   0.00  -0.01    -0.04   0.02  -0.02
  24   1     0.08  -0.05  -0.01    -0.09   0.02  -0.00     0.04   0.00  -0.02
  25   1     0.02  -0.05   0.02    -0.09   0.02  -0.00     0.04  -0.00  -0.02
  26   1     0.04  -0.01   0.09     0.03   0.07  -0.15    -0.01   0.09  -0.15
  27   1     0.04  -0.13   0.09    -0.03   0.03  -0.09     0.04   0.10  -0.18
  28   1     0.07   0.06   0.10     0.06   0.04  -0.06    -0.06   0.04  -0.05
  29   1     0.08   0.15  -0.02     0.06   0.04  -0.05    -0.07   0.02  -0.02
  30   1     0.04   0.03  -0.10    -0.04   0.05  -0.05     0.05   0.03  -0.01
  31   1     0.04   0.12  -0.10     0.02   0.10  -0.11    -0.02   0.07  -0.05
  32   1     0.02  -0.05   0.07    -0.06  -0.03   0.05     0.06  -0.03   0.01
  33   1    -0.02   0.13  -0.10     0.02   0.11  -0.10    -0.02   0.06  -0.07
  34   1    -0.01   0.03  -0.09    -0.04   0.06  -0.04     0.05   0.01  -0.03
  35   1    -0.05  -0.12   0.09    -0.04   0.05  -0.07     0.05   0.08  -0.18
  36   1    -0.06   0.00   0.09     0.02   0.08  -0.14    -0.01   0.07  -0.14
                     25                     26                     27
                        a                      a                      a 
 Frequencies --   588.9731               601.3638               611.0754
 Red. masses --    11.1687                10.8663                11.2178
 Frc consts  --     0.0000                 0.0000                 0.0000
 IR Inten    --     0.0093                 1.2513                 0.0500
 Raman Activ --     0.0000                 0.0000                 0.0000
 Depolar     --     0.0000                 0.0000                 0.0000
 Atom AN      X      Y      Z        X      Y      Z        X      Y      Z
   1   7    -0.00   0.00  -0.00    -0.08   0.03  -0.02    -0.01   0.00  -0.01
   2   6    -0.00   0.00   0.00    -0.02  -0.01   0.03    -0.01  -0.02  -0.00
   3   6     0.01   0.01   0.00     0.24  -0.01  -0.07     0.04  -0.06  -0.04
   4   6     0.01   0.02   0.00     0.20  -0.01   0.01     0.01  -0.10  -0.07
   5   6    -0.03   0.04   0.03    -0.06   0.16   0.17     0.31  -0.28  -0.13
   6   6    -0.05  -0.02  -0.02    -0.13   0.08  -0.04     0.40   0.18   0.07
   7   6    -0.02  -0.02  -0.01    -0.25  -0.06   0.08    -0.02   0.09   0.06
   8   6     0.01   0.05   0.05    -0.13   0.12   0.08    -0.01   0.08   0.06
   9   6     0.02   0.03   0.03     0.23  -0.14  -0.14     0.06   0.06   0.01
  10   6     0.05   0.10   0.11     0.32  -0.03  -0.02     0.06  -0.00   0.00
  11   6     0.38   0.13   0.15    -0.04  -0.10  -0.12     0.03  -0.03  -0.01
  12   6     0.28  -0.29  -0.29    -0.08  -0.11  -0.12     0.02  -0.05  -0.06
  13   6    -0.05  -0.12  -0.12    -0.30   0.06   0.04    -0.07  -0.01   0.01
  14   6    -0.41  -0.16  -0.19     0.12   0.15   0.17    -0.03   0.02   0.00
  15   6    -0.26   0.25   0.24     0.14   0.16   0.17    -0.01   0.04   0.06
  16   6     0.02  -0.05  -0.04    -0.09  -0.18  -0.17    -0.34   0.27   0.14
  17   6     0.04   0.01   0.01    -0.04  -0.13   0.01    -0.45  -0.20  -0.08
  18  17     0.00   0.00   0.00     0.00   0.00   0.00     0.00   0.00   0.00
  19   1    -0.00   0.00  -0.00    -0.04   0.02  -0.02    -0.00   0.00  -0.00
  20   1    -0.00   0.00  -0.00    -0.04   0.02  -0.02    -0.01   0.01  -0.00
  21   1     0.00   0.00  -0.00     0.02   0.01  -0.02     0.01   0.01  -0.00
  22   1    -0.00   0.00  -0.00    -0.02   0.01  -0.00    -0.00  -0.00   0.01
  23   1    -0.00  -0.00   0.00    -0.02   0.01  -0.00    -0.01   0.01  -0.01
  24   1     0.00   0.00   0.00     0.08  -0.01  -0.01     0.03  -0.04  -0.06
  25   1     0.01   0.00  -0.00     0.08  -0.01  -0.01    -0.02  -0.06   0.01
  26   1    -0.00   0.01   0.01    -0.06   0.04   0.02     0.04  -0.09  -0.04
  27   1    -0.00  -0.02  -0.01     0.03  -0.01  -0.08     0.09   0.07   0.02
  28   1     0.02   0.02   0.01    -0.10   0.03  -0.00     0.01   0.03   0.00
  29   1     0.01   0.01   0.01     0.11  -0.04  -0.02     0.05   0.01   0.03
  30   1     0.05   0.07   0.08    -0.08   0.01   0.01    -0.01   0.00   0.01
  31   1     0.02  -0.09  -0.09     0.05  -0.02  -0.01     0.02  -0.01  -0.02
  32   1     0.02   0.08   0.08    -0.09   0.00  -0.00    -0.01   0.01   0.01
  33   1    -0.07  -0.07  -0.08     0.10  -0.00   0.00     0.01   0.00  -0.01
  34   1    -0.02   0.08   0.08    -0.02   0.03   0.03    -0.01   0.01   0.01
  35   1     0.00  -0.02  -0.01    -0.00  -0.02  -0.09    -0.05   0.09   0.04
  36   1     0.00   0.01   0.01    -0.08   0.03   0.01    -0.11  -0.07  -0.03
                     28                     29                     30
                        a                      a                      a 
 Frequencies --   651.5747               680.9846               727.5284
 Red. masses --     9.2420                 9.7438                 5.5691
 Frc consts  --     0.0000                 0.0000                 0.0000
 IR Inten    --     4.1198                 2.2362                 7.0996
 Raman Activ --     0.0000                 0.0000                 0.0000
 Depolar     --     0.0000                 0.0000                 0.0000
 Atom AN      X      Y      Z        X      Y      Z        X      Y      Z
   1   7    -0.02   0.00  -0.00     0.07  -0.02   0.00     0.03  -0.01   0.00
   2   6    -0.00   0.01  -0.01     0.01  -0.03   0.05    -0.00  -0.02   0.04
   3   6     0.01  -0.00  -0.00    -0.03   0.01   0.00     0.01   0.01  -0.01
   4   6     0.02  -0.07   0.12    -0.07   0.23  -0.41    -0.03   0.10  -0.18
   5   6     0.02   0.04  -0.07    -0.04  -0.16   0.23    -0.01  -0.08   0.09
   6   6     0.02  -0.03   0.08    -0.05   0.09  -0.25    -0.02  -0.02  -0.04
   7   6    -0.02   0.03  -0.05     0.07  -0.20   0.36     0.04  -0.11   0.19
   8   6    -0.02   0.09  -0.08     0.06  -0.08   0.03     0.03   0.18  -0.24
   9   6     0.00  -0.03   0.05     0.00   0.12  -0.13     0.00  -0.10   0.15
  10   6    -0.02  -0.29   0.28    -0.03  -0.07   0.07    -0.02  -0.17   0.17
  11   6     0.02   0.19  -0.19    -0.01   0.01   0.02     0.00   0.14  -0.12
  12   6    -0.01  -0.26   0.25    -0.01  -0.04   0.08     0.00   0.04  -0.02
  13   6     0.02   0.21  -0.21     0.03  -0.00  -0.01     0.02   0.11  -0.11
  14   6    -0.02  -0.26   0.26    -0.02  -0.08   0.05    -0.02   0.03  -0.06
  15   6     0.01   0.21  -0.21    -0.01  -0.02  -0.02    -0.01   0.12  -0.14
  16   6    -0.01  -0.06   0.07    -0.00   0.20  -0.21    -0.02   0.04  -0.00
  17   6    -0.01   0.02  -0.07     0.01  -0.08   0.26    -0.02  -0.04   0.12
  18  17    -0.00  -0.00  -0.00    -0.00   0.00   0.00     0.00  -0.00   0.00
  19   1    -0.00   0.00  -0.00     0.01  -0.00  -0.00    -0.00   0.00  -0.00
  20   1    -0.01   0.00   0.00     0.01  -0.00  -0.00     0.01  -0.00  -0.00
  21   1    -0.01   0.00  -0.00     0.03  -0.00  -0.00     0.02  -0.00  -0.01
  22   1    -0.01   0.00  -0.00     0.01  -0.01   0.02     0.01  -0.01   0.01
  23   1    -0.00   0.00  -0.01     0.02  -0.01   0.02     0.00  -0.01   0.01
  24   1    -0.00   0.00  -0.01     0.02  -0.01   0.01     0.02  -0.01  -0.00
  25   1    -0.01   0.00  -0.00     0.03  -0.01   0.01     0.02  -0.01   0.01
  26   1     0.00   0.03  -0.06     0.00  -0.06   0.10     0.00   0.03  -0.07
  27   1     0.01  -0.00  -0.00    -0.03   0.05  -0.10    -0.02   0.06  -0.13
  28   1     0.00  -0.04   0.06     0.01   0.07  -0.12     0.01  -0.12   0.17
  29   1     0.02   0.05  -0.06    -0.02  -0.07   0.09     0.01   0.17  -0.20
  30   1     0.01   0.21  -0.20     0.01   0.12  -0.11    -0.01  -0.17   0.16
  31   1     0.00   0.01  -0.01    -0.01   0.09  -0.08    -0.02  -0.21   0.21
  32   1     0.01   0.19  -0.18     0.01   0.11  -0.12    -0.01  -0.24   0.23
  33   1    -0.00   0.00  -0.00    -0.01   0.09  -0.09    -0.02  -0.21   0.21
  34   1     0.01   0.20  -0.19     0.01   0.12  -0.12    -0.01  -0.19   0.18
  35   1     0.00   0.00  -0.01    -0.02   0.06  -0.08    -0.02   0.08  -0.14
  36   1    -0.01   0.03  -0.06     0.02  -0.06   0.11    -0.00   0.04  -0.06
                     31                     32                     33
                        a                      a                      a 
 Frequencies --   772.0105               792.2315               794.7728
 Red. masses --     6.9397                 2.5113                 8.6560
 Frc consts  --     0.0000                 0.0000                 0.0000
 IR Inten    --    23.6282                26.5107                 4.9886
 Raman Activ --     0.0000                 0.0000                 0.0000
 Depolar     --     0.0000                 0.0000                 0.0000
 Atom AN      X      Y      Z        X      Y      Z        X      Y      Z
   1   7     0.01  -0.01   0.01     0.03   0.02   0.01    -0.03   0.00   0.03
   2   6     0.00  -0.04   0.06     0.05   0.20   0.09     0.02   0.01   0.09
   3   6     0.14   0.00  -0.07    -0.05   0.17   0.11     0.34   0.03  -0.12
   4   6     0.02   0.04  -0.10    -0.02   0.01  -0.02     0.07  -0.04   0.03
   5   6    -0.09  -0.02   0.10     0.03  -0.06  -0.02    -0.19   0.05   0.09
   6   6    -0.10  -0.08   0.08     0.03   0.01  -0.00    -0.22  -0.11   0.08
   7   6     0.06   0.02  -0.06    -0.03  -0.00   0.04     0.13   0.08  -0.19
   8   6     0.13   0.09  -0.24    -0.08   0.06  -0.02     0.27  -0.27   0.12
   9   6     0.01  -0.18   0.32    -0.02  -0.05   0.03     0.09   0.21  -0.14
  10   6     0.01   0.26  -0.26     0.01   0.03  -0.03    -0.02  -0.11   0.12
  11   6    -0.01  -0.12   0.10     0.01  -0.01   0.01    -0.02   0.05  -0.03
  12   6     0.01  -0.02   0.03     0.01  -0.01  -0.01    -0.02   0.06   0.03
  13   6     0.00  -0.09   0.09    -0.01  -0.01   0.01     0.04   0.03  -0.04
  14   6    -0.02  -0.02   0.00     0.02   0.01   0.02    -0.06  -0.03  -0.05
  15   6    -0.02  -0.09   0.06     0.01  -0.00   0.02    -0.04  -0.01  -0.05
  16   6    -0.07   0.03   0.14     0.06  -0.05  -0.05    -0.13   0.13   0.16
  17   6    -0.08  -0.04   0.09     0.05  -0.03  -0.03    -0.16  -0.01   0.01
  18  17     0.00  -0.00   0.00    -0.01   0.00   0.00     0.00  -0.00   0.00
  19   1    -0.02   0.02  -0.02    -0.21  -0.08   0.01    -0.12   0.01  -0.03
  20   1    -0.03   0.02  -0.01     0.20  -0.11  -0.08    -0.02  -0.00  -0.05
  21   1     0.06   0.00  -0.02    -0.03  -0.07  -0.02     0.10  -0.01  -0.05
  22   1    -0.01  -0.00   0.02     0.09  -0.06  -0.47    -0.01  -0.01  -0.11
  23   1    -0.01   0.00   0.01    -0.17  -0.37   0.25    -0.07  -0.08   0.06
  24   1     0.06  -0.01  -0.00     0.00  -0.03  -0.36     0.12  -0.02  -0.11
  25   1     0.06  -0.01  -0.01    -0.15  -0.29   0.21     0.09  -0.08   0.02
  26   1    -0.04   0.09  -0.17    -0.00  -0.02  -0.01    -0.09   0.08  -0.13
  27   1    -0.06   0.10  -0.17     0.01  -0.00   0.00    -0.10   0.08  -0.12
  28   1     0.06  -0.19   0.23    -0.04  -0.02   0.04     0.12   0.09  -0.17
  29   1    -0.03   0.14  -0.16     0.00   0.02  -0.04    -0.03  -0.11   0.15
  30   1     0.01   0.11  -0.12    -0.00   0.01  -0.01     0.02  -0.06   0.03
  31   1     0.01   0.14  -0.13     0.01   0.01  -0.02    -0.03  -0.05   0.06
  32   1     0.01   0.18  -0.16    -0.00   0.02  -0.02     0.01  -0.07   0.07
  33   1    -0.01   0.11  -0.11     0.01   0.02  -0.02    -0.04  -0.04   0.04
  34   1    -0.00   0.06  -0.07     0.00   0.01  -0.01    -0.01  -0.02   0.00
  35   1    -0.05   0.12  -0.18     0.04  -0.02   0.01    -0.07   0.07  -0.04
  36   1    -0.03   0.09  -0.15     0.03  -0.04   0.01    -0.05   0.05  -0.07
                     34                     35                     36
                        a                      a                      a 
 Frequencies --   811.0986               851.1064               853.1937
 Red. masses --     7.4624                10.1115                 3.7370
 Frc consts  --     0.0000                 0.0000                 0.0000
 IR Inten    --     7.4766                 0.0583                 0.3320
 Raman Activ --     0.0000                 0.0000                 0.0000
 Depolar     --     0.0000                 0.0000                 0.0000
 Atom AN      X      Y      Z        X      Y      Z        X      Y      Z
   1   7    -0.07   0.01   0.01    -0.01  -0.01   0.02     0.01  -0.00   0.01
   2   6     0.03   0.02  -0.01     0.01  -0.01   0.02    -0.00  -0.00   0.02
   3   6     0.24  -0.02  -0.06     0.13  -0.00  -0.06     0.03  -0.00  -0.03
   4   6     0.09  -0.13   0.21    -0.01  -0.04   0.06    -0.01   0.01  -0.00
   5   6    -0.11   0.16  -0.11    -0.02  -0.07  -0.06    -0.00   0.01  -0.12
   6   6    -0.14   0.08  -0.23    -0.06  -0.08  -0.03    -0.02   0.04  -0.15
   7   6     0.08  -0.15   0.25     0.05  -0.05   0.05     0.01   0.00  -0.01
   8   6     0.20   0.05  -0.21    -0.07  -0.10  -0.11    -0.03  -0.01  -0.01
   9   6     0.11  -0.08   0.11    -0.42   0.21   0.18    -0.08   0.04   0.02
  10   6     0.00   0.03  -0.03    -0.11   0.01   0.03    -0.02  -0.00   0.01
  11   6    -0.03   0.02   0.04     0.12  -0.13  -0.09     0.03   0.16  -0.18
  12   6    -0.04   0.07   0.08     0.16  -0.27  -0.25     0.03   0.03  -0.12
  13   6     0.07  -0.02  -0.00    -0.25   0.06   0.03    -0.05  -0.01   0.02
  14   6    -0.09  -0.05  -0.06     0.25   0.18   0.18     0.04  -0.06   0.12
  15   6    -0.05  -0.02  -0.03     0.14   0.01  -0.01     0.02  -0.15   0.15
  16   6    -0.10   0.15  -0.08     0.01   0.19   0.01     0.01  -0.05   0.18
  17   6    -0.13   0.02  -0.11     0.05   0.12  -0.00     0.02  -0.03   0.13
  18  17     0.00   0.00   0.00     0.00  -0.00   0.00    -0.00  -0.00   0.00
  19   1    -0.06   0.01  -0.01    -0.03   0.02  -0.01    -0.02   0.00  -0.01
  20   1    -0.03   0.01  -0.02    -0.04   0.01  -0.02     0.00  -0.00  -0.01
  21   1     0.02   0.00  -0.02     0.06  -0.00  -0.02     0.02  -0.01  -0.01
  22   1    -0.02   0.01  -0.04    -0.01   0.01  -0.00     0.01  -0.00  -0.00
  23   1    -0.03  -0.01  -0.01    -0.02   0.00  -0.00    -0.02  -0.00   0.00
  24   1     0.05  -0.00  -0.04     0.04   0.00  -0.02     0.01  -0.00  -0.00
  25   1     0.04  -0.02  -0.01     0.04  -0.00  -0.02     0.01   0.00  -0.01
  26   1    -0.04  -0.14   0.30     0.01  -0.03   0.01     0.02  -0.11   0.19
  27   1    -0.04  -0.17   0.35    -0.08   0.03  -0.01    -0.01  -0.12   0.24
  28   1     0.06  -0.06   0.05     0.06  -0.02  -0.01    -0.00  -0.02   0.02
  29   1     0.02   0.08  -0.11    -0.22   0.06   0.01    -0.03  -0.00   0.02
  30   1     0.01   0.02  -0.02     0.04   0.00  -0.07    -0.01  -0.31   0.28
  31   1    -0.04   0.02   0.00     0.15  -0.04  -0.06     0.01  -0.17   0.15
  32   1     0.02   0.01  -0.01    -0.06   0.00   0.04    -0.01   0.03  -0.02
  33   1    -0.05  -0.00  -0.00     0.13  -0.02   0.04     0.04   0.20  -0.19
  34   1    -0.01  -0.02   0.00     0.01  -0.03   0.02     0.02   0.26  -0.26
  35   1    -0.04  -0.09   0.21    -0.01  -0.03   0.15    -0.02   0.17  -0.29
  36   1    -0.05  -0.09   0.18     0.04  -0.05   0.11     0.01   0.13  -0.23
                     37                     38                     39
                        a                      a                      a 
 Frequencies --   861.1835               877.8742               885.2738
 Red. masses --     3.5193                 3.2893                 4.1771
 Frc consts  --     0.0000                 0.0000                 0.0000
 IR Inten    --     0.3667                19.3377                 1.4103
 Raman Activ --     0.0000                 0.0000                 0.0000
 Depolar     --     0.0000                 0.0000                 0.0000
 Atom AN      X      Y      Z        X      Y      Z        X      Y      Z
   1   7    -0.00  -0.01  -0.03     0.00   0.20   0.02    -0.02  -0.03  -0.04
   2   6     0.00   0.01   0.01     0.03   0.06  -0.04    -0.00   0.00  -0.03
   3   6     0.00   0.03   0.02    -0.09  -0.27  -0.03    -0.06   0.06   0.08
   4   6    -0.00   0.01  -0.02     0.04   0.00  -0.04     0.03   0.00  -0.02
   5   6    -0.00   0.04  -0.11     0.01   0.14   0.06    -0.02   0.10   0.04
   6   6    -0.00   0.08  -0.15     0.05   0.08   0.05     0.02   0.08   0.07
   7   6    -0.01   0.02  -0.04     0.00  -0.02  -0.00     0.00  -0.00   0.01
   8   6    -0.01  -0.05   0.04     0.09  -0.06  -0.05     0.09  -0.05  -0.07
   9   6    -0.04   0.05  -0.03    -0.02   0.05   0.04    -0.01   0.02   0.05
  10   6    -0.02  -0.01   0.01    -0.01   0.01  -0.00    -0.00   0.05  -0.05
  11   6     0.00  -0.16   0.14     0.01  -0.05   0.03    -0.01  -0.15   0.13
  12   6     0.01  -0.09   0.03     0.01  -0.01  -0.03     0.01   0.06  -0.08
  13   6    -0.02   0.03  -0.02    -0.02   0.04  -0.03     0.00   0.20  -0.19
  14   6     0.03   0.10  -0.06     0.01   0.02   0.00     0.00   0.02  -0.02
  15   6     0.02   0.11  -0.11     0.00  -0.03   0.01    -0.01  -0.20   0.18
  16   6     0.01  -0.10   0.20    -0.04  -0.04  -0.00     0.01  -0.08  -0.04
  17   6     0.01  -0.08   0.14    -0.05  -0.04  -0.01    -0.04  -0.09  -0.06
  18  17     0.00   0.00   0.00    -0.01   0.00   0.00     0.00  -0.00  -0.00
  19   1     0.03  -0.01   0.01    -0.38  -0.12   0.03     0.14   0.01   0.01
  20   1    -0.02   0.01   0.01     0.45  -0.21  -0.09    -0.08   0.04   0.05
  21   1    -0.00   0.03   0.01    -0.18  -0.15  -0.02    -0.04   0.04   0.04
  22   1    -0.01   0.01  -0.02     0.27  -0.13   0.02    -0.06   0.03  -0.01
  23   1     0.02  -0.02   0.02    -0.23   0.03  -0.07     0.08  -0.01   0.02
  24   1     0.02  -0.01  -0.03    -0.08   0.01   0.29    -0.01  -0.00  -0.06
  25   1    -0.02  -0.03   0.02     0.12   0.18  -0.13    -0.06  -0.05   0.06
  26   1     0.01  -0.12   0.21    -0.01   0.02   0.05    -0.04   0.01   0.03
  27   1     0.00  -0.14   0.28     0.03   0.02  -0.00     0.01   0.05  -0.03
  28   1     0.01   0.04  -0.05     0.06  -0.02   0.00     0.06  -0.04   0.03
  29   1    -0.02  -0.04   0.06    -0.02   0.00   0.02    -0.03  -0.01   0.02
  30   1     0.02   0.26  -0.26     0.02   0.06  -0.07     0.02   0.25  -0.25
  31   1     0.02   0.13  -0.13     0.01  -0.03   0.02    -0.00  -0.18   0.17
  32   1    -0.01  -0.04   0.04    -0.01  -0.05   0.05    -0.02  -0.31   0.31
  33   1     0.00  -0.18   0.18     0.00  -0.02   0.02    -0.01  -0.08   0.08
  34   1    -0.01  -0.21   0.20     0.00   0.03  -0.04     0.02   0.34  -0.34
  35   1    -0.01   0.20  -0.36    -0.01   0.01  -0.04     0.03  -0.01  -0.01
  36   1    -0.00   0.16  -0.29    -0.04   0.02  -0.00    -0.03  -0.03   0.02
                     40                     41                     42
                        a                      a                      a 
 Frequencies --   889.2958               898.9232               917.1502
 Red. masses --     8.0005                 3.4616                 4.2465
 Frc consts  --     0.0000                 0.0000                 0.0000
 IR Inten    --     8.3817                 0.2532                 1.0182
 Raman Activ --     0.0000                 0.0000                 0.0000
 Depolar     --     0.0000                 0.0000                 0.0000
 Atom AN      X      Y      Z        X      Y      Z        X      Y      Z
   1   7     0.07  -0.01   0.10    -0.00  -0.00   0.02     0.05  -0.03   0.03
   2   6    -0.02  -0.03   0.09     0.00   0.00   0.01    -0.03  -0.01   0.04
   3   6     0.14  -0.03  -0.20     0.05  -0.00  -0.04    -0.04   0.03  -0.04
   4   6    -0.09  -0.01   0.07    -0.02  -0.00   0.01    -0.01  -0.00   0.00
   5   6     0.06  -0.31  -0.10    -0.00   0.08  -0.31     0.00   0.04  -0.04
   6   6    -0.06  -0.20  -0.17    -0.02  -0.19   0.21     0.02   0.01   0.05
   7   6    -0.03   0.02  -0.02    -0.00  -0.00   0.01    -0.01   0.00  -0.00
   8   6    -0.27   0.19   0.14    -0.07   0.05   0.04     0.01  -0.01  -0.01
   9   6     0.06  -0.14  -0.09     0.03  -0.04  -0.04    -0.00   0.01   0.00
  10   6     0.04   0.02  -0.05     0.02  -0.00  -0.01    -0.00  -0.01   0.01
  11   6    -0.03  -0.05   0.10    -0.01  -0.00   0.01    -0.01  -0.14   0.13
  12   6    -0.03   0.06   0.04    -0.01   0.02   0.02     0.02   0.22  -0.22
  13   6     0.07   0.07  -0.09     0.03  -0.00  -0.01    -0.00  -0.02   0.02
  14   6    -0.03  -0.01  -0.04    -0.02  -0.01  -0.02    -0.01  -0.20   0.20
  15   6    -0.02  -0.03   0.09    -0.01   0.01   0.01     0.01   0.15  -0.15
  16   6     0.00   0.19   0.07     0.00   0.02   0.08     0.00   0.01  -0.09
  17   6     0.14   0.25   0.14     0.03   0.09  -0.03    -0.00  -0.07   0.09
  18  17    -0.00  -0.00   0.00     0.00   0.00   0.00     0.00  -0.00   0.00
  19   1    -0.21   0.03  -0.05    -0.04   0.01  -0.01    -0.03   0.02  -0.02
  20   1     0.01  -0.01  -0.08    -0.01   0.00  -0.02    -0.03   0.01  -0.02
  21   1     0.21  -0.05  -0.10     0.04  -0.00  -0.02     0.09  -0.01  -0.03
  22   1     0.03  -0.03   0.02     0.00  -0.00  -0.00    -0.01   0.00   0.00
  23   1    -0.12   0.02  -0.02    -0.02   0.00  -0.00    -0.02   0.00   0.00
  24   1     0.03   0.01   0.03     0.01   0.00  -0.01    -0.02   0.01  -0.01
  25   1     0.09   0.07  -0.09     0.01   0.01  -0.02    -0.02   0.02  -0.02
  26   1     0.10   0.00  -0.14     0.04  -0.30   0.55    -0.00  -0.03   0.06
  27   1    -0.02  -0.11   0.07    -0.02   0.22  -0.48     0.01   0.03  -0.03
  28   1    -0.17   0.04   0.02    -0.05  -0.01   0.03     0.01   0.01  -0.01
  29   1     0.09  -0.02  -0.01     0.02  -0.02   0.01    -0.00  -0.00   0.00
  30   1    -0.03   0.17  -0.11    -0.01   0.02  -0.01     0.01   0.20  -0.19
  31   1    -0.03  -0.03   0.05    -0.01   0.01   0.00    -0.02  -0.36   0.35
  32   1     0.01  -0.13   0.11     0.01  -0.01   0.00     0.00   0.03  -0.03
  33   1    -0.02  -0.06   0.05    -0.01  -0.01   0.00     0.02   0.32  -0.32
  34   1     0.01   0.12  -0.10    -0.00   0.00   0.00    -0.01  -0.22   0.21
  35   1    -0.06  -0.00   0.09    -0.02   0.11  -0.18     0.01  -0.08   0.13
  36   1     0.08   0.06  -0.02     0.03  -0.10   0.20    -0.01   0.09  -0.17
                     43                     44                     45
                        a                      a                      a 
 Frequencies --   917.7543               921.6495               924.6606
 Red. masses --     3.9791                 6.7295                 3.1392
 Frc consts  --     0.0000                 0.0000                 0.0000
 IR Inten    --     0.6184                33.4834                 0.2368
 Raman Activ --     0.0000                 0.0000                 0.0000
 Depolar     --     0.0000                 0.0000                 0.0000
 Atom AN      X      Y      Z        X      Y      Z        X      Y      Z
   1   7     0.03  -0.01   0.01     0.29  -0.14   0.19     0.01  -0.00   0.00
   2   6    -0.02  -0.00   0.02    -0.18  -0.03   0.18    -0.00  -0.00   0.00
   3   6    -0.03   0.02  -0.02    -0.23   0.12  -0.25    -0.01   0.00  -0.00
   4   6    -0.00   0.00  -0.00    -0.05  -0.01   0.03    -0.00   0.00  -0.00
   5   6    -0.01   0.09  -0.13     0.01   0.12   0.06     0.00   0.00   0.00
   6   6     0.02  -0.03   0.12     0.12   0.19   0.07     0.00   0.00   0.00
   7   6     0.00   0.00  -0.01    -0.02  -0.02   0.02    -0.00   0.00  -0.00
   8   6     0.02  -0.01  -0.01     0.10  -0.06  -0.06     0.00  -0.01   0.01
   9   6     0.00  -0.00   0.01    -0.00   0.04   0.03     0.00  -0.01   0.02
  10   6     0.00   0.00  -0.00    -0.01  -0.00   0.01     0.01   0.06  -0.06
  11   6     0.00   0.05  -0.05     0.01   0.02  -0.02     0.00   0.01  -0.01
  12   6    -0.01  -0.07   0.07     0.00  -0.04   0.02    -0.01  -0.14   0.14
  13   6    -0.00   0.01  -0.01    -0.02  -0.00   0.01     0.01   0.21  -0.20
  14   6     0.00   0.07  -0.07     0.00   0.04  -0.03    -0.01  -0.17   0.17
  15   6    -0.00  -0.05   0.05     0.00  -0.03   0.00     0.00   0.03  -0.03
  16   6    -0.01   0.11  -0.26     0.03  -0.18  -0.06     0.00  -0.01   0.00
  17   6    -0.00  -0.18   0.29    -0.04  -0.06  -0.10    -0.00  -0.00  -0.00
  18  17     0.00  -0.00   0.00     0.00  -0.00   0.00    -0.00  -0.00   0.00
  19   1    -0.02   0.00  -0.01    -0.19   0.09  -0.10    -0.00   0.00  -0.00
  20   1    -0.00   0.00  -0.01    -0.13   0.05  -0.11    -0.00   0.00  -0.00
  21   1     0.04  -0.00  -0.01     0.51  -0.04  -0.17     0.01  -0.00  -0.00
  22   1     0.00  -0.00  -0.00    -0.06  -0.00   0.02    -0.00  -0.00   0.00
  23   1    -0.02  -0.00   0.00    -0.14   0.01   0.01    -0.00   0.00   0.00
  24   1    -0.00   0.00  -0.00    -0.14   0.08  -0.03    -0.00   0.00  -0.00
  25   1    -0.02   0.01  -0.01    -0.08   0.10  -0.11    -0.00   0.00  -0.00
  26   1    -0.00  -0.09   0.19    -0.03   0.02   0.03    -0.00   0.00   0.00
  27   1     0.00   0.07  -0.12     0.05   0.02   0.05     0.00   0.00  -0.00
  28   1     0.01   0.00  -0.01     0.07  -0.02   0.00    -0.00   0.01  -0.02
  29   1    -0.01   0.02  -0.02    -0.02  -0.00   0.02    -0.00   0.02  -0.03
  30   1    -0.00  -0.07   0.06     0.01  -0.04   0.02    -0.00  -0.10   0.09
  31   1     0.01   0.12  -0.12     0.01   0.05  -0.05     0.02   0.32  -0.31
  32   1    -0.00  -0.01   0.01    -0.00   0.01  -0.00    -0.03  -0.40   0.39
  33   1    -0.01  -0.11   0.11    -0.00  -0.06   0.06     0.02   0.35  -0.35
  34   1     0.00   0.07  -0.07     0.00   0.01  -0.02    -0.01  -0.13   0.13
  35   1     0.02  -0.23   0.41     0.04  -0.00  -0.09     0.00   0.00  -0.01
  36   1    -0.02   0.29  -0.53    -0.03  -0.06   0.09    -0.00  -0.00   0.00
                     46                     47                     48
                        a                      a                      a 
 Frequencies --   964.3019               989.5996              1009.8895
 Red. masses --     2.1280                10.4484                10.2298
 Frc consts  --     0.0000                 0.0000                 0.0000
 IR Inten    --    18.1810                 0.4438                14.6816
 Raman Activ --     0.0000                 0.0000                 0.0000
 Depolar     --     0.0000                 0.0000                 0.0000
 Atom AN      X      Y      Z        X      Y      Z        X      Y      Z
   1   7    -0.01   0.00  -0.00    -0.00  -0.00   0.00     0.47  -0.00  -0.20
   2   6     0.01  -0.00  -0.00     0.00   0.00   0.00    -0.66   0.10   0.06
   3   6     0.01  -0.00   0.00     0.00  -0.00  -0.00     0.05  -0.01   0.05
   4   6    -0.00  -0.01   0.00    -0.00   0.00   0.00     0.08  -0.04   0.05
   5   6    -0.01  -0.00   0.00     0.01  -0.02  -0.01     0.01   0.08   0.03
   6   6    -0.01  -0.01   0.01     0.01   0.03   0.01    -0.07  -0.13  -0.07
   7   6     0.01  -0.01   0.02    -0.01  -0.01   0.00     0.03   0.00  -0.00
   8   6    -0.02   0.13  -0.17    -0.02  -0.05  -0.03    -0.03   0.02   0.01
   9   6     0.01   0.14  -0.17    -0.13   0.09   0.08    -0.01  -0.01  -0.01
  10   6    -0.00  -0.01   0.02     0.09  -0.01   0.01    -0.00   0.00  -0.00
  11   6    -0.02  -0.03  -0.02    -0.28  -0.35  -0.38    -0.01  -0.01  -0.01
  12   6     0.00  -0.01   0.01     0.02   0.09   0.09     0.00  -0.00  -0.00
  13   6     0.03  -0.00  -0.00     0.35  -0.06  -0.04     0.01  -0.00  -0.00
  14   6    -0.00  -0.00  -0.00    -0.06  -0.09  -0.10     0.00   0.00   0.00
  15   6    -0.00   0.04   0.00    -0.06   0.39   0.39    -0.00   0.01   0.01
  16   6    -0.00   0.02  -0.02     0.00  -0.01  -0.01     0.00   0.13   0.07
  17   6     0.00   0.00   0.00     0.02   0.02   0.01    -0.03  -0.09  -0.06
  18  17     0.00   0.00  -0.00     0.00   0.00   0.00    -0.00   0.00  -0.00
  19   1     0.00   0.00   0.00    -0.00   0.00  -0.00     0.23  -0.07   0.03
  20   1    -0.00   0.00   0.00    -0.00   0.00   0.00     0.23  -0.05   0.03
  21   1    -0.00   0.00   0.00     0.00   0.00  -0.00    -0.08  -0.01   0.04
  22   1    -0.00   0.00  -0.00    -0.00   0.00  -0.00    -0.14   0.01   0.03
  23   1     0.00  -0.00   0.00     0.00  -0.00   0.00    -0.12   0.04   0.02
  24   1     0.00   0.00  -0.00    -0.00   0.00  -0.00     0.11  -0.05   0.05
  25   1     0.01  -0.00   0.00     0.00  -0.00  -0.00     0.04  -0.06   0.06
  26   1    -0.01   0.01  -0.02    -0.01  -0.01  -0.00     0.06   0.03   0.02
  27   1     0.01  -0.02   0.02    -0.03   0.02   0.03     0.02  -0.07  -0.03
  28   1    -0.00  -0.39   0.54     0.02   0.01  -0.03    -0.03   0.00   0.00
  29   1    -0.02  -0.42   0.52    -0.12   0.03  -0.02     0.00  -0.00  -0.00
  30   1    -0.02  -0.02   0.02     0.00  -0.15  -0.15    -0.01   0.00  -0.00
  31   1     0.01   0.03  -0.02     0.12   0.04   0.05     0.00  -0.00   0.00
  32   1     0.01  -0.01   0.02     0.10  -0.01  -0.01     0.00  -0.00  -0.00
  33   1     0.00   0.01  -0.01     0.07  -0.08  -0.07     0.00   0.00  -0.00
  34   1     0.01  -0.03   0.04     0.06   0.12   0.13     0.00   0.00   0.00
  35   1    -0.01  -0.02   0.04    -0.00  -0.00  -0.00     0.06   0.05   0.03
  36   1     0.00   0.00  -0.01     0.00   0.01   0.01     0.03  -0.06  -0.02
                     49                     50                     51
                        a                      a                      a 
 Frequencies --  1023.0508              1050.0217              1091.6925
 Red. masses --     8.3402                 4.3516                 6.6585
 Frc consts  --     0.0000                 0.0000                 0.0000
 IR Inten    --     4.4361                 4.7142                 0.0799
 Raman Activ --     0.0000                 0.0000                 0.0000
 Depolar     --     0.0000                 0.0000                 0.0000
 Atom AN      X      Y      Z        X      Y      Z        X      Y      Z
   1   7     0.11   0.02  -0.08    -0.01  -0.13  -0.08    -0.00  -0.00  -0.00
   2   6    -0.18   0.03   0.02     0.01   0.26   0.08     0.00   0.01  -0.00
   3   6     0.17  -0.02  -0.01    -0.06  -0.35  -0.12    -0.00  -0.01   0.00
   4   6    -0.11   0.00   0.04    -0.01  -0.10  -0.06     0.01   0.00   0.00
   5   6    -0.06  -0.32  -0.18     0.04   0.10   0.05     0.00   0.00   0.00
   6   6     0.09   0.32   0.17     0.06   0.03   0.02     0.00   0.01   0.00
   7   6    -0.08  -0.00   0.01    -0.03  -0.05  -0.03     0.04   0.01  -0.00
   8   6     0.10  -0.05  -0.04    -0.01   0.00  -0.00     0.04   0.01   0.01
   9   6     0.05   0.03   0.02    -0.00  -0.00   0.00     0.03   0.01   0.01
  10   6     0.02  -0.00   0.01     0.00  -0.00  -0.00     0.00   0.00   0.01
  11   6     0.02   0.02   0.02     0.00   0.00   0.00    -0.16   0.00  -0.01
  12   6    -0.01   0.01   0.01    -0.00   0.00   0.00    -0.02  -0.25  -0.26
  13   6    -0.03   0.01   0.00    -0.00  -0.00  -0.00     0.44  -0.08  -0.05
  14   6    -0.02  -0.01  -0.01    -0.00  -0.00  -0.00     0.13   0.23   0.24
  15   6     0.00  -0.03  -0.03     0.00   0.00   0.00    -0.15   0.04   0.03
  16   6    -0.06  -0.30  -0.17    -0.05   0.07   0.03    -0.00  -0.03  -0.01
  17   6     0.11   0.32   0.16     0.03   0.12   0.07    -0.02  -0.01  -0.00
  18  17    -0.00  -0.00  -0.00     0.00  -0.00  -0.00     0.00  -0.00  -0.00
  19   1     0.08  -0.03   0.01     0.20   0.02  -0.01     0.00   0.00  -0.00
  20   1     0.08  -0.02   0.02    -0.16   0.06   0.05    -0.00   0.00   0.00
  21   1    -0.07   0.00   0.02    -0.01   0.06   0.04     0.00   0.00  -0.00
  22   1    -0.04   0.00   0.01    -0.05   0.05  -0.26    -0.00   0.00  -0.01
  23   1    -0.03   0.01   0.00    -0.00  -0.17   0.17    -0.00  -0.00   0.00
  24   1     0.11  -0.04   0.02    -0.43   0.16   0.07    -0.01   0.00   0.00
  25   1     0.09  -0.04   0.03     0.50  -0.02   0.02     0.01   0.00  -0.00
  26   1    -0.21  -0.15  -0.06     0.03   0.03   0.02     0.00   0.00   0.00
  27   1    -0.14   0.22   0.12     0.09  -0.05  -0.03    -0.03   0.02   0.01
  28   1     0.07  -0.01  -0.00     0.02   0.01  -0.00    -0.07  -0.00  -0.02
  29   1    -0.02  -0.00   0.01     0.04   0.01  -0.00    -0.05  -0.00  -0.01
  30   1     0.01  -0.00   0.01     0.00  -0.00  -0.00    -0.26   0.13   0.13
  31   1    -0.01   0.00   0.00    -0.00   0.00   0.00    -0.29  -0.13  -0.15
  32   1    -0.01   0.00   0.00    -0.00  -0.00  -0.00     0.13  -0.02  -0.01
  33   1    -0.01   0.00   0.00     0.00  -0.00  -0.00    -0.19   0.22   0.21
  34   1    -0.01  -0.01  -0.01     0.01   0.00   0.00    -0.32  -0.04  -0.06
  35   1    -0.22  -0.14  -0.07    -0.10  -0.01   0.00    -0.02  -0.01  -0.01
  36   1    -0.11   0.19   0.12    -0.01   0.05   0.02    -0.03   0.02   0.01
                     52                     53                     54
                        a                      a                      a 
 Frequencies --  1106.3050              1121.7874              1140.1253
 Red. masses --     8.4795                 4.0964                 3.0228
 Frc consts  --     0.0000                 0.0000                 0.0000
 IR Inten    --    26.8073                 1.1083                 2.1213
 Raman Activ --     0.0000                 0.0000                 0.0000
 Depolar     --     0.0000                 0.0000                 0.0000
 Atom AN      X      Y      Z        X      Y      Z        X      Y      Z
   1   7    -0.04   0.10  -0.16     0.00   0.01   0.01    -0.01  -0.03  -0.03
   2   6     0.05  -0.27   0.48    -0.00  -0.01  -0.02     0.01   0.05   0.05
   3   6    -0.09   0.25  -0.49     0.02   0.01   0.02    -0.02  -0.06  -0.06
   4   6    -0.02  -0.05   0.07    -0.02  -0.02  -0.01     0.04   0.12   0.06
   5   6    -0.00   0.03   0.00    -0.02   0.01   0.00     0.08  -0.10  -0.05
   6   6     0.02   0.02  -0.00     0.02   0.02   0.01    -0.12  -0.09  -0.04
   7   6    -0.01  -0.01  -0.00    -0.04  -0.04  -0.01     0.08   0.14   0.07
   8   6    -0.00  -0.00  -0.00    -0.03  -0.00  -0.01     0.02   0.04   0.03
   9   6    -0.00  -0.00  -0.00    -0.04  -0.04  -0.02     0.02  -0.00  -0.01
  10   6    -0.00  -0.00  -0.00    -0.09  -0.11  -0.12     0.02  -0.02  -0.01
  11   6     0.00   0.00   0.00     0.21   0.06   0.08     0.07   0.01   0.02
  12   6    -0.00  -0.00  -0.00    -0.06   0.09   0.09    -0.01   0.05   0.05
  13   6     0.01  -0.00  -0.00    -0.01  -0.13  -0.14    -0.04  -0.02  -0.02
  14   6     0.01   0.01   0.01     0.15   0.10   0.12     0.02  -0.01  -0.01
  15   6    -0.01   0.01   0.01    -0.17   0.15   0.15    -0.04   0.01   0.00
  16   6     0.00   0.01  -0.01    -0.01   0.04   0.02     0.08  -0.13  -0.07
  17   6     0.00   0.01  -0.01     0.03   0.03   0.01    -0.14  -0.08  -0.04
  18  17    -0.00   0.00  -0.00     0.00   0.00   0.00    -0.00  -0.00  -0.00
  19   1     0.13  -0.09   0.07    -0.01   0.00  -0.00     0.05   0.00  -0.00
  20   1     0.14  -0.04   0.08     0.00  -0.00  -0.01    -0.03   0.01   0.02
  21   1    -0.27   0.01   0.08     0.01  -0.00  -0.00    -0.01   0.01   0.01
  22   1     0.10  -0.11   0.19    -0.01   0.00   0.00     0.04  -0.01  -0.03
  23   1     0.17  -0.14   0.21     0.00   0.01  -0.01    -0.03  -0.03   0.03
  24   1    -0.03   0.07  -0.12     0.02  -0.01  -0.00    -0.05   0.02   0.02
  25   1     0.04   0.04  -0.10    -0.01  -0.01   0.01     0.05   0.01  -0.02
  26   1     0.01   0.00   0.02    -0.08  -0.02  -0.01     0.42   0.09   0.03
  27   1     0.03  -0.02  -0.00     0.07  -0.04  -0.03    -0.35   0.22   0.12
  28   1     0.01   0.00   0.00     0.22   0.03   0.04    -0.07  -0.01   0.01
  29   1     0.02   0.00  -0.00     0.14   0.01   0.02    -0.18  -0.04  -0.01
  30   1     0.00  -0.00  -0.00     0.33  -0.16  -0.15     0.07  -0.03  -0.03
  31   1    -0.01  -0.00  -0.00    -0.28  -0.02  -0.04    -0.02   0.01   0.01
  32   1     0.00  -0.01  -0.01    -0.08  -0.29  -0.30    -0.03  -0.07  -0.07
  33   1     0.00   0.00  -0.00     0.24  -0.10  -0.08     0.07  -0.04  -0.04
  34   1    -0.01   0.00  -0.00    -0.36  -0.02  -0.04    -0.13  -0.02  -0.03
  35   1    -0.01  -0.01   0.01    -0.00   0.01   0.01     0.37   0.06   0.02
  36   1     0.03  -0.03   0.01     0.06  -0.04  -0.02    -0.37   0.23   0.14
                     55                     56                     57
                        a                      a                      a 
 Frequencies --  1180.7790              1183.3311              1197.5984
 Red. masses --     1.9303                 1.8072                 3.5513
 Frc consts  --     0.0000                 0.0000                 0.0000
 IR Inten    --     0.4054                 0.5531                 1.3779
 Raman Activ --     0.0000                 0.0000                 0.0000
 Depolar     --     0.0000                 0.0000                 0.0000
 Atom AN      X      Y      Z        X      Y      Z        X      Y      Z
   1   7     0.00   0.00   0.00     0.00   0.00   0.00     0.01   0.02   0.01
   2   6    -0.00  -0.00  -0.00    -0.00  -0.00  -0.00    -0.01  -0.03  -0.01
   3   6    -0.02   0.00   0.01    -0.02   0.00   0.01    -0.01   0.01   0.00
   4   6     0.04  -0.01  -0.01     0.03  -0.01  -0.01     0.02  -0.01  -0.01
   5   6     0.02   0.06   0.03     0.03   0.07   0.04    -0.01  -0.07  -0.04
   6   6     0.02   0.01   0.00     0.01   0.01   0.01     0.01  -0.04  -0.02
   7   6     0.12  -0.01  -0.01     0.11  -0.01  -0.01    -0.24  -0.01   0.01
   8   6     0.00   0.05   0.04    -0.01   0.06   0.04     0.07  -0.09  -0.07
   9   6     0.00   0.04   0.04     0.00   0.05   0.04    -0.07   0.10   0.07
  10   6     0.07   0.03   0.04     0.09  -0.04  -0.03     0.26  -0.01   0.02
  11   6     0.10  -0.00   0.00    -0.02   0.03   0.03    -0.02   0.03   0.03
  12   6     0.04   0.06   0.06     0.01   0.06   0.06     0.02   0.06   0.06
  13   6    -0.03  -0.05  -0.05    -0.00   0.03   0.03     0.02  -0.00  -0.00
  14   6    -0.01  -0.02  -0.03     0.02  -0.07  -0.07    -0.02  -0.08  -0.08
  15   6    -0.11  -0.00  -0.01    -0.00  -0.04  -0.04    -0.04  -0.05  -0.06
  16   6    -0.04  -0.02  -0.01    -0.05  -0.02  -0.01     0.03   0.08   0.04
  17   6     0.01  -0.05  -0.03     0.02  -0.06  -0.03     0.02   0.11   0.06
  18  17     0.00   0.00   0.00     0.00   0.00   0.00    -0.00  -0.00   0.00
  19   1    -0.00   0.00  -0.00    -0.00   0.00  -0.00    -0.02  -0.00   0.00
  20   1     0.00  -0.00  -0.00     0.00  -0.00  -0.00     0.02  -0.00  -0.01
  21   1     0.00  -0.00  -0.00     0.00  -0.00  -0.00    -0.00  -0.01  -0.00
  22   1    -0.01   0.00   0.00    -0.01   0.00   0.00    -0.03   0.01   0.01
  23   1     0.01  -0.00   0.00     0.01  -0.00   0.00     0.03   0.00  -0.00
  24   1    -0.02   0.01  -0.00    -0.01   0.00  -0.00    -0.03   0.02  -0.01
  25   1    -0.01   0.01  -0.00    -0.01   0.01  -0.00     0.00  -0.01   0.01
  26   1     0.04   0.03   0.01     0.08   0.04   0.02    -0.25  -0.10  -0.04
  27   1    -0.09   0.08   0.05    -0.11   0.10   0.06     0.24  -0.20  -0.10
  28   1    -0.23  -0.02  -0.02    -0.22  -0.02  -0.02     0.06  -0.02  -0.01
  29   1    -0.18  -0.02  -0.02    -0.23  -0.02  -0.02    -0.09   0.01   0.01
  30   1    -0.14   0.11   0.10    -0.06   0.05   0.04    -0.24   0.16   0.16
  31   1     0.43   0.10   0.13    -0.11  -0.01  -0.01     0.24   0.06   0.08
  32   1    -0.13  -0.42  -0.43     0.08   0.27   0.28    -0.00  -0.02  -0.02
  33   1    -0.14   0.08   0.08     0.38  -0.26  -0.24     0.09  -0.09  -0.09
  34   1    -0.11  -0.02  -0.02    -0.40  -0.09  -0.12    -0.39  -0.09  -0.12
  35   1    -0.30  -0.09  -0.04    -0.33  -0.10  -0.04     0.37   0.13   0.06
  36   1     0.11  -0.10  -0.06     0.16  -0.13  -0.08    -0.13   0.14   0.08
                     58                     59                     60
                        a                      a                      a 
 Frequencies --  1200.0960              1204.6172              1224.4969
 Red. masses --     4.0002                 5.1963                 4.8183
 Frc consts  --     0.0000                 0.0000                 0.0000
 IR Inten    --     9.6217                 2.4010                 0.0377
 Raman Activ --     0.0000                 0.0000                 0.0000
 Depolar     --     0.0000                 0.0000                 0.0000
 Atom AN      X      Y      Z        X      Y      Z        X      Y      Z
   1   7    -0.07  -0.24  -0.14    -0.01   0.02   0.01     0.01   0.00   0.00
   2   6     0.08   0.34   0.18     0.00  -0.01  -0.04    -0.01  -0.01   0.02
   3   6    -0.02  -0.05  -0.06     0.11  -0.02  -0.01    -0.12   0.01   0.02
   4   6    -0.00   0.07   0.05    -0.26   0.04   0.05     0.27  -0.03  -0.04
   5   6    -0.03  -0.03  -0.01     0.05  -0.01  -0.01     0.07  -0.02  -0.01
   6   6     0.02  -0.01  -0.01    -0.03   0.10   0.06    -0.02  -0.10  -0.05
   7   6    -0.04   0.00   0.00    -0.37  -0.02   0.01    -0.08   0.01   0.00
   8   6     0.01  -0.01  -0.01     0.05  -0.10  -0.08    -0.00   0.03   0.02
   9   6    -0.01   0.01   0.01    -0.03   0.07   0.05    -0.02   0.09   0.07
  10   6     0.03   0.00   0.00     0.29  -0.00   0.02     0.34   0.01   0.04
  11   6     0.00   0.00   0.00     0.04  -0.01  -0.01     0.15  -0.06  -0.05
  12   6    -0.00   0.01   0.00    -0.06   0.03   0.03    -0.10   0.06   0.05
  13   6     0.00  -0.00  -0.00    -0.02   0.00   0.00    -0.09   0.02   0.01
  14   6    -0.00  -0.01  -0.01    -0.08  -0.04  -0.05    -0.10  -0.04  -0.05
  15   6     0.00  -0.01  -0.01     0.06  -0.04  -0.04     0.11  -0.04  -0.03
  16   6    -0.02  -0.01  -0.00    -0.06  -0.04  -0.02    -0.04   0.09   0.05
  17   6     0.01  -0.02  -0.02     0.04   0.04   0.02     0.08   0.02   0.01
  18  17     0.00  -0.00  -0.00     0.00   0.00   0.00    -0.00  -0.00  -0.00
  19   1     0.25   0.03  -0.03    -0.02   0.00   0.00    -0.00  -0.00   0.00
  20   1    -0.22   0.06   0.10     0.01  -0.00  -0.01     0.01  -0.00  -0.00
  21   1    -0.01   0.11   0.06     0.01  -0.01  -0.01    -0.00  -0.00   0.00
  22   1     0.40  -0.14  -0.06    -0.03   0.01  -0.00    -0.02   0.01  -0.00
  23   1    -0.39  -0.03   0.04     0.03  -0.00  -0.00     0.01  -0.01   0.01
  24   1     0.28  -0.13   0.20     0.09  -0.04  -0.00    -0.11   0.04  -0.00
  25   1    -0.22   0.16  -0.16     0.13  -0.03   0.03    -0.11   0.04  -0.03
  26   1    -0.09  -0.03  -0.02     0.42   0.12   0.05    -0.24  -0.08  -0.04
  27   1     0.02  -0.02  -0.01    -0.06   0.06   0.04    -0.01  -0.03  -0.01
  28   1     0.02  -0.00   0.00     0.24   0.01   0.01    -0.17  -0.03  -0.01
  29   1    -0.01   0.00   0.00    -0.10  -0.00   0.01    -0.41  -0.04  -0.04
  30   1    -0.01   0.01   0.01     0.02  -0.01  -0.00     0.25  -0.14  -0.14
  31   1     0.01   0.00   0.01    -0.08  -0.00  -0.01    -0.35  -0.04  -0.07
  32   1    -0.00  -0.00  -0.00    -0.01   0.00   0.00    -0.03  -0.00  -0.00
  33   1    -0.00  -0.00  -0.00    -0.18   0.09   0.08    -0.27   0.14   0.13
  34   1    -0.03  -0.01  -0.01    -0.07  -0.03  -0.04     0.02  -0.02  -0.02
  35   1     0.04   0.01   0.01     0.13   0.04   0.02    -0.08   0.01   0.01
  36   1     0.09  -0.08  -0.04     0.37  -0.27  -0.16    -0.04   0.06   0.03
                     61                     62                     63
                        a                      a                      a 
 Frequencies --  1250.2181              1253.0653              1275.4567
 Red. masses --     2.4340                 4.9988                 5.2319
 Frc consts  --     0.0000                 0.0000                 0.0000
 IR Inten    --     8.2468                 2.5726                 0.0773
 Raman Activ --     0.0000                 0.0000                 0.0000
 Depolar     --     0.0000                 0.0000                 0.0000
 Atom AN      X      Y      Z        X      Y      Z        X      Y      Z
   1   7     0.01   0.09   0.06     0.02  -0.01  -0.02    -0.01   0.00   0.01
   2   6     0.02   0.13   0.04    -0.00  -0.02   0.04     0.00   0.03   0.00
   3   6    -0.06  -0.22  -0.12    -0.12   0.01   0.06    -0.02  -0.01  -0.01
   4   6     0.02   0.12   0.07     0.39  -0.05  -0.07     0.01  -0.06  -0.03
   5   6    -0.00  -0.01  -0.01     0.15  -0.00  -0.01    -0.05  -0.04  -0.02
   6   6     0.04  -0.04  -0.02    -0.13  -0.03  -0.01    -0.05   0.03   0.02
   7   6     0.03  -0.02  -0.01    -0.08  -0.14  -0.07    -0.00   0.11   0.06
   8   6    -0.01   0.03   0.02    -0.15  -0.03  -0.03     0.02  -0.17  -0.13
   9   6     0.02  -0.03  -0.02    -0.11  -0.06  -0.05    -0.21   0.19   0.15
  10   6    -0.04   0.00  -0.00     0.12  -0.06  -0.07     0.21  -0.20  -0.19
  11   6    -0.01   0.01   0.00    -0.04   0.04   0.04     0.17  -0.06  -0.05
  12   6     0.01  -0.01  -0.01     0.00   0.02   0.02     0.04   0.10   0.11
  13   6     0.01   0.00   0.00     0.02  -0.01  -0.01    -0.01   0.06   0.06
  14   6     0.01   0.01   0.01    -0.03  -0.01  -0.01    -0.10   0.02   0.02
  15   6    -0.01   0.00   0.00     0.04   0.01   0.01    -0.03   0.01   0.01
  16   6    -0.04  -0.03  -0.01    -0.06   0.14   0.08     0.04   0.01   0.01
  17   6    -0.03  -0.02  -0.01     0.10   0.02   0.01     0.06  -0.05  -0.03
  18  17     0.00   0.00  -0.00    -0.00  -0.00  -0.00     0.00   0.00  -0.00
  19   1    -0.06   0.01   0.01     0.01  -0.01   0.00     0.00   0.01  -0.00
  20   1     0.07  -0.01  -0.04    -0.00   0.00   0.01     0.01  -0.00  -0.01
  21   1     0.02  -0.02  -0.02    -0.02  -0.00   0.01     0.01   0.00  -0.00
  22   1    -0.36   0.20  -0.25    -0.01  -0.00   0.01    -0.03   0.02  -0.03
  23   1     0.41  -0.23   0.25    -0.06   0.02  -0.02     0.06  -0.04   0.04
  24   1     0.24  -0.15   0.29    -0.19   0.08  -0.05     0.08  -0.04   0.05
  25   1    -0.18   0.20  -0.22    -0.18   0.05  -0.04    -0.07   0.03  -0.04
  26   1    -0.14  -0.05  -0.02    -0.06  -0.04  -0.02     0.20   0.05   0.02
  27   1    -0.09   0.07   0.04    -0.38   0.26   0.14     0.09  -0.08  -0.04
  28   1     0.02   0.01   0.01     0.43   0.07   0.05    -0.16  -0.07  -0.06
  29   1    -0.01  -0.01  -0.01     0.24   0.02   0.04     0.26   0.10   0.09
  30   1    -0.01   0.00   0.00    -0.15   0.10   0.10    -0.26   0.18   0.18
  31   1     0.02   0.00   0.00     0.06   0.02   0.02    -0.34  -0.04  -0.06
  32   1     0.00   0.00   0.00     0.01   0.02   0.02    -0.04  -0.11  -0.11
  33   1     0.02  -0.01  -0.01    -0.02   0.01   0.00     0.09  -0.07  -0.07
  34   1     0.01   0.00   0.00    -0.02  -0.00  -0.01     0.23   0.05   0.06
  35   1     0.11   0.03   0.01    -0.08   0.02   0.02    -0.16  -0.05  -0.02
  36   1     0.09  -0.08  -0.05     0.04   0.00  -0.00    -0.13   0.10   0.06
                     64                     65                     66
                        a                      a                      a 
 Frequencies --  1280.4533              1291.8412              1299.1781
 Red. masses --     5.3833                 5.7404                 6.5217
 Frc consts  --     0.0000                 0.0000                 0.0000
 IR Inten    --     0.9401                 4.5937                 4.1454
 Raman Activ --     0.0000                 0.0000                 0.0000
 Depolar     --     0.0000                 0.0000                 0.0000
 Atom AN      X      Y      Z        X      Y      Z        X      Y      Z
   1   7     0.01   0.01  -0.00    -0.06  -0.03   0.08    -0.08  -0.05   0.12
   2   6     0.01   0.02   0.05    -0.08   0.09  -0.14    -0.15   0.11  -0.20
   3   6    -0.06  -0.02   0.03    -0.11   0.08  -0.08    -0.25   0.11  -0.06
   4   6     0.18  -0.11  -0.09    -0.09  -0.10   0.00     0.25  -0.04   0.02
   5   6    -0.02  -0.14  -0.07    -0.06   0.08   0.04     0.11  -0.05  -0.03
   6   6    -0.17   0.03   0.02     0.04   0.03   0.01    -0.10  -0.04  -0.02
   7   6    -0.24   0.24   0.14     0.28  -0.04  -0.02    -0.27   0.02   0.02
   8   6     0.14  -0.10  -0.07    -0.24   0.03   0.02     0.18  -0.02  -0.01
   9   6     0.09   0.00  -0.00    -0.21  -0.03  -0.03     0.17   0.00   0.00
  10   6    -0.10   0.12   0.11     0.22   0.00   0.01    -0.17   0.02   0.01
  11   6    -0.11   0.04   0.04    -0.03   0.03   0.03     0.00  -0.02  -0.02
  12   6    -0.03  -0.06  -0.06    -0.04   0.03   0.03     0.02  -0.04  -0.04
  13   6     0.01  -0.05  -0.05    -0.05  -0.07  -0.07     0.04   0.05   0.05
  14   6     0.06  -0.01  -0.01    -0.04  -0.06  -0.06     0.03   0.04   0.04
  15   6     0.02  -0.00   0.00     0.17   0.02   0.03    -0.13  -0.02  -0.03
  16   6    -0.03   0.06   0.03     0.14   0.03   0.01    -0.12   0.05   0.03
  17   6     0.18  -0.05  -0.03    -0.06  -0.07  -0.04     0.10   0.04   0.02
  18  17    -0.00   0.00  -0.00     0.00   0.00   0.00     0.00   0.00   0.00
  19   1    -0.00  -0.00   0.00    -0.00   0.04  -0.01     0.01   0.06  -0.02
  20   1     0.01   0.00  -0.00     0.01  -0.03  -0.03     0.02  -0.04  -0.04
  21   1    -0.01  -0.00   0.00     0.11   0.01  -0.03     0.16   0.01  -0.04
  22   1    -0.09   0.05  -0.06     0.20  -0.08   0.08     0.32  -0.14   0.16
  23   1     0.03  -0.03   0.04     0.22  -0.10   0.09     0.29  -0.13   0.11
  24   1     0.01  -0.01   0.03     0.27  -0.12   0.13     0.14  -0.06   0.10
  25   1    -0.22   0.10  -0.09     0.18  -0.12   0.10     0.21  -0.15   0.14
  26   1     0.35   0.06   0.02     0.02   0.03   0.02    -0.02  -0.04  -0.01
  27   1     0.18  -0.17  -0.10     0.04  -0.01  -0.00    -0.08   0.03   0.02
  28   1     0.06  -0.02  -0.01     0.19   0.05   0.04    -0.05  -0.02  -0.01
  29   1     0.10   0.01   0.01     0.11   0.02   0.02    -0.09  -0.02  -0.02
  30   1     0.16  -0.12  -0.11     0.07  -0.04  -0.03    -0.04   0.02   0.02
  31   1     0.21   0.03   0.04     0.07   0.03   0.03    -0.02  -0.01  -0.02
  32   1     0.03   0.06   0.07     0.01   0.08   0.08    -0.00  -0.05  -0.05
  33   1    -0.06   0.04   0.04    -0.19   0.10   0.09     0.13  -0.07  -0.06
  34   1    -0.18  -0.03  -0.05    -0.22  -0.05  -0.06     0.14   0.03   0.04
  35   1    -0.33  -0.07  -0.03    -0.16  -0.05  -0.02     0.02   0.03   0.02
  36   1    -0.13   0.13   0.08    -0.19   0.11   0.07     0.07  -0.02  -0.01
                     67                     68                     69
                        a                      a                      a 
 Frequencies --  1321.6852              1345.8676              1347.0471
 Red. masses --     4.4334                10.4380                 7.1502
[...]
   3   6     0.00   0.00  -0.00    -0.03  -0.17  -0.12     0.00   0.14   0.13
   4   6    -0.00   0.00   0.00    -0.00  -0.01  -0.00    -0.00   0.01   0.00
   5   6     0.00  -0.00  -0.00    -0.00   0.00   0.00     0.00  -0.00  -0.00
   6   6     0.00   0.00   0.00     0.00  -0.00  -0.00    -0.00   0.00   0.00
   7   6    -0.00  -0.00  -0.00    -0.00   0.00   0.00     0.00  -0.00  -0.00
   8   6     0.00  -0.00  -0.00     0.00   0.00   0.00    -0.00  -0.00  -0.00
   9   6    -0.00  -0.00  -0.00    -0.00   0.00   0.00     0.00   0.00   0.00
  10   6    -0.00   0.00  -0.00     0.00   0.00   0.00    -0.00  -0.00  -0.00
  11   6     0.00   0.00   0.00     0.00   0.00   0.00    -0.00   0.00   0.00
  12   6     0.00  -0.00  -0.00    -0.00   0.00   0.00    -0.00   0.00   0.00
  13   6     0.00  -0.00  -0.00     0.00   0.00   0.00    -0.00   0.00   0.00
  14   6     0.00   0.00   0.00     0.00   0.00   0.00    -0.00  -0.00  -0.00
  15   6    -0.00   0.00   0.00    -0.00   0.00   0.00    -0.00   0.00   0.00
  16   6     0.00  -0.00  -0.00    -0.00  -0.00  -0.00     0.00   0.00   0.00
  17   6    -0.00  -0.00   0.00     0.00   0.00   0.00    -0.00  -0.00  -0.00
  18  17     0.00   0.01  -0.00    -0.00  -0.00   0.00    -0.00  -0.00   0.00
  19   1    -0.01   0.00   0.03    -0.00   0.01   0.00     0.00   0.00   0.00
  20   1     0.45   0.83  -0.11    -0.04  -0.08   0.01    -0.05  -0.09   0.01
  21   1    -0.01  -0.00  -0.02     0.00   0.00   0.00     0.00  -0.00   0.01
  22   1    -0.06  -0.13   0.02    -0.24  -0.43   0.07    -0.29  -0.53   0.07
  23   1     0.01  -0.01  -0.02     0.07  -0.21  -0.34     0.06  -0.16  -0.28
  24   1    -0.01  -0.01   0.00     0.19   0.33  -0.07    -0.10  -0.17   0.04
  25   1    -0.00   0.00   0.00    -0.09   0.31   0.50     0.09  -0.33  -0.52
  26   1    -0.00   0.00   0.00     0.00  -0.00  -0.00    -0.01   0.01   0.01
  27   1    -0.00  -0.00  -0.00     0.00   0.00   0.00    -0.00  -0.00  -0.00
  28   1    -0.00   0.00   0.00     0.00   0.00  -0.00     0.00   0.00   0.00
  29   1    -0.00   0.00   0.00     0.00  -0.00  -0.00    -0.00  -0.00  -0.00
  30   1     0.00   0.00   0.00    -0.00   0.00  -0.00    -0.00  -0.00  -0.00
  31   1    -0.00   0.00   0.00     0.00   0.00  -0.00     0.00  -0.00  -0.00
  32   1    -0.00   0.00   0.00    -0.00   0.00   0.00     0.00  -0.00  -0.00
  33   1    -0.00  -0.00  -0.00    -0.00  -0.00  -0.00     0.00   0.00   0.00
  34   1     0.00  -0.00  -0.00     0.00  -0.00  -0.00    -0.00   0.00  -0.00
  35   1    -0.00   0.00   0.00     0.00   0.00   0.00     0.00  -0.00  -0.00
  36   1     0.00   0.00   0.00    -0.00  -0.00  -0.00     0.00   0.00   0.00
                     88                     89                     90
                        a                      a                      a 
 Frequencies --  2975.7423              2985.6415              3094.8485
 Red. masses --     1.5627                 1.5501                 1.7479
 Frc consts  --     0.0000                 0.0000                 0.0000
 IR Inten    --     1.1308                11.0930                 0.8665
 Raman Activ --     0.0000                 0.0000                 0.0000
 Depolar     --     0.0000                 0.0000                 0.0000
 Atom AN      X      Y      Z        X      Y      Z        X      Y      Z
   1   7    -0.00  -0.01   0.00     0.01   0.02   0.00     0.00   0.00  -0.00
   2   6    -0.06   0.03   0.13     0.08   0.03  -0.14    -0.00   0.00   0.00
   3   6     0.10   0.12  -0.08     0.08   0.08  -0.10     0.00   0.00   0.00
   4   6     0.01   0.00  -0.00     0.00   0.00  -0.00     0.00  -0.00  -0.00
   5   6    -0.00   0.00   0.00    -0.00  -0.00   0.00     0.00  -0.00  -0.00
   6   6    -0.00  -0.00  -0.00     0.00  -0.00   0.00    -0.00  -0.00  -0.00
   7   6    -0.00  -0.00  -0.00    -0.00  -0.00  -0.00    -0.00   0.00   0.00
   8   6     0.00   0.00   0.00     0.00   0.00   0.00     0.00  -0.00  -0.00
   9   6    -0.00   0.00   0.00    -0.00   0.00  -0.00     0.00   0.00   0.00
  10   6     0.00  -0.00  -0.00     0.00  -0.00   0.00     0.00  -0.00  -0.00
  11   6     0.00   0.00   0.00    -0.00  -0.00  -0.00     0.01   0.01   0.01
  12   6    -0.00   0.00   0.00     0.00  -0.00  -0.00     0.04  -0.09  -0.09
  13   6     0.00   0.00   0.00     0.00  -0.00  -0.00    -0.16   0.03   0.02
  14   6     0.00   0.00  -0.00     0.00   0.00   0.00     0.10   0.08   0.08
  15   6     0.00   0.00   0.00    -0.00   0.00  -0.00     0.02  -0.03  -0.03
  16   6     0.00   0.00   0.00     0.00  -0.00   0.00    -0.00   0.00   0.00
  17   6    -0.00  -0.00  -0.00    -0.00   0.00   0.00     0.00   0.00   0.00
  18  17    -0.00   0.00  -0.00    -0.00  -0.00   0.00     0.00   0.00   0.00
  19   1    -0.00   0.01   0.01     0.00  -0.01  -0.02    -0.00  -0.00  -0.00
  20   1     0.01   0.02  -0.00    -0.03  -0.06   0.01    -0.00  -0.00   0.00
  21   1    -0.00   0.00  -0.00     0.00   0.00  -0.00     0.00  -0.00   0.00
  22   1     0.13   0.25  -0.01    -0.22  -0.42   0.03     0.00   0.00  -0.00
  23   1     0.09  -0.32  -0.48    -0.08   0.32   0.46     0.00  -0.00  -0.00
  24   1    -0.32  -0.59   0.07    -0.25  -0.47   0.05    -0.00  -0.00   0.00
  25   1    -0.03   0.17   0.22    -0.04   0.20   0.28    -0.00  -0.00  -0.00
  26   1     0.00  -0.00  -0.00     0.00  -0.00  -0.00    -0.00   0.00   0.00
  27   1     0.00   0.00   0.00     0.00   0.00  -0.00    -0.00   0.00   0.00
  28   1     0.00  -0.00  -0.00     0.00  -0.00  -0.00    -0.00   0.01   0.00
  29   1     0.00  -0.00  -0.00     0.00   0.00  -0.00     0.00  -0.01  -0.01
  30   1    -0.00  -0.00  -0.00     0.00   0.00   0.00    -0.05  -0.03  -0.04
  31   1     0.00  -0.00  -0.00    -0.00   0.00   0.00    -0.15   0.32   0.32
  32   1    -0.00   0.00   0.00    -0.00   0.00  -0.00     0.59  -0.11  -0.07
  33   1    -0.00   0.00  -0.00    -0.00  -0.00  -0.00    -0.37  -0.28  -0.30
  34   1    -0.00   0.00  -0.00     0.00   0.00  -0.00    -0.06   0.12   0.12
  35   1     0.00  -0.00  -0.00     0.00  -0.00  -0.00     0.00  -0.00  -0.00
  36   1     0.00   0.00   0.00     0.00   0.00   0.00    -0.00  -0.00  -0.00
                     91                     92                     93
                        a                      a                      a 
 Frequencies --  3099.4373              3105.1130              3109.1961
 Red. masses --     1.7997                 1.7985                 1.8510
 Frc consts  --     0.0000                 0.0000                 0.0000
 IR Inten    --    20.6744                40.2485                73.6979
 Raman Activ --     0.0000                 0.0000                 0.0000
 Depolar     --     0.0000                 0.0000                 0.0000
 Atom AN      X      Y      Z        X      Y      Z        X      Y      Z
   1   7     0.00  -0.00  -0.00    -0.00  -0.00   0.00     0.00   0.00   0.00
   2   6    -0.00  -0.00  -0.00     0.00   0.00   0.00    -0.00   0.00   0.00
   3   6     0.00   0.00   0.00     0.00   0.00   0.00    -0.00  -0.00   0.00
   4   6    -0.00   0.00   0.00    -0.01   0.01   0.00     0.00   0.00   0.00
   5   6    -0.00   0.00   0.00    -0.08   0.22   0.12    -0.00   0.00   0.00
   6   6    -0.00  -0.00  -0.00    -0.04  -0.04  -0.02    -0.00  -0.00  -0.00
   7   6     0.00   0.00   0.00    -0.00  -0.00  -0.00    -0.00  -0.00  -0.00
   8   6    -0.00   0.01   0.01    -0.00   0.00   0.00     0.00  -0.01  -0.01
   9   6    -0.00   0.01   0.01    -0.00   0.01   0.01    -0.00   0.02   0.01
  10   6     0.00  -0.00  -0.00     0.00   0.00   0.00     0.01  -0.00  -0.00
  11   6    -0.03  -0.02  -0.02    -0.00  -0.00  -0.00     0.02   0.02   0.02
  12   6    -0.06   0.12   0.12    -0.00   0.00   0.00     0.04  -0.09  -0.08
  13   6     0.03  -0.00  -0.00    -0.01   0.00   0.00     0.17  -0.03  -0.02
  14   6     0.11   0.08   0.09    -0.01  -0.00  -0.00     0.01   0.01   0.01
  15   6     0.03  -0.06  -0.06     0.00  -0.00  -0.00     0.05  -0.11  -0.11
  16   6     0.00  -0.00  -0.00     0.01  -0.01  -0.01    -0.00   0.00   0.00
  17   6     0.00   0.00   0.00     0.02   0.01   0.01     0.00   0.00   0.00
  18  17     0.00  -0.00  -0.00     0.00  -0.00  -0.00    -0.00   0.00   0.00
  19   1    -0.00   0.00   0.00     0.00  -0.00  -0.00     0.00  -0.00  -0.00
  20   1    -0.00   0.00   0.00     0.00   0.00  -0.00    -0.00  -0.00  -0.00
  21   1     0.00  -0.00   0.00     0.00   0.00   0.00    -0.00   0.00  -0.00
  22   1     0.00   0.00   0.00    -0.00  -0.01   0.00    -0.00  -0.00   0.00
  23   1    -0.00   0.00   0.00    -0.00  -0.00  -0.00     0.00  -0.00  -0.00
  24   1    -0.00  -0.00   0.00    -0.00  -0.00   0.00     0.00   0.00  -0.00
  25   1     0.00  -0.00  -0.00     0.00  -0.01  -0.01     0.00  -0.00  -0.00
  26   1     0.00  -0.01  -0.00     0.28  -0.77  -0.42     0.00  -0.00  -0.00
  27   1     0.00   0.00   0.00     0.18   0.18   0.09     0.01   0.01   0.00
  28   1     0.01  -0.02  -0.02     0.00  -0.01  -0.00    -0.01   0.03   0.02
  29   1     0.00  -0.02  -0.02     0.01  -0.05  -0.04     0.02  -0.06  -0.05
  30   1     0.10   0.08   0.09     0.00   0.00   0.00    -0.10  -0.08  -0.09
  31   1     0.20  -0.44  -0.44     0.00  -0.00  -0.00    -0.13   0.29   0.29
  32   1    -0.10   0.02   0.01     0.03  -0.00  -0.00    -0.59   0.11   0.07
  33   1    -0.39  -0.29  -0.32     0.02   0.01   0.02    -0.05  -0.04  -0.04
  34   1    -0.11   0.23   0.23    -0.01   0.01   0.01    -0.18   0.39   0.39
  35   1    -0.00   0.01   0.00    -0.02   0.05   0.03     0.00  -0.01  -0.01
  36   1    -0.00  -0.00  -0.00    -0.05  -0.05  -0.03    -0.01  -0.01  -0.00
                     94                     95                     96
                        a                      a                      a 
 Frequencies --  3110.8106              3115.7134              3121.9804
 Red. masses --     1.7859                 1.8983                 1.8240
 Frc consts  --     0.0000                 0.0000                 0.0000
 IR Inten    --    12.3906                76.8684                 8.2148
 Raman Activ --     0.0000                 0.0000                 0.0000
 Depolar     --     0.0000                 0.0000                 0.0000
 Atom AN      X      Y      Z        X      Y      Z        X      Y      Z
   1   7    -0.00  -0.00   0.00     0.00   0.00  -0.00     0.00   0.00  -0.00
   2   6     0.00  -0.00  -0.00    -0.00   0.00   0.00     0.00   0.00  -0.00
   3   6    -0.00  -0.00   0.00     0.00   0.00   0.00     0.00  -0.00   0.00
   4   6    -0.01  -0.00  -0.00    -0.00   0.00   0.00    -0.01   0.00   0.00
   5   6    -0.01   0.02   0.01    -0.00   0.01   0.01    -0.01   0.03   0.02
   6   6     0.00  -0.00  -0.00     0.00   0.00   0.00     0.05   0.05   0.02
   7   6    -0.01   0.00   0.00    -0.00  -0.00  -0.00     0.01   0.00   0.00
   8   6     0.00  -0.02  -0.02     0.00  -0.01  -0.01    -0.02   0.11   0.08
   9   6     0.00  -0.00  -0.00     0.01  -0.03  -0.02     0.02  -0.11  -0.09
  10   6     0.00  -0.00  -0.00    -0.00   0.00   0.00    -0.00  -0.00  -0.00
  11   6     0.00   0.00   0.00     0.03   0.02   0.02    -0.05  -0.04  -0.04
  12   6    -0.00   0.00   0.00     0.01  -0.03  -0.03     0.01  -0.02  -0.02
  13   6    -0.00   0.00   0.00     0.12  -0.02  -0.02     0.01  -0.00  -0.00
  14   6     0.00  -0.00  -0.00     0.10   0.08   0.09    -0.00  -0.00  -0.00
  15   6     0.00  -0.00  -0.00    -0.06   0.13   0.12     0.01  -0.01  -0.01
  16   6    -0.07   0.18   0.10    -0.00   0.00   0.00     0.02  -0.06  -0.03
  17   6    -0.10  -0.10  -0.05     0.01   0.01   0.00    -0.08  -0.08  -0.04
  18  17    -0.00  -0.00   0.00     0.00  -0.00  -0.00    -0.00   0.00   0.00
  19   1     0.00   0.00   0.00     0.00  -0.00  -0.00     0.00  -0.00  -0.00
  20   1     0.00   0.00  -0.00    -0.00  -0.00   0.00    -0.00  -0.00   0.00
  21   1    -0.00   0.00  -0.00     0.00  -0.00   0.00     0.00  -0.00   0.00
  22   1    -0.00  -0.00   0.00     0.00  -0.00   0.00    -0.00  -0.00   0.00
  23   1    -0.00   0.00   0.00    -0.00  -0.00  -0.00     0.00  -0.00   0.00
  24   1     0.00   0.00  -0.00    -0.00  -0.00   0.00     0.00   0.00  -0.00
  25   1    -0.00   0.00   0.00     0.00  -0.00  -0.00     0.00  -0.00  -0.00
  26   1     0.03  -0.08  -0.04     0.02  -0.05  -0.02     0.04  -0.10  -0.05
  27   1     0.00   0.00   0.00    -0.01  -0.01  -0.01    -0.17  -0.18  -0.08
  28   1    -0.02   0.07   0.05    -0.01   0.03   0.02     0.11  -0.41  -0.30
  29   1    -0.00   0.00   0.00    -0.03   0.11   0.08    -0.11   0.40   0.32
  30   1    -0.01  -0.01  -0.01    -0.10  -0.07  -0.08     0.18   0.14   0.16
  31   1     0.00  -0.01  -0.01    -0.05   0.10   0.10    -0.03   0.07   0.07
  32   1     0.01  -0.00  -0.00    -0.40   0.07   0.05    -0.05   0.01   0.01
  33   1    -0.00  -0.00  -0.00    -0.34  -0.26  -0.29     0.00   0.00   0.00
  34   1    -0.00   0.00   0.00     0.20  -0.43  -0.43    -0.02   0.05   0.05
  35   1     0.24  -0.66  -0.37     0.01  -0.02  -0.01    -0.07   0.18   0.10
  36   1     0.36   0.35   0.18    -0.02  -0.02  -0.01     0.27   0.26   0.14
                     97                     98                     99
                        a                      a                      a 
 Frequencies --  3122.6770              3126.6138              3131.1099
 Red. masses --     1.8631                 1.8606                 1.8201
 Frc consts  --     0.0000                 0.0000                 0.0000
 IR Inten    --    19.3667                 5.1194                 1.8491
 Raman Activ --     0.0000                 0.0000                 0.0000
 Depolar     --     0.0000                 0.0000                 0.0000
 Atom AN      X      Y      Z        X      Y      Z        X      Y      Z
   1   7     0.00   0.00   0.00    -0.00  -0.00  -0.00    -0.00  -0.00  -0.00
   2   6    -0.00  -0.00  -0.00     0.00  -0.00  -0.00     0.00  -0.00  -0.00
   3   6    -0.00  -0.00  -0.00    -0.00  -0.00  -0.00    -0.00  -0.00  -0.00
   4   6    -0.01   0.00   0.00     0.00   0.00  -0.00     0.00   0.00   0.00
   5   6     0.01  -0.02  -0.01     0.01  -0.04  -0.02     0.01  -0.04  -0.02
   6   6    -0.05  -0.05  -0.02    -0.10  -0.10  -0.05    -0.12  -0.12  -0.06
   7   6     0.00  -0.00  -0.00    -0.01   0.00   0.00    -0.01   0.00   0.00
   8   6     0.00  -0.03  -0.02    -0.02   0.06   0.05    -0.01   0.07   0.05
   9   6    -0.02   0.08   0.06    -0.02   0.05   0.04     0.02  -0.08  -0.06
  10   6     0.00   0.00   0.00    -0.01   0.00   0.00     0.00  -0.00  -0.00
  11   6     0.02   0.02   0.02    -0.12  -0.09  -0.11     0.09   0.07   0.08
  12   6    -0.00   0.00   0.00     0.02  -0.04  -0.04    -0.01   0.03   0.03
  13   6     0.00  -0.00  -0.00     0.03  -0.00  -0.00    -0.02   0.00   0.00
  14   6     0.01   0.01   0.01     0.01   0.01   0.01    -0.01  -0.01  -0.01
  15   6    -0.01   0.01   0.01    -0.01   0.02   0.02     0.00  -0.01  -0.01
  16   6     0.04  -0.12  -0.06    -0.01   0.03   0.02    -0.00   0.01   0.01
  17   6    -0.13  -0.13  -0.07     0.02   0.02   0.01     0.01   0.01   0.00
  18  17    -0.00   0.00  -0.00    -0.00  -0.00  -0.00    -0.00  -0.00  -0.00
  19   1    -0.00  -0.00  -0.00    -0.00   0.00   0.00    -0.00   0.00   0.00
  20   1    -0.00  -0.00   0.00     0.00   0.00  -0.00     0.00   0.00  -0.00
  21   1     0.00  -0.00   0.00    -0.00   0.00  -0.00    -0.00   0.00  -0.00
  22   1     0.00   0.00  -0.00    -0.00   0.00  -0.00    -0.00   0.00  -0.00
  23   1     0.00   0.00   0.00    -0.00   0.00   0.00    -0.00   0.00   0.00
  24   1     0.00   0.00  -0.00     0.00   0.00  -0.00     0.00   0.00  -0.00
  25   1    -0.00   0.00   0.00    -0.00   0.00   0.00    -0.00   0.00   0.00
  26   1    -0.02   0.06   0.03    -0.05   0.13   0.07    -0.05   0.13   0.07
  27   1     0.17   0.18   0.09     0.34   0.35   0.17     0.42   0.42   0.20
  28   1    -0.03   0.12   0.09     0.06  -0.21  -0.16     0.07  -0.25  -0.19
  29   1     0.08  -0.27  -0.21     0.05  -0.18  -0.14    -0.08   0.28   0.22
  30   1    -0.08  -0.06  -0.06     0.43   0.32   0.37    -0.33  -0.25  -0.28
  31   1     0.01  -0.01  -0.01    -0.06   0.12   0.12     0.04  -0.08  -0.08
  32   1    -0.01   0.00   0.00    -0.09   0.02   0.01     0.05  -0.01  -0.01
  33   1    -0.02  -0.02  -0.02    -0.03  -0.02  -0.03     0.02   0.02   0.02
  34   1     0.02  -0.05  -0.05     0.03  -0.06  -0.06    -0.02   0.04   0.04
  35   1    -0.14   0.39   0.22     0.04  -0.10  -0.06     0.02  -0.05  -0.03
  36   1     0.45   0.45   0.23    -0.06  -0.06  -0.03    -0.02  -0.02  -0.01
                    100                    101                    102
                        a                      a                      a 
 Frequencies --  3139.4537              3234.7015              3246.2231
 Red. masses --     1.8188                 1.8907                 1.6459
 Frc consts  --     0.0000                 0.0000                 0.0000
 IR Inten    --    92.4689                44.0523                37.0486
 Raman Activ --     0.0000                 0.0000                 0.0000
 Depolar     --     0.0000                 0.0000                 0.0000
 Atom AN      X      Y      Z        X      Y      Z        X      Y      Z
   1   7    -0.00  -0.00   0.00    -0.08   0.07  -0.24     0.06  -0.15  -0.15
   2   6     0.00   0.00  -0.00    -0.00   0.00  -0.00     0.01  -0.00  -0.01
   3   6     0.00   0.00   0.00     0.00  -0.00   0.00    -0.00   0.00   0.00
   4   6    -0.00  -0.00  -0.00     0.00   0.00  -0.00    -0.00   0.00  -0.00
   5   6    -0.00   0.01   0.01    -0.00   0.00  -0.00    -0.00   0.00   0.00
   6   6     0.05   0.05   0.02    -0.00  -0.00  -0.00     0.00   0.00   0.00
   7   6     0.00   0.01   0.00    -0.00   0.00  -0.00     0.00  -0.00  -0.00
   8   6    -0.04   0.15   0.11    -0.00   0.00   0.00     0.00  -0.00  -0.00
   9   6    -0.03   0.12   0.10    -0.00   0.00  -0.00    -0.00   0.00   0.00
  10   6     0.00   0.00   0.00    -0.00  -0.00   0.00     0.00   0.00   0.00
  11   6     0.05   0.04   0.05     0.00   0.00   0.00    -0.00  -0.00  -0.00
  12   6    -0.00   0.01   0.01    -0.00   0.00   0.00     0.00  -0.00  -0.00
  13   6    -0.00  -0.00  -0.00    -0.00   0.00  -0.00     0.00  -0.00  -0.00
  14   6     0.00   0.00   0.00    -0.00  -0.00  -0.00     0.00   0.00   0.00
  15   6    -0.01   0.01   0.01     0.00  -0.00  -0.00    -0.00   0.00   0.00
  16   6    -0.01   0.02   0.01    -0.00   0.00   0.00     0.00  -0.00  -0.00
  17   6     0.01   0.01   0.00     0.00   0.00   0.00    -0.00  -0.00  -0.00
  18  17     0.00  -0.00  -0.00    -0.00  -0.00   0.00     0.00   0.00   0.00
  19   1     0.00   0.00   0.00    -0.04   0.13   0.15    -0.16   0.52   0.77
  20   1     0.00   0.00  -0.00     0.01   0.03  -0.02    -0.02  -0.05  -0.01
  21   1    -0.00   0.00  -0.00     0.36  -0.44   0.76    -0.08   0.08  -0.19
  22   1     0.00  -0.00   0.00     0.00   0.00   0.00    -0.01  -0.01   0.00
  23   1    -0.00   0.00  -0.00    -0.00   0.00   0.00    -0.00   0.01   0.02
  24   1    -0.00  -0.00   0.00    -0.00  -0.00   0.00    -0.00  -0.00  -0.00
  25   1     0.00  -0.00  -0.00     0.00   0.00   0.00     0.00  -0.00  -0.00
  26   1     0.01  -0.03  -0.02    -0.00   0.00  -0.00     0.00  -0.00  -0.00
  27   1    -0.17  -0.17  -0.08     0.00   0.00   0.00    -0.00  -0.00  -0.00
  28   1     0.14  -0.53  -0.39     0.00  -0.00  -0.00    -0.00   0.00   0.00
  29   1     0.12  -0.43  -0.34    -0.00   0.00  -0.00     0.00  -0.00  -0.00
  30   1    -0.19  -0.15  -0.16    -0.00  -0.00  -0.00     0.00   0.00   0.00
  31   1     0.01  -0.03  -0.03     0.00  -0.00   0.00    -0.00   0.00   0.00
  32   1     0.00  -0.00  -0.00     0.00  -0.00   0.00    -0.00   0.00   0.00
  33   1    -0.01  -0.01  -0.01     0.00   0.00   0.00    -0.00  -0.00  -0.00
  34   1     0.02  -0.05  -0.05    -0.00   0.00   0.00     0.00  -0.00  -0.00
  35   1     0.03  -0.08  -0.04     0.00  -0.00  -0.00    -0.00   0.00   0.00
  36   1    -0.02  -0.02  -0.01    -0.00  -0.00  -0.00     0.00   0.00   0.00
