      -----------------------------------------------------------      
     |                   =====================                   |     
     |                           x T B                           |     
     |                   =====================                   |     
     |                         S. Grimme                         |     
     |          Mulliken Center for Theoretical Chemistry        |     
     |                    University of Bonn                     |     
      -----------------------------------------------------------      

   * xtb version 6.5.1 (fef0646) compiled by 'conda@b96dff2e9fd6' on 2023-01-04

   xtb is free software: you can redistribute it and/or modify it under
   the terms of the GNU Lesser General Public License as published by
   the Free Software Foundation, either version 3 of the License, or
   (at your option) any later version.
   
   xtb is distributed in the hope that it will be useful,
   but WITHOUT ANY WARRANTY; without even the implied warranty of
   MERCHANTABILITY or FITNESS FOR A PARTICULAR PURPOSE.  See the
   GNU Lesser General Public License for more details.
   
   Cite this work as:
   * C. Bannwarth, E. Caldeweyher, S. Ehlert, A. Hansen, P. Pracht,
     J. Seibert, S. Spicher, S. Grimme, WIREs Comput. Mol. Sci., 2020, 11,
     e01493. DOI: 10.1002/wcms.1493
   
   for GFN2-xTB:
   * C. Bannwarth, S. Ehlert and S. Grimme., J. Chem. Theory Comput., 2019,
     15, 1652-1671. DOI: 10.1021/acs.jctc.8b01176
   for GFN1-xTB:
   * S. Grimme, C. Bannwarth, P. Shushkov, J. Chem. Theory Comput., 2017,
     13, 1989-2009. DOI: 10.1021/acs.jctc.7b00118
   for GFN0-xTB:
   * P. Pracht, E. Caldeweyher, S. Ehlert, S. Grimme, ChemRxiv, 2019, preprint.
     DOI: 10.26434/chemrxiv.8326202.v1
   for GFN-FF:
   * S. Spicher and S. Grimme, Angew. Chem. Int. Ed., 2020, 59, 15665-15673.
     DOI: 10.1002/anie.202004239
   
   for ALPB and GBSA implicit solvation:
   * S. Ehlert, M. Stahn, S. Spicher, S. Grimme, J. Chem. Theory Comput.,
     2021, 17, 4250-4261. DOI: 10.1021/acs.jctc.1c00471
   
   for DFT-D4:
   * E. Caldeweyher, C. Bannwarth and S. Grimme, J. Chem. Phys., 2017,
     147, 034112. DOI: 10.1063/1.4993215
   * E. Caldeweyher, S. Ehlert, A. Hansen, H. Neugebauer, S. Spicher,
     C. Bannwarth and S. Grimme, J. Chem. Phys., 2019, 150, 154122.
     DOI: 10.1063/1.5090222
   * E. Caldeweyher, J.-M. Mewes, S. Ehlert and S. Grimme, Phys. Chem. Chem. Phys.
     2020, 22, 8499-8512. DOI: 10.1039/D0CP00502A
   
   for sTDA-xTB:
   * S. Grimme and C. Bannwarth, J. Chem. Phys., 2016, 145, 054103.
     DOI: 10.1063/1.4959605
   
   in the mass-spec context:
   * V. Asgeirsson, C. Bauer and S. Grimme, Chem. Sci., 2017, 8, 4879.
     DOI: 10.1039/c7sc00601b
   * J. Koopman and S. Grimme, ACS Omega 2019, 4, 12, 15120-15133.
     DOI: 10.1021/acsomega.9b02011
   
   for metadynamics refer to:
   * S. Grimme, J. Chem. Theory Comput., 2019, 155, 2847-2862
     DOI: 10.1021/acs.jctc.9b00143
   
   for SPH calculations refer to:
   * S. Spicher and S. Grimme, J. Chem. Theory Comput., 2021, 17, 1701-1714
     DOI: 10.1021/acs.jctc.0c01306
   
   with help from (in alphabetical order)
   P. Atkinson, C. Bannwarth, F. Bohle, G. Brandenburg, E. Caldeweyher
   M. Checinski, S. Dohm, S. Ehlert, S. Ehrlich, I. Gerasimov, C. Hölzer
   A. Katbashev, J. Koopman, C. Lavigne, S. Lehtola, F. März, M. Müller,
   F. Musil, H. Neugebauer, J. Pisarek, C. Plett, P. Pracht, F. Pultar,
   J. Seibert, P. Shushkov, S. Spicher, M. Stahn, M. Steiner, T. Strunk,
   J. Stückrath, T. Rose, and J. Unsleber
   
 * started run on 2023/01/23 at 19:20:07.479     

           -------------------------------------------------
          |                Calculation Setup                |
           -------------------------------------------------

          program call               : xtb init.xyz --opt -c 0 -u 0 -P 16 --input xtb.inp
          hostname                   : gpg-woodward
          coordinate file            : init.xyz
          omp threads                :                    16

   ID    Z sym.   atoms
    1    7 N      1, 24, 26
    2    6 C      2-21, 23, 27
    3   16 S      22, 25, 28, 29
    4   17 Cl     30
    5    1 H      31-50

molecular fragmentation (1/2 indicates fragments):
11111111111111111111111111111211111111111111111111
# atoms in fragment 1/2:    49     1
 fragment masses (1/2) :      454.67       35.45
CMA distance (Bohr)    :  23.152
constraining FC (au)   :  0.0500

           -------------------------------------------------
          |                 G F N 2 - x T B                 |
           -------------------------------------------------

        Reference                      10.1021/acs.jctc.8b01176
      * Hamiltonian:
        H0-scaling (s, p, d)           1.850000    2.230000    2.230000
        zeta-weighting                 0.500000
      * Dispersion:
        s8                             2.700000
        a1                             0.520000
        a2                             5.000000
        s9                             5.000000
      * Repulsion:
        kExp                           1.500000    1.000000
        rExp                           1.000000
      * Coulomb:
        alpha                          2.000000
        third order                    shell-resolved
        anisotropic                    true
        a3                             3.000000
        a5                             4.000000
        cn-shift                       1.200000
        cn-exp                         4.000000
        max-rad                        5.000000


          ...................................................
          :                      SETUP                      :
          :.................................................:
          :  # basis functions                 170          :
          :  # atomic orbitals                 165          :
          :  # shells                           85          :
          :  # electrons                       154          :
          :  max. iterations                   250          :
          :  Hamiltonian                  GFN2-xTB          :
          :  restarted?                      false          :
          :  GBSA solvation                  false          :
          :  PC potential                    false          :
          :  electronic temp.          300.0000000     K    :
          :  accuracy                    1.0000000          :
          :  -> integral cutoff          0.2500000E+02      :
          :  -> integral neglect         0.1000000E-07      :
          :  -> SCF convergence          0.1000000E-05 Eh   :
          :  -> wf. convergence          0.1000000E-03 e    :
          :  Broyden damping             0.4000000          :
          ...................................................

 iter      E             dE          RMSdq      gap      omega  full diag
   1    -84.4352161 -0.844352E+02  0.408E+00    1.78       0.0  T
   2    -84.5961895 -0.160973E+00  0.245E+00    1.57       1.0  T
   3    -84.5924977  0.369185E-02  0.137E+00    1.14       1.0  T
   4    -84.6203545 -0.278568E-01  0.712E-01    0.88       1.0  T
   5    -84.6312455 -0.108910E-01  0.311E-01    0.66       1.0  T
   6    -84.6334030 -0.215755E-02  0.180E-01    0.68       1.0  T
   7    -84.6337837 -0.380695E-03  0.112E-01    0.69       1.0  T
   8    -84.6339065 -0.122789E-03  0.784E-02    0.69       1.0  T
   9    -84.6340061 -0.996095E-04  0.444E-02    0.68       1.0  T
  10    -84.6340490 -0.429332E-04  0.180E-02    0.67       1.0  T
  11    -84.6340564 -0.738098E-05  0.101E-02    0.67       1.4  T
  12    -84.6340584 -0.197071E-05  0.429E-03    0.67       3.3  T
  13    -84.6340589 -0.529720E-06  0.188E-03    0.67       7.5  T
  14    -84.6340590 -0.927817E-07  0.986E-04    0.67      14.3  T
  15    -84.6340590 -0.248901E-07  0.447E-04    0.67      31.6  T

   *** convergence criteria satisfied after 15 iterations ***

         #    Occupation            Energy/Eh            Energy/eV
      -------------------------------------------------------------
         1        2.0000           -0.9499430             -25.8493
       ...           ...                  ...                  ...
        71        2.0000           -0.3972771             -10.8105
        72        2.0000           -0.3911935             -10.6449
        73        2.0000           -0.3845828             -10.4650
        74        2.0000           -0.3689490             -10.0396
        75        2.0000           -0.3503884              -9.5346
        76        2.0000           -0.3394714              -9.2375
        77        2.0000           -0.3392757              -9.2322 (HOMO)
        78        0.0000           -0.3146247              -8.5614 (LUMO)
        79                         -0.2787255              -7.5845
        80                         -0.2560146              -6.9665
        81                         -0.2398733              -6.5273
        82                         -0.2337962              -6.3619
       ...                                ...                  ...
       165                          0.6906742              18.7942
      -------------------------------------------------------------
                  HL-Gap            0.0246510 Eh            0.6708 eV
             Fermi-level           -0.3266674 Eh           -8.8891 eV

 SCC (total)                   0 d,  0 h,  0 min,  0.384 sec
 SCC setup                      ...        0 min,  0.001 sec (  0.142%)
 Dispersion                     ...        0 min,  0.002 sec (  0.552%)
 classical contributions        ...        0 min,  0.000 sec (  0.074%)
 integral evaluation            ...        0 min,  0.016 sec (  4.210%)
 iterations                     ...        0 min,  0.332 sec ( 86.450%)
 molecular gradient             ...        0 min,  0.031 sec (  8.180%)
 printout                       ...        0 min,  0.001 sec (  0.341%)

         :::::::::::::::::::::::::::::::::::::::::::::::::::::
         ::                     SUMMARY                     ::
         :::::::::::::::::::::::::::::::::::::::::::::::::::::
         :: total energy             -83.564950667981 Eh    ::
         :: gradient norm              0.109050064248 Eh/a0 ::
         :: HOMO-LUMO gap              0.670787556843 eV    ::
         ::.................................................::
         :: SCC energy               -84.634059031816 Eh    ::
         :: -> isotropic ES            0.110563988171 Eh    ::
         :: -> anisotropic ES         -0.016337317440 Eh    ::
         :: -> anisotropic XC          0.032478134141 Eh    ::
         :: -> dispersion             -0.065175754014 Eh    ::
         :: repulsion energy           1.069664182011 Eh    ::
         :: add. restraining           0.000000000000 Eh    ::
         :: total charge               0.000000000004 e     ::
         :::::::::::::::::::::::::::::::::::::::::::::::::::::

      ----------------------------------------------------------- 
     |                   =====================                   |
     |                        A N C O P T                        |
     |                   =====================                   |
     |               Approximate Normal Coordinate               |
     |                Rational Function Optimizer                |
      ----------------------------------------------------------- 

          ...................................................
          :                      SETUP                      :
          :.................................................:
          :   optimization level            normal          :
          :   max. optcycles                   200          :
          :   ANC micro-cycles                  20          :
          :   degrees of freedom               144          :
          :.................................................:
          :   RF solver                   davidson          :
          :   write xtbopt.log                true          :
          :   linear?                        false          :
          :   energy convergence         0.5000000E-05 Eh   :
          :   grad. convergence          0.1000000E-02 Eh/α :
          :   maximium RF displ.         1.0000000          :
          :   Hlow (freq-cutoff)         0.1000000E-01      :
          :   Hmax (freq-cutoff)         5.0000000          :
          :   S6 in model hess.         20.0000000          :
          ...................................................

generating ANC from model Hessian ...
Using Lindh-Hessian (1995)
 Shifting diagonal of input Hessian by    9.9302162048035009E-003
 Lowest  eigenvalues of input Hessian
    0.000000    0.000000    0.000000    0.000000    0.000000    0.000000
    0.010000    0.010095    0.010124    0.010426    0.010456    0.010731
    0.011148    0.011321    0.011923    0.012355    0.012989    0.013219
 Highest eigenvalues
    1.815386    1.828221    1.840737    1.926274    1.946958    1.973571


........................................................................
.............................. CYCLE    1 ..............................
........................................................................
   1    -84.6340590 -0.846341E+02  0.275E-04    0.67       0.0  T
   2    -84.6340590 -0.344627E-09  0.219E-04    0.67      64.7  T
   3    -84.6340590 -0.589338E-09  0.165E-04    0.67      85.9  T
     SCC iter.                  ...        0 min,  0.070 sec
     gradient                   ...        0 min,  0.035 sec
 * total energy  :   -83.5649507 Eh     change       -0.2889081E-08 Eh
   gradient norm :     0.1090511 Eh/α   predicted     0.0000000E+00 (-100.00%)
   displ. norm   :     0.4263781 α      lambda       -0.2810057E-01
   maximum displ.:     0.1256631 α      in ANC's #35, #26, #34, ...

........................................................................
.............................. CYCLE    2 ..............................
........................................................................
   1    -84.6978496 -0.846978E+02  0.253E-01    0.89       0.0  T
   2    -84.6981705 -0.320867E-03  0.152E-01    0.95       1.0  T
   3    -84.6981051  0.653810E-04  0.696E-02    1.00       1.0  T
   4    -84.6982085 -0.103440E-03  0.374E-02    1.02       1.0  T
   5    -84.6982435 -0.350239E-04  0.184E-02    1.03       1.0  T
   6    -84.6982485 -0.493954E-05  0.131E-02    1.03       1.1  T
   7    -84.6982508 -0.227730E-05  0.833E-03    1.04       1.7  T
   8    -84.6982518 -0.105809E-05  0.513E-03    1.04       2.8  T
   9    -84.6982521 -0.278010E-06  0.323E-03    1.04       4.4  T
  10    -84.6982524 -0.340541E-06  0.148E-03    1.04       9.5  T
  11    -84.6982525 -0.353118E-07  0.868E-04    1.04      16.3  T
  12    -84.6982525 -0.191430E-07  0.316E-04    1.04      44.8  T
     SCC iter.                  ...        0 min,  0.265 sec
     gradient                   ...        0 min,  0.030 sec
 * total energy  :   -83.5853111 Eh     change       -0.2036042E-01 Eh
   gradient norm :     0.0643938 Eh/α   predicted    -0.1660752E-01 ( -18.43%)
   displ. norm   :     0.4969543 α      lambda       -0.1558535E-01
   maximum displ.:     0.2036445 α      in ANC's #26, #16, #25, ...

........................................................................
.............................. CYCLE    3 ..............................
........................................................................
   1    -84.7451845 -0.847452E+02  0.223E-01    1.13       0.0  T
   2    -84.7454804 -0.295951E-03  0.131E-01    1.17       1.0  T
   3    -84.7454542  0.261948E-04  0.623E-02    1.21       1.0  T
   4    -84.7455198 -0.655691E-04  0.337E-02    1.24       1.0  T
   5    -84.7455473 -0.275176E-04  0.153E-02    1.25       1.0  T
   6    -84.7455500 -0.266966E-05  0.114E-02    1.25       1.2  T
   7    -84.7455519 -0.188865E-05  0.742E-03    1.25       1.9  T
   8    -84.7455528 -0.867666E-06  0.431E-03    1.25       3.3  T
   9    -84.7455530 -0.206842E-06  0.274E-03    1.25       5.2  T
  10    -84.7455532 -0.217203E-06  0.120E-03    1.25      11.8  T
  11    -84.7455532 -0.160829E-07  0.697E-04    1.25      20.3  T
  12    -84.7455532 -0.111094E-07  0.394E-04    1.25      35.9  T
     SCC iter.                  ...        0 min,  0.264 sec
     gradient                   ...        0 min,  0.035 sec
 * total energy  :   -83.5951566 Eh     change       -0.9845468E-02 Eh
   gradient norm :     0.0406652 Eh/α   predicted    -0.9717215E-02 (  -1.30%)
   displ. norm   :     0.3929318 α      lambda       -0.5857005E-02
   maximum displ.:     0.1569240 α      in ANC's #16, #26, #13, ...

........................................................................
.............................. CYCLE    4 ..............................
........................................................................
   1    -84.7527707 -0.847528E+02  0.203E-01    1.34       0.0  T
   2    -84.7531168 -0.346125E-03  0.117E-01    1.42       1.0  T
   3    -84.7531375 -0.206912E-04  0.571E-02    1.50       1.0  T
   4    -84.7531592 -0.217262E-04  0.371E-02    1.54       1.0  T
   5    -84.7531870 -0.277616E-04  0.247E-02    1.55       1.0  T
   6    -84.7531917 -0.473387E-05  0.193E-02    1.55       1.0  T
   7    -84.7532007 -0.897268E-05  0.882E-03    1.55       1.6  T
   8    -84.7532021 -0.143200E-05  0.480E-03    1.55       2.9  T
   9    -84.7532027 -0.539828E-06  0.182E-03    1.55       7.8  T
  10    -84.7532028 -0.109859E-06  0.855E-04    1.55      16.5  T
  11    -84.7532028 -0.906419E-08  0.559E-04    1.55      25.3  T
     SCC iter.                  ...        0 min,  0.490 sec
     gradient                   ...        0 min,  0.053 sec
 * total energy  :   -83.5994242 Eh     change       -0.4267595E-02 Eh
   gradient norm :     0.0396164 Eh/α   predicted    -0.3380652E-02 ( -20.78%)
   displ. norm   :     0.4829509 α      lambda       -0.5383143E-02
   maximum displ.:     0.1877005 α      in ANC's #16, #13, #26, ...

........................................................................
.............................. CYCLE    5 ..............................
........................................................................
   1    -84.7522522 -0.847523E+02  0.186E-01    1.54       0.0  T
   2    -84.7524559 -0.203754E-03  0.105E-01    1.53       1.0  T
   3    -84.7524390  0.169347E-04  0.479E-02    1.52       1.0  T
   4    -84.7524773 -0.382630E-04  0.256E-02    1.52       1.0  T
   5    -84.7524936 -0.163636E-04  0.140E-02    1.52       1.0  T
   6    -84.7524968 -0.314367E-05  0.965E-03    1.52       1.5  T
   7    -84.7524980 -0.126634E-05  0.558E-03    1.52       2.5  T
   8    -84.7524984 -0.389363E-06  0.360E-03    1.52       3.9  T
   9    -84.7524987 -0.252900E-06  0.159E-03    1.52       8.9  T
  10    -84.7524988 -0.725434E-07  0.721E-04    1.52      19.6  T
  11    -84.7524988 -0.634570E-08  0.517E-04    1.52      27.3  T
     SCC iter.                  ...        0 min,  0.240 sec
     gradient                   ...        0 min,  0.037 sec
 * total energy  :   -83.6030907 Eh     change       -0.3666503E-02 Eh
   gradient norm :     0.0325000 Eh/α   predicted    -0.3319362E-02 (  -9.47%)
   displ. norm   :     0.4242426 α      lambda       -0.3925669E-02
   maximum displ.:     0.1871805 α      in ANC's #6, #16, #13, ...

........................................................................
.............................. CYCLE    6 ..............................
........................................................................
   1    -84.7512337 -0.847512E+02  0.214E-01    1.50       0.0  T
   2    -84.7516702 -0.436456E-03  0.122E-01    1.49       1.0  T
   3    -84.7517048 -0.346064E-04  0.582E-02    1.48       1.0  T
   4    -84.7517091 -0.430048E-05  0.424E-02    1.48       1.0  T
   5    -84.7517536 -0.445275E-04  0.275E-02    1.48       1.0  T
   6    -84.7517612 -0.757254E-05  0.216E-02    1.48       1.0  T
   7    -84.7517743 -0.131105E-04  0.936E-03    1.48       1.5  T
   8    -84.7517761 -0.178899E-05  0.538E-03    1.48       2.6  T
   9    -84.7517768 -0.753907E-06  0.182E-03    1.48       7.8  T
  10    -84.7517770 -0.134695E-06  0.688E-04    1.48      20.6  T
  11    -84.7517770 -0.615724E-08  0.427E-04    1.48      33.1  T
     SCC iter.                  ...        0 min,  0.407 sec
     gradient                   ...        0 min,  0.037 sec
 * total energy  :   -83.6055791 Eh     change       -0.2488438E-02 Eh
   gradient norm :     0.0292182 Eh/α   predicted    -0.2316109E-02 (  -6.93%)
   displ. norm   :     0.3497321 α      lambda       -0.2677540E-02
   maximum displ.:     0.1723218 α      in ANC's #6, #13, #12, ...

........................................................................
.............................. CYCLE    7 ..............................
........................................................................
   1    -84.7535837 -0.847536E+02  0.115E-01    1.47       0.0  T
   2    -84.7536938 -0.110033E-03  0.642E-02    1.47       1.0  T
   3    -84.7536964 -0.268954E-05  0.257E-02    1.47       1.0  T
   4    -84.7536937  0.277914E-05  0.176E-02    1.47       1.0  T
   5    -84.7537053 -0.116396E-04  0.625E-03    1.47       2.3  T
   6    -84.7537056 -0.334881E-06  0.451E-03    1.47       3.1  T
   7    -84.7537060 -0.389888E-06  0.291E-03    1.47       4.9  T
   8    -84.7537062 -0.129577E-06  0.221E-03    1.47       6.4  T
   9    -84.7537063 -0.101430E-06  0.123E-03    1.47      11.5  T
  10    -84.7537063 -0.630252E-07  0.470E-04    1.47      30.1  T
  11    -84.7537063 -0.526208E-08  0.275E-04    1.47      51.3  T
     SCC iter.                  ...        0 min,  0.385 sec
     gradient                   ...        0 min,  0.038 sec
 * total energy  :   -83.6075831 Eh     change       -0.2004036E-02 Eh
   gradient norm :     0.0219001 Eh/α   predicted    -0.1502524E-02 ( -25.03%)
   displ. norm   :     0.3348298 α      lambda       -0.2140692E-02
   maximum displ.:     0.1904444 α      in ANC's #6, #18, #12, ...

........................................................................
.............................. CYCLE    8 ..............................
........................................................................
   1    -84.7589410 -0.847589E+02  0.112E-01    1.46       0.0  T
   2    -84.7590232 -0.821183E-04  0.610E-02    1.46       1.0  T
   3    -84.7590242 -0.103411E-05  0.261E-02    1.46       1.0  T
   4    -84.7590282 -0.395871E-05  0.140E-02    1.46       1.0  T
   5    -84.7590338 -0.563727E-05  0.664E-03    1.46       2.1  T
   6    -84.7590343 -0.516172E-06  0.479E-03    1.46       2.9  T
   7    -84.7590347 -0.357455E-06  0.303E-03    1.46       4.7  T
   8    -84.7590348 -0.116378E-06  0.209E-03    1.46       6.8  T
   9    -84.7590349 -0.723318E-07  0.117E-03    1.46      12.1  T
  10    -84.7590349 -0.502460E-07  0.515E-04    1.46      27.5  T
  11    -84.7590349 -0.444187E-08  0.387E-04    1.46      36.5  T
     SCC iter.                  ...        0 min,  0.383 sec
     gradient                   ...        0 min,  0.043 sec
 * total energy  :   -83.6090603 Eh     change       -0.1477131E-02 Eh
   gradient norm :     0.0116680 Eh/α   predicted    -0.1190344E-02 ( -19.42%)
   displ. norm   :     0.2969330 α      lambda       -0.8357985E-03
   maximum displ.:     0.1803890 α      in ANC's #6, #18, #12, ...

........................................................................
.............................. CYCLE    9 ..............................
........................................................................
   1    -84.7588924 -0.847589E+02  0.828E-02    1.46       0.0  T
   2    -84.7589249 -0.325159E-04  0.456E-02    1.46       1.0  T
   3    -84.7589229  0.202945E-05  0.202E-02    1.46       1.0  T
   4    -84.7589276 -0.472541E-05  0.115E-02    1.46       1.2  T
   5    -84.7589310 -0.337203E-05  0.610E-03    1.46       2.3  T
   6    -84.7589315 -0.485240E-06  0.438E-03    1.46       3.2  T
   7    -84.7589318 -0.310835E-06  0.263E-03    1.46       5.4  T
   8    -84.7589319 -0.108234E-06  0.149E-03    1.46       9.5  T
   9    -84.7589320 -0.410429E-07  0.862E-04    1.46      16.4  T
  10    -84.7589320 -0.293123E-07  0.455E-04    1.46      31.1  T
     SCC iter.                  ...        0 min,  0.342 sec
     gradient                   ...        0 min,  0.039 sec
 * total energy  :   -83.6096211 Eh     change       -0.5608257E-03 Eh
   gradient norm :     0.0081545 Eh/α   predicted    -0.4547474E-03 ( -18.91%)
   displ. norm   :     0.2569718 α      lambda       -0.4687425E-03
   maximum displ.:     0.1645832 α      in ANC's #6, #12, #18, ...

........................................................................
.............................. CYCLE   10 ..............................
........................................................................
   1    -84.7606773 -0.847607E+02  0.678E-02    1.46       0.0  T
   2    -84.7606879 -0.105454E-04  0.371E-02    1.46       1.0  T
   3    -84.7606837  0.413323E-05  0.157E-02    1.46       1.0  T
   4    -84.7606891 -0.542680E-05  0.757E-03    1.46       1.9  T
   5    -84.7606905 -0.138960E-05  0.371E-03    1.46       3.8  T
   6    -84.7606907 -0.193774E-06  0.243E-03    1.46       5.8  T
   7    -84.7606908 -0.734443E-07  0.161E-03    1.46       8.8  T
   8    -84.7606908 -0.268461E-07  0.902E-04    1.46      15.7  T
   9    -84.7606908 -0.174465E-07  0.378E-04    1.46      37.4  T
     SCC iter.                  ...        0 min,  0.310 sec
     gradient                   ...        0 min,  0.043 sec
 * total energy  :   -83.6099262 Eh     change       -0.3050730E-03 Eh
   gradient norm :     0.0090794 Eh/α   predicted    -0.2498507E-03 ( -18.10%)
   displ. norm   :     0.3283131 α      lambda       -0.4331206E-03
   maximum displ.:     0.2061307 α      in ANC's #6, #12, #18, ...

........................................................................
.............................. CYCLE   11 ..............................
........................................................................
   1    -84.7583653 -0.847584E+02  0.744E-02    1.46       0.0  T
   2    -84.7583756 -0.103359E-04  0.425E-02    1.46       1.0  T
   3    -84.7583710  0.457221E-05  0.153E-02    1.46       1.0  T
   4    -84.7583770 -0.598632E-05  0.800E-03    1.46       1.8  T
   5    -84.7583784 -0.142107E-05  0.427E-03    1.46       3.3  T
   6    -84.7583786 -0.195875E-06  0.319E-03    1.46       4.4  T
   7    -84.7583788 -0.172500E-06  0.229E-03    1.46       6.2  T
   8    -84.7583789 -0.101108E-06  0.149E-03    1.46       9.5  T
   9    -84.7583790 -0.649850E-07  0.668E-04    1.46      21.2  T
  10    -84.7583790 -0.135499E-07  0.343E-04    1.46      41.2  T
     SCC iter.                  ...        0 min,  0.344 sec
     gradient                   ...        0 min,  0.040 sec
 * total energy  :   -83.6102360 Eh     change       -0.3098431E-03 Eh
   gradient norm :     0.0082521 Eh/α   predicted    -0.2399031E-03 ( -22.57%)
   displ. norm   :     0.3604023 α      lambda       -0.4570999E-03
   maximum displ.:     0.2045460 α      in ANC's #6, #5, #12, ...

........................................................................
.............................. CYCLE   12 ..............................
........................................................................
   1    -84.7565812 -0.847566E+02  0.777E-02    1.46       0.0  T
   2    -84.7565849 -0.370027E-05  0.441E-02    1.46       1.0  T
   3    -84.7565799  0.500274E-05  0.131E-02    1.46       1.1  T
   4    -84.7565855 -0.555877E-05  0.540E-03    1.46       2.6  T
   5    -84.7565861 -0.668284E-06  0.225E-03    1.46       6.3  T
   6    -84.7565862 -0.770848E-07  0.114E-03    1.46      12.4  T
   7    -84.7565862 -0.311696E-07  0.761E-04    1.46      18.6  T
   8    -84.7565862 -0.617247E-08  0.524E-04    1.46      27.0  T
     SCC iter.                  ...        0 min,  0.179 sec
     gradient                   ...        0 min,  0.033 sec
 * total energy  :   -83.6105980 Eh     change       -0.3619574E-03 Eh
   gradient norm :     0.0085082 Eh/α   predicted    -0.2582378E-03 ( -28.66%)
   displ. norm   :     0.4529710 α      lambda       -0.5670165E-03
   maximum displ.:     0.2333795 α      in ANC's #6, #5, #25, ...

........................................................................
.............................. CYCLE   13 ..............................
........................................................................
   1    -84.7559080 -0.847559E+02  0.987E-02    1.46       0.0  T
   2    -84.7559144 -0.631510E-05  0.562E-02    1.46       1.0  T
   3    -84.7559069  0.748687E-05  0.162E-02    1.45       1.0  T
   4    -84.7559155 -0.859836E-05  0.793E-03    1.46       1.8  T
   5    -84.7559170 -0.150554E-05  0.422E-03    1.46       3.4  T
   6    -84.7559172 -0.228598E-06  0.284E-03    1.46       5.0  T
   7    -84.7559173 -0.992876E-07  0.203E-03    1.46       7.0  T
   8    -84.7559173 -0.501194E-07  0.101E-03    1.46      14.0  T
   9    -84.7559174 -0.257821E-07  0.416E-04    1.46      34.0  T
  10    -84.7559174 -0.309387E-08  0.190E-04    1.46      74.5  T
     SCC iter.                  ...        0 min,  0.227 sec
     gradient                   ...        0 min,  0.032 sec
 * total energy  :   -83.6110187 Eh     change       -0.4207613E-03 Eh
   gradient norm :     0.0096575 Eh/α   predicted    -0.3416921E-03 ( -18.79%)
   displ. norm   :     0.4300517 α      lambda       -0.4642461E-03
   maximum displ.:     0.2076524 α      in ANC's #5, #6, #25, ...

........................................................................
.............................. CYCLE   14 ..............................
........................................................................
   1    -84.7546934 -0.847547E+02  0.931E-02    1.46       0.0  T
   2    -84.7547009 -0.742657E-05  0.535E-02    1.46       1.0  T
   3    -84.7546964  0.448186E-05  0.152E-02    1.45       1.0  T
   4    -84.7547023 -0.594010E-05  0.901E-03    1.46       1.6  T
   5    -84.7547042 -0.184603E-05  0.543E-03    1.46       2.6  T
   6    -84.7547044 -0.285246E-06  0.402E-03    1.46       3.5  T
   7    -84.7547047 -0.265786E-06  0.250E-03    1.45       5.7  T
   8    -84.7547048 -0.881166E-07  0.131E-03    1.46      10.8  T
   9    -84.7547049 -0.545741E-07  0.617E-04    1.45      22.9  T
  10    -84.7547049 -0.704748E-08  0.439E-04    1.45      32.2  T
     SCC iter.                  ...        0 min,  0.339 sec
     gradient                   ...        0 min,  0.038 sec
 * total energy  :   -83.6113324 Eh     change       -0.3136762E-03 Eh
   gradient norm :     0.0105977 Eh/α   predicted    -0.2750534E-03 ( -12.31%)
   displ. norm   :     0.3716204 α      lambda       -0.4126512E-03
   maximum displ.:     0.1804877 α      in ANC's #5, #6, #25, ...

........................................................................
.............................. CYCLE   15 ..............................
........................................................................
   1    -84.7574163 -0.847574E+02  0.843E-02    1.45       0.0  T
   2    -84.7574225 -0.618270E-05  0.482E-02    1.45       1.0  T
   3    -84.7574192  0.332155E-05  0.134E-02    1.45       1.1  T
   4    -84.7574233 -0.414304E-05  0.761E-03    1.45       1.9  T
   5    -84.7574247 -0.135966E-05  0.426E-03    1.45       3.3  T
   6    -84.7574248 -0.156847E-06  0.301E-03    1.45       4.7  T
   7    -84.7574250 -0.118617E-06  0.201E-03    1.45       7.1  T
   8    -84.7574250 -0.473300E-07  0.958E-04    1.45      14.8  T
   9    -84.7574250 -0.253268E-07  0.331E-04    1.45      42.7  T
     SCC iter.                  ...        0 min,  0.409 sec
     gradient                   ...        0 min,  0.041 sec
 * total energy  :   -83.6115965 Eh     change       -0.2641107E-03 Eh
   gradient norm :     0.0099180 Eh/α   predicted    -0.2348210E-03 ( -11.09%)
   displ. norm   :     0.3434867 α      lambda       -0.3158851E-03
   maximum displ.:     0.1723385 α      in ANC's #6, #5, #12, ...

........................................................................
.............................. CYCLE   16 ..............................
........................................................................
   1    -84.7580233 -0.847580E+02  0.745E-02    1.44       0.0  T
   2    -84.7580273 -0.400825E-05  0.420E-02    1.44       1.0  T
   3    -84.7580261  0.125000E-05  0.954E-03    1.45       1.5  T
   4    -84.7580279 -0.177642E-05  0.543E-03    1.44       2.6  T
   5    -84.7580286 -0.694170E-06  0.299E-03    1.44       4.7  T
   6    -84.7580287 -0.111508E-06  0.201E-03    1.44       7.0  T
   7    -84.7580287 -0.197690E-07  0.157E-03    1.44       9.0  T
   8    -84.7580287 -0.601308E-07  0.563E-04    1.44      25.1  T
   9    -84.7580288 -0.525337E-08  0.255E-04    1.44      55.5  T
     SCC iter.                  ...        0 min,  0.316 sec
     gradient                   ...        0 min,  0.046 sec
 * total energy  :   -83.6118225 Eh     change       -0.2259563E-03 Eh
   gradient norm :     0.0076963 Eh/α   predicted    -0.1765933E-03 ( -21.85%)
   displ. norm   :     0.3312800 α      lambda       -0.2822954E-03
   maximum displ.:     0.1560277 α      in ANC's #5, #6, #12, ...

........................................................................
.............................. CYCLE   17 ..............................
........................................................................
   1    -84.7622983 -0.847623E+02  0.706E-02    1.44       0.0  T
   2    -84.7623039 -0.559328E-05  0.397E-02    1.44       1.0  T
   3    -84.7622992  0.470507E-05  0.135E-02    1.44       1.0  T
   4    -84.7623049 -0.565341E-05  0.642E-03    1.44       2.2  T
   5    -84.7623059 -0.105673E-05  0.340E-03    1.44       4.2  T
   6    -84.7623060 -0.107389E-06  0.240E-03    1.44       5.9  T
   7    -84.7623061 -0.863538E-07  0.175E-03    1.44       8.1  T
   8    -84.7623062 -0.461564E-07  0.823E-04    1.44      17.2  T
   9    -84.7623062 -0.141200E-07  0.418E-04    1.44      33.8  T
     SCC iter.                  ...        0 min,  0.310 sec
     gradient                   ...        0 min,  0.047 sec
 * total energy  :   -83.6120144 Eh     change       -0.1919748E-03 Eh
   gradient norm :     0.0068333 Eh/α   predicted    -0.1566444E-03 ( -18.40%)
   displ. norm   :     0.4909217 α      lambda       -0.2809691E-03
   maximum displ.:     0.2530963 α      in ANC's #6, #5, #12, ...

........................................................................
.............................. CYCLE   18 ..............................
........................................................................
   1    -84.7577897 -0.847578E+02  0.109E-01    1.43       0.0  T
   2    -84.7577966 -0.687603E-05  0.609E-02    1.42       1.0  T
   3    -84.7577813  0.152992E-04  0.211E-02    1.43       1.0  T
   4    -84.7577987 -0.174316E-04  0.771E-03    1.43       1.8  T
   5    -84.7577998 -0.110506E-05  0.331E-03    1.43       4.3  T
   6    -84.7578000 -0.203427E-06  0.174E-03    1.43       8.1  T
   7    -84.7578001 -0.591887E-07  0.114E-03    1.43      12.4  T
   8    -84.7578001 -0.123335E-07  0.728E-04    1.43      19.4  T
   9    -84.7578001 -0.724268E-08  0.391E-04    1.43      36.1  T
     SCC iter.                  ...        0 min,  0.312 sec
     gradient                   ...        0 min,  0.053 sec
 * total energy  :   -83.6121478 Eh     change       -0.1333559E-03 Eh
   gradient norm :     0.0100590 Eh/α   predicted    -0.1743566E-03 (  30.75%)
   displ. norm   :     0.1992515 α      lambda       -0.2933884E-03
   maximum displ.:     0.0861738 α      in ANC's #2, #1, #5, ...

........................................................................
.............................. CYCLE   19 ..............................
........................................................................
   1    -84.7632900 -0.847633E+02  0.484E-02    1.42       0.0  T
   2    -84.7632926 -0.260204E-05  0.275E-02    1.42       1.0  T
   3    -84.7632885  0.418649E-05  0.122E-02    1.42       1.2  T
   4    -84.7632939 -0.547829E-05  0.414E-03    1.42       3.4  T
   5    -84.7632942 -0.235809E-06  0.247E-03    1.42       5.7  T
   6    -84.7632942 -0.776326E-07  0.178E-03    1.42       8.0  T
   7    -84.7632943 -0.440350E-07  0.134E-03    1.42      10.6  T
   8    -84.7632943 -0.283266E-07  0.865E-04    1.42      16.4  T
   9    -84.7632943 -0.189516E-07  0.454E-04    1.42      31.2  T
     SCC iter.                  ...        0 min,  0.312 sec
     gradient                   ...        0 min,  0.046 sec
 * total energy  :   -83.6123159 Eh     change       -0.1680881E-03 Eh
   gradient norm :     0.0083481 Eh/α   predicted    -0.1525205E-03 (  -9.26%)
   displ. norm   :     0.3094986 α      lambda       -0.2348732E-03
   maximum displ.:     0.1487234 α      in ANC's #5, #6, #1, ...

........................................................................
.............................. CYCLE   20 ..............................
........................................................................
   1    -84.7634623 -0.847635E+02  0.628E-02    1.42       0.0  T
   2    -84.7634661 -0.384054E-05  0.359E-02    1.42       1.0  T
   3    -84.7634656  0.509106E-06  0.751E-03    1.42       1.9  T
   4    -84.7634663 -0.656072E-06  0.512E-03    1.42       2.8  T
   5    -84.7634671 -0.786761E-06  0.286E-03    1.42       4.9  T
   6    -84.7634672 -0.956417E-07  0.216E-03    1.42       6.6  T
   7    -84.7634672 -0.726881E-07  0.153E-03    1.42       9.2  T
   8    -84.7634673 -0.431935E-07  0.914E-04    1.42      15.5  T
   9    -84.7634673 -0.220431E-07  0.464E-04    1.42      30.5  T
     SCC iter.                  ...        0 min,  0.312 sec
     gradient                   ...        0 min,  0.043 sec
 * total energy  :   -83.6124796 Eh     change       -0.1637587E-03 Eh
   gradient norm :     0.0071082 Eh/α   predicted    -0.1286888E-03 ( -21.42%)
   displ. norm   :     0.4030415 α      lambda       -0.2522316E-03
   maximum displ.:     0.1909170 α      in ANC's #5, #6, #2, ...
 * RMSD in coord.:     0.7716842 α      energy gain  -0.4752897E-01 Eh

generating ANC from model Hessian ...
Using Lindh-Hessian (1995)
 Shifting diagonal of input Hessian by    1.0109793365119328E-002
 Lowest  eigenvalues of input Hessian
    0.010000    0.000000    0.000000    0.000000    0.000000    0.000000
    0.000000    0.010183    0.010341    0.010482    0.010672    0.010834
    0.011454    0.011493    0.011978    0.012818    0.013150    0.013334
 Highest eigenvalues
    1.903698    1.937612    1.956127    2.013115    2.100764    2.188012


........................................................................
.............................. CYCLE   21 ..............................
........................................................................
   1    -84.7612095 -0.847612E+02  0.817E-02    1.42       0.0  T
   2    -84.7612129 -0.346926E-05  0.467E-02    1.42       1.0  T
   3    -84.7612088  0.416244E-05  0.116E-02    1.42       1.2  T
   4    -84.7612134 -0.458854E-05  0.539E-03    1.42       2.6  T
   5    -84.7612141 -0.726645E-06  0.249E-03    1.42       5.7  T
   6    -84.7612142 -0.839183E-07  0.170E-03    1.42       8.3  T
   7    -84.7612142 -0.456797E-07  0.126E-03    1.42      11.2  T
   8    -84.7612142 -0.198672E-07  0.836E-04    1.42      16.9  T
   9    -84.7612143 -0.170978E-07  0.446E-04    1.42      31.7  T
     SCC iter.                  ...        0 min,  0.308 sec
     gradient                   ...        0 min,  0.056 sec
 * total energy  :   -83.6126590 Eh     change       -0.1794092E-03 Eh
   gradient norm :     0.0063979 Eh/α   predicted     0.0000000E+00 (-100.00%)
   displ. norm   :     0.0600133 α      lambda       -0.8680898E-04
   maximum displ.:     0.0243813 α      in ANC's #2, #10, #3, ...

........................................................................
.............................. CYCLE   22 ..............................
........................................................................
   1    -84.7621416 -0.847621E+02  0.177E-02    1.42       0.0  T
   2    -84.7621419 -0.227774E-06  0.103E-02    1.42       1.4  T
   3    -84.7621412  0.657383E-06  0.430E-03    1.42       3.3  T
   4    -84.7621420 -0.773696E-06  0.128E-03    1.42      11.1  T
   5    -84.7621420 -0.252807E-07  0.766E-04    1.42      18.5  T
   6    -84.7621420 -0.596434E-08  0.573E-04    1.42      24.7  T
     SCC iter.                  ...        0 min,  0.204 sec
     gradient                   ...        0 min,  0.044 sec
 * total energy  :   -83.6127344 Eh     change       -0.7538849E-04 Eh
   gradient norm :     0.0032104 Eh/α   predicted    -0.4877048E-04 ( -35.31%)
   displ. norm   :     0.1483849 α      lambda       -0.1285521E-03
   maximum displ.:     0.0628791 α      in ANC's #2, #10, #3, ...

........................................................................
.............................. CYCLE   23 ..............................
........................................................................
   1    -84.7628329 -0.847628E+02  0.364E-02    1.42       0.0  T
   2    -84.7628339 -0.956396E-06  0.209E-02    1.42       1.0  T
   3    -84.7628317  0.220714E-05  0.813E-03    1.42       1.7  T
   4    -84.7628343 -0.260982E-05  0.300E-03    1.42       4.7  T
   5    -84.7628344 -0.155590E-06  0.173E-03    1.42       8.2  T
   6    -84.7628345 -0.279196E-07  0.129E-03    1.42      11.0  T
   7    -84.7628345 -0.231199E-07  0.895E-04    1.42      15.8  T
   8    -84.7628345 -0.138119E-07  0.447E-04    1.42      31.6  T
     SCC iter.                  ...        0 min,  0.269 sec
     gradient                   ...        0 min,  0.042 sec
 * total energy  :   -83.6128168 Eh     change       -0.8232583E-04 Eh
   gradient norm :     0.0027254 Eh/α   predicted    -0.6569263E-04 ( -20.20%)
   displ. norm   :     0.1406668 α      lambda       -0.6833117E-04
   maximum displ.:     0.0675536 α      in ANC's #2, #10, #3, ...

........................................................................
.............................. CYCLE   24 ..............................
........................................................................
   1    -84.7623898 -0.847624E+02  0.321E-02    1.42       0.0  T
   2    -84.7623904 -0.589899E-06  0.183E-02    1.42       1.0  T
   3    -84.7623899  0.473164E-06  0.494E-03    1.42       2.9  T
   4    -84.7623906 -0.661906E-06  0.289E-03    1.42       4.9  T
   5    -84.7623907 -0.152939E-06  0.173E-03    1.42       8.2  T
   6    -84.7623907 -0.298830E-07  0.126E-03    1.42      11.3  T
   7    -84.7623908 -0.202898E-07  0.808E-04    1.42      17.5  T
   8    -84.7623908 -0.116183E-07  0.316E-04    1.42      44.8  T
     SCC iter.                  ...        0 min,  0.373 sec
     gradient                   ...        0 min,  0.052 sec
 * total energy  :   -83.6128684 Eh     change       -0.5164609E-04 Eh
   gradient norm :     0.0040047 Eh/α   predicted    -0.3484663E-04 ( -32.53%)
   displ. norm   :     0.2280934 α      lambda       -0.9471615E-04
   maximum displ.:     0.1094203 α      in ANC's #2, #3, #10, ...

........................................................................
.............................. CYCLE   25 ..............................
........................................................................
   1    -84.7611921 -0.847612E+02  0.520E-02    1.42       0.0  T
   2    -84.7611932 -0.109515E-05  0.297E-02    1.42       1.0  T
   3    -84.7611930  0.269027E-06  0.614E-03    1.42       2.3  T
   4    -84.7611936 -0.606143E-06  0.415E-03    1.42       3.4  T
   5    -84.7611939 -0.318876E-06  0.247E-03    1.42       5.7  T
   6    -84.7611940 -0.718752E-07  0.181E-03    1.42       7.8  T
   7    -84.7611940 -0.406062E-07  0.110E-03    1.42      12.9  T
   8    -84.7611940 -0.215406E-07  0.389E-04    1.42      36.3  T
   9    -84.7611940 -0.434846E-08  0.192E-04    1.42      73.6  T
     SCC iter.                  ...        0 min,  0.415 sec
     gradient                   ...        0 min,  0.050 sec
 * total energy  :   -83.6129426 Eh     change       -0.7417777E-04 Eh
   gradient norm :     0.0042540 Eh/α   predicted    -0.4983392E-04 ( -32.82%)
   displ. norm   :     0.2756650 α      lambda       -0.1038939E-03
   maximum displ.:     0.1399727 α      in ANC's #2, #3, #5, ...

........................................................................
.............................. CYCLE   26 ..............................
........................................................................
   1    -84.7599198 -0.847599E+02  0.623E-02    1.42       0.0  T
   2    -84.7599210 -0.119930E-05  0.355E-02    1.42       1.0  T
   3    -84.7599209  0.295476E-07  0.663E-03    1.42       2.1  T
   4    -84.7599214 -0.423135E-06  0.451E-03    1.42       3.1  T
   5    -84.7599217 -0.375248E-06  0.252E-03    1.42       5.6  T
   6    -84.7599218 -0.714560E-07  0.199E-03    1.42       7.1  T
   7    -84.7599219 -0.545894E-07  0.115E-03    1.42      12.3  T
   8    -84.7599219 -0.320700E-07  0.394E-04    1.42      35.9  T
   9    -84.7599219 -0.395467E-08  0.178E-04    1.42      79.6  T
     SCC iter.                  ...        0 min,  0.316 sec
     gradient                   ...        0 min,  0.048 sec
 * total energy  :   -83.6130234 Eh     change       -0.8080166E-04 Eh
   gradient norm :     0.0035508 Eh/α   predicted    -0.5589521E-04 ( -30.82%)
   displ. norm   :     0.2861082 α      lambda       -0.1041611E-03
   maximum displ.:     0.1505114 α      in ANC's #2, #3, #5, ...

........................................................................
.............................. CYCLE   27 ..............................
........................................................................
   1    -84.7594185 -0.847594E+02  0.628E-02    1.41       0.0  T
   2    -84.7594195 -0.103746E-05  0.356E-02    1.41       1.0  T
   3    -84.7594189  0.585813E-06  0.707E-03    1.41       2.0  T
   4    -84.7594198 -0.877271E-06  0.429E-03    1.41       3.3  T
   5    -84.7594202 -0.328912E-06  0.215E-03    1.41       6.6  T
   6    -84.7594202 -0.595915E-07  0.168E-03    1.41       8.4  T
   7    -84.7594203 -0.372920E-07  0.110E-03    1.41      12.8  T
   8    -84.7594203 -0.226844E-07  0.440E-04    1.41      32.1  T
   9    -84.7594203 -0.497801E-08  0.195E-04    1.41      72.7  T
     SCC iter.                  ...        0 min,  0.330 sec
     gradient                   ...        0 min,  0.050 sec
 * total energy  :   -83.6131083 Eh     change       -0.8489394E-04 Eh
   gradient norm :     0.0034132 Eh/α   predicted    -0.5634477E-04 ( -33.63%)
   displ. norm   :     0.3365104 α      lambda       -0.1311156E-03
   maximum displ.:     0.1806581 α      in ANC's #2, #5, #3, ...

........................................................................
.............................. CYCLE   28 ..............................
........................................................................
   1    -84.7598568 -0.847599E+02  0.705E-02    1.41       0.0  T
   2    -84.7598582 -0.141886E-05  0.398E-02    1.41       1.0  T
   3    -84.7598569  0.129554E-05  0.822E-03    1.41       1.7  T
   4    -84.7598585 -0.154424E-05  0.451E-03    1.41       3.1  T
   5    -84.7598588 -0.388668E-06  0.208E-03    1.41       6.8  T
   6    -84.7598589 -0.772618E-07  0.148E-03    1.41       9.5  T
   7    -84.7598590 -0.280361E-07  0.109E-03    1.41      12.9  T
   8    -84.7598590 -0.172353E-07  0.567E-04    1.41      24.9  T
   9    -84.7598590 -0.694003E-08  0.250E-04    1.41      56.5  T
     SCC iter.                  ...        0 min,  0.301 sec
     gradient                   ...        0 min,  0.045 sec
 * total energy  :   -83.6132153 Eh     change       -0.1070002E-03 Eh
   gradient norm :     0.0041712 Eh/α   predicted    -0.7299103E-04 ( -31.78%)
   displ. norm   :     0.3955051 α      lambda       -0.1413306E-03
   maximum displ.:     0.2148488 α      in ANC's #2, #5, #3, ...

........................................................................
.............................. CYCLE   29 ..............................
........................................................................
   1    -84.7605673 -0.847606E+02  0.793E-02    1.40       0.0  T
   2    -84.7605692 -0.184397E-05  0.447E-02    1.40       1.0  T
   3    -84.7605681  0.112253E-05  0.831E-03    1.40       1.7  T
   4    -84.7605694 -0.128944E-05  0.483E-03    1.40       2.9  T
   5    -84.7605699 -0.510958E-06  0.222E-03    1.40       6.4  T
   6    -84.7605700 -0.112168E-06  0.149E-03    1.40       9.5  T
   7    -84.7605700 -0.281830E-07  0.110E-03    1.40      12.8  T
   8    -84.7605700 -0.176133E-07  0.587E-04    1.40      24.1  T
   9    -84.7605700 -0.696095E-08  0.278E-04    1.40      50.9  T
     SCC iter.                  ...        0 min,  0.302 sec
     gradient                   ...        0 min,  0.043 sec
 * total energy  :   -83.6133302 Eh     change       -0.1148852E-03 Eh
   gradient norm :     0.0047541 Eh/α   predicted    -0.8172470E-04 ( -28.86%)
   displ. norm   :     0.4240062 α      lambda       -0.1338932E-03
   maximum displ.:     0.2343189 α      in ANC's #2, #5, #3, ...

........................................................................
.............................. CYCLE   30 ..............................
........................................................................
   1    -84.7612766 -0.847613E+02  0.813E-02    1.39       0.0  T
   2    -84.7612785 -0.180480E-05  0.459E-02    1.39       1.0  T
   3    -84.7612779  0.592491E-06  0.758E-03    1.39       1.9  T
   4    -84.7612786 -0.706316E-06  0.473E-03    1.39       3.0  T
   5    -84.7612791 -0.528313E-06  0.224E-03    1.39       6.3  T
   6    -84.7612792 -0.126314E-06  0.150E-03    1.39       9.4  T
   7    -84.7612792 -0.247399E-07  0.110E-03    1.39      12.9  T
   8    -84.7612793 -0.207977E-07  0.509E-04    1.39      27.8  T
   9    -84.7612793 -0.478394E-08  0.265E-04    1.39      53.4  T
     SCC iter.                  ...        0 min,  0.302 sec
     gradient                   ...        0 min,  0.049 sec
 * total energy  :   -83.6134398 Eh     change       -0.1096439E-03 Eh
   gradient norm :     0.0042231 Eh/α   predicted    -0.7898556E-04 ( -27.96%)
   displ. norm   :     0.4494195 α      lambda       -0.1277234E-03
   maximum displ.:     0.2526531 α      in ANC's #2, #5, #3, ...

........................................................................
.............................. CYCLE   31 ..............................
........................................................................
   1    -84.7618100 -0.847618E+02  0.825E-02    1.39       0.0  T
   2    -84.7618116 -0.168248E-05  0.467E-02    1.38       1.0  T
   3    -84.7618113  0.356500E-06  0.719E-03    1.39       2.0  T
   4    -84.7618117 -0.393878E-06  0.476E-03    1.39       3.0  T
   5    -84.7618123 -0.610842E-06  0.212E-03    1.38       6.7  T
   6    -84.7618124 -0.980409E-07  0.145E-03    1.39       9.8  T
   7    -84.7618124 -0.151195E-07  0.104E-03    1.39      13.6  T
   8    -84.7618124 -0.234503E-07  0.460E-04    1.39      30.7  T
   9    -84.7618124 -0.355851E-08  0.268E-04    1.39      52.8  T
     SCC iter.                  ...        0 min,  0.302 sec
     gradient                   ...        0 min,  0.047 sec
 * total energy  :   -83.6135454 Eh     change       -0.1055613E-03 Eh
   gradient norm :     0.0030510 Eh/α   predicted    -0.7676327E-04 ( -27.28%)
   displ. norm   :     0.4827773 α      lambda       -0.1265929E-03
   maximum displ.:     0.2754282 α      in ANC's #2, #5, #3, ...

........................................................................
.............................. CYCLE   32 ..............................
........................................................................
   1    -84.7620285 -0.847620E+02  0.854E-02    1.38       0.0  T
   2    -84.7620303 -0.174090E-05  0.484E-02    1.38       1.0  T
   3    -84.7620299  0.380896E-06  0.731E-03    1.38       1.9  T
   4    -84.7620303 -0.376560E-06  0.494E-03    1.38       2.9  T
   5    -84.7620310 -0.701615E-06  0.204E-03    1.38       6.9  T
   6    -84.7620311 -0.771343E-07  0.139E-03    1.38      10.2  T
   7    -84.7620311 -0.118167E-07  0.977E-04    1.38      14.5  T
   8    -84.7620311 -0.201137E-07  0.467E-04    1.38      30.3  T
     SCC iter.                  ...        0 min,  0.271 sec
     gradient                   ...        0 min,  0.052 sec
 * total energy  :   -83.6136518 Eh     change       -0.1064104E-03 Eh
   gradient norm :     0.0026259 Eh/α   predicted    -0.7805227E-04 ( -26.65%)
   displ. norm   :     0.5114580 α      lambda       -0.1307772E-03
   maximum displ.:     0.2951857 α      in ANC's #2, #5, #3, ...

........................................................................
.............................. CYCLE   33 ..............................
........................................................................
   1    -84.7621051 -0.847621E+02  0.875E-02    1.38       0.0  T
   2    -84.7621070 -0.190089E-05  0.495E-02    1.38       1.0  T
   3    -84.7621065  0.509980E-06  0.748E-03    1.38       1.9  T
   4    -84.7621071 -0.543572E-06  0.489E-03    1.38       2.9  T
   5    -84.7621077 -0.671169E-06  0.205E-03    1.38       6.9  T
   6    -84.7621078 -0.955733E-07  0.130E-03    1.38      10.9  T
   7    -84.7621079 -0.130341E-07  0.926E-04    1.38      15.3  T
   8    -84.7621079 -0.131826E-07  0.491E-04    1.38      28.8  T
     SCC iter.                  ...        0 min,  0.362 sec
     gradient                   ...        0 min,  0.059 sec
 * total energy  :   -83.6137625 Eh     change       -0.1106808E-03 Eh
   gradient norm :     0.0032815 Eh/α   predicted    -0.8249982E-04 ( -25.46%)
   displ. norm   :     0.5493247 α      lambda       -0.1349239E-03
   maximum displ.:     0.3194112 α      in ANC's #2, #3, #5, ...

........................................................................
.............................. CYCLE   34 ..............................
........................................................................
   1    -84.7613479 -0.847613E+02  0.935E-02    1.37       0.0  T
   2    -84.7613501 -0.225714E-05  0.529E-02    1.37       1.0  T
   3    -84.7613495  0.665331E-06  0.807E-03    1.37       1.8  T
   4    -84.7613503 -0.843076E-06  0.494E-03    1.37       2.9  T
   5    -84.7613509 -0.620487E-06  0.208E-03    1.37       6.8  T
   6    -84.7613511 -0.114684E-06  0.129E-03    1.37      10.9  T
   7    -84.7613511 -0.161443E-07  0.932E-04    1.37      15.2  T
   8    -84.7613511 -0.123994E-07  0.505E-04    1.37      28.0  T
     SCC iter.                  ...        0 min,  0.364 sec
     gradient                   ...        0 min,  0.054 sec
 * total energy  :   -83.6138744 Eh     change       -0.1119333E-03 Eh
   gradient norm :     0.0037172 Eh/α   predicted    -0.8782048E-04 ( -21.54%)
   displ. norm   :     0.5300288 α      lambda       -0.1398962E-03
   maximum displ.:     0.3074818 α      in ANC's #2, #4, #3, ...

........................................................................
.............................. CYCLE   35 ..............................
........................................................................
   1    -84.7637591 -0.847638E+02  0.837E-02    1.37       0.0  T
   2    -84.7637613 -0.224022E-05  0.473E-02    1.37       1.0  T
   3    -84.7637607  0.607283E-06  0.730E-03    1.37       1.9  T
   4    -84.7637617 -0.922970E-06  0.402E-03    1.37       3.5  T
   5    -84.7637620 -0.342674E-06  0.168E-03    1.37       8.4  T
   6    -84.7637621 -0.842696E-07  0.750E-04    1.37      18.8  T
   7    -84.7637621 -0.620629E-08  0.518E-04    1.37      27.3  T
     SCC iter.                  ...        0 min,  0.316 sec
     gradient                   ...        0 min,  0.061 sec
 * total energy  :   -83.6139635 Eh     change       -0.8914690E-04 Eh
   gradient norm :     0.0047398 Eh/α   predicted    -0.8960302E-04 (   0.51%)
   displ. norm   :     0.6279562 α      lambda       -0.1541435E-03
   maximum displ.:     0.3675064 α      in ANC's #2, #3, #4, ...

........................................................................
.............................. CYCLE   36 ..............................
........................................................................
   1    -84.7569845 -0.847570E+02  0.120E-01    1.36       0.0  T
   2    -84.7569892 -0.476265E-05  0.682E-02    1.36       1.0  T
   3    -84.7569801  0.916539E-05  0.169E-02    1.36       1.0  T
   4    -84.7569913 -0.112689E-04  0.667E-03    1.36       2.1  T
   5    -84.7569916 -0.272330E-06  0.316E-03    1.36       4.5  T
   6    -84.7569919 -0.299274E-06  0.191E-03    1.36       7.4  T
   7    -84.7569919 -0.445212E-07  0.140E-03    1.36      10.1  T
   8    -84.7569920 -0.241554E-07  0.753E-04    1.36      18.8  T
   9    -84.7569920 -0.134769E-07  0.427E-04    1.36      33.2  T
     SCC iter.                  ...        0 min,  0.403 sec
     gradient                   ...        0 min,  0.064 sec
 * total energy  :   -83.6140075 Eh     change       -0.4394468E-04 Eh
   gradient norm :     0.0065936 Eh/α   predicted    -0.1074650E-03 ( 144.55%)
   displ. norm   :     0.0884533 α      lambda       -0.9814073E-04
   maximum displ.:     0.0453039 α      in ANC's #5, #3, #8, ...

........................................................................
.............................. CYCLE   37 ..............................
........................................................................
   1    -84.7614223 -0.847614E+02  0.241E-02    1.36       0.0  T
   2    -84.7614227 -0.407043E-06  0.139E-02    1.36       1.0  T
   3    -84.7614217  0.975140E-06  0.521E-03    1.36       2.7  T
   4    -84.7614229 -0.119370E-05  0.139E-03    1.36      10.2  T
   5    -84.7614229 -0.176564E-07  0.740E-04    1.36      19.1  T
   6    -84.7614230 -0.756948E-08  0.469E-04    1.36      30.1  T
     SCC iter.                  ...        0 min,  0.272 sec
     gradient                   ...        0 min,  0.057 sec
 * total energy  :   -83.6140709 Eh     change       -0.6336398E-04 Eh
   gradient norm :     0.0029137 Eh/α   predicted    -0.4945560E-04 ( -21.95%)
   displ. norm   :     0.3134994 α      lambda       -0.6757419E-04
   maximum displ.:     0.1817040 α      in ANC's #2, #4, #3, ...

........................................................................
.............................. CYCLE   38 ..............................
........................................................................
   1    -84.7623394 -0.847623E+02  0.517E-02    1.36       0.0  T
   2    -84.7623405 -0.109452E-05  0.292E-02    1.36       1.0  T
   3    -84.7623398  0.607118E-06  0.559E-03    1.36       2.5  T
   4    -84.7623406 -0.770284E-06  0.286E-03    1.36       5.0  T
   5    -84.7623408 -0.151798E-06  0.128E-03    1.36      11.0  T
   6    -84.7623408 -0.463054E-07  0.627E-04    1.36      22.6  T
   7    -84.7623408 -0.579992E-08  0.462E-04    1.36      30.6  T
     SCC iter.                  ...        0 min,  0.344 sec
     gradient                   ...        0 min,  0.061 sec
 * total energy  :   -83.6141165 Eh     change       -0.4568711E-04 Eh
   gradient norm :     0.0022160 Eh/α   predicted    -0.3710883E-04 ( -18.78%)
   displ. norm   :     0.3279642 α      lambda       -0.6573345E-04
   maximum displ.:     0.1914899 α      in ANC's #2, #4, #7, ...

........................................................................
.............................. CYCLE   39 ..............................
........................................................................
   1    -84.7630380 -0.847630E+02  0.598E-02    1.35       0.0  T
   2    -84.7630392 -0.114616E-05  0.338E-02    1.35       1.0  T
   3    -84.7630381  0.110057E-05  0.674E-03    1.35       2.1  T
   4    -84.7630394 -0.130743E-05  0.346E-03    1.35       4.1  T
   5    -84.7630396 -0.230439E-06  0.156E-03    1.35       9.1  T
   6    -84.7630397 -0.501134E-07  0.964E-04    1.35      14.7  T
   7    -84.7630397 -0.121370E-07  0.697E-04    1.35      20.3  T
     SCC iter.                  ...        0 min,  0.316 sec
     gradient                   ...        0 min,  0.055 sec
 * total energy  :   -83.6141601 Eh     change       -0.4352220E-04 Eh
   gradient norm :     0.0024257 Eh/α   predicted    -0.3640330E-04 ( -16.36%)
   displ. norm   :     0.3615679 α      lambda       -0.3956915E-04
   maximum displ.:     0.2181054 α      in ANC's #2, #4, #3, ...

........................................................................
.............................. CYCLE   40 ..............................
........................................................................
   1    -84.7610298 -0.847610E+02  0.640E-02    1.35       0.0  T
   2    -84.7610311 -0.129737E-05  0.361E-02    1.35       1.0  T
   3    -84.7610298  0.129658E-05  0.739E-03    1.35       1.9  T
   4    -84.7610314 -0.159575E-05  0.383E-03    1.35       3.7  T
   5    -84.7610317 -0.259835E-06  0.161E-03    1.35       8.8  T
   6    -84.7610317 -0.439034E-07  0.110E-03    1.35      12.9  T
   7    -84.7610317 -0.119339E-07  0.829E-04    1.35      17.1  T
   8    -84.7610317 -0.108377E-07  0.394E-04    1.35      35.9  T
     SCC iter.                  ...        0 min,  0.360 sec
     gradient                   ...        0 min,  0.057 sec
 * total energy  :   -83.6141845 Eh     change       -0.2445101E-04 Eh
   gradient norm :     0.0026126 Eh/α   predicted    -0.2237375E-04 (  -8.50%)
   displ. norm   :     0.1390691 α      lambda       -0.2696574E-04
   maximum displ.:     0.0805240 α      in ANC's #2, #4, #7, ...

........................................................................
.............................. CYCLE   41 ..............................
........................................................................
   1    -84.7614625 -0.847615E+02  0.265E-02    1.34       0.0  T
   2    -84.7614628 -0.251428E-06  0.150E-02    1.34       1.0  T
   3    -84.7614626  0.185648E-06  0.299E-03    1.34       4.7  T
   4    -84.7614628 -0.249495E-06  0.171E-03    1.34       8.3  T
   5    -84.7614629 -0.519179E-07  0.917E-04    1.34      15.4  T
   6    -84.7614629 -0.122209E-07  0.648E-04    1.34      21.8  T
     SCC iter.                  ...        0 min,  0.273 sec
     gradient                   ...        0 min,  0.051 sec
 * total energy  :   -83.6142040 Eh     change       -0.1951780E-04 Eh
   gradient norm :     0.0021745 Eh/α   predicted    -0.1374609E-04 ( -29.57%)
   displ. norm   :     0.1618778 α      lambda       -0.2855732E-04
   maximum displ.:     0.0996233 α      in ANC's #2, #4, #6, ...

........................................................................
.............................. CYCLE   42 ..............................
........................................................................
   1    -84.7618965 -0.847619E+02  0.305E-02    1.34       0.0  T
   2    -84.7618969 -0.410616E-06  0.174E-02    1.34       1.0  T
   3    -84.7618964  0.424439E-06  0.426E-03    1.34       3.3  T
   4    -84.7618970 -0.553356E-06  0.258E-03    1.34       5.5  T
   5    -84.7618971 -0.129458E-06  0.160E-03    1.34       8.9  T
   6    -84.7618972 -0.336002E-07  0.111E-03    1.34      12.7  T
   7    -84.7618972 -0.134626E-07  0.714E-04    1.34      19.8  T
   8    -84.7618972 -0.985911E-08  0.276E-04    1.34      51.3  T
     SCC iter.                  ...        0 min,  0.268 sec
     gradient                   ...        0 min,  0.051 sec
 * total energy  :   -83.6142245 Eh     change       -0.2046581E-04 Eh
   gradient norm :     0.0021849 Eh/α   predicted    -0.1465706E-04 ( -28.38%)
   displ. norm   :     0.1877912 α      lambda       -0.2713596E-04
   maximum displ.:     0.1190550 α      in ANC's #2, #6, #4, ...
 * RMSD in coord.:     0.9027110 α      energy gain  -0.1744858E-02 Eh

generating ANC from model Hessian ...
Using Lindh-Hessian (1995)
 Shifting diagonal of input Hessian by    1.0087352118982290E-002
 Lowest  eigenvalues of input Hessian
    0.010000    0.000000    0.000000    0.000000    0.000000    0.000000
    0.000000    0.010152    0.010310    0.010479    0.010635    0.010769
    0.011483    0.011720    0.011973    0.012663    0.012937    0.013341
 Highest eigenvalues
    1.904854    1.934986    1.959013    2.012888    2.101623    2.187208


........................................................................
.............................. CYCLE   43 ..............................
........................................................................
   1    -84.7619211 -0.847619E+02  0.352E-02    1.34       0.0  T
   2    -84.7619216 -0.469024E-06  0.201E-02    1.34       1.0  T
   3    -84.7619210  0.568836E-06  0.442E-03    1.34       3.2  T
   4    -84.7619216 -0.667137E-06  0.246E-03    1.34       5.8  T
   5    -84.7619218 -0.134156E-06  0.140E-03    1.34      10.1  T
   6    -84.7619218 -0.299977E-07  0.926E-04    1.34      15.3  T
   7    -84.7619218 -0.863788E-08  0.644E-04    1.34      22.0  T
     SCC iter.                  ...        0 min,  0.236 sec
     gradient                   ...        0 min,  0.047 sec
 * total energy  :   -83.6142426 Eh     change       -0.1805881E-04 Eh
   gradient norm :     0.0026560 Eh/α   predicted     0.0000000E+00 (-100.00%)
   displ. norm   :     0.0250731 α      lambda       -0.1488598E-04
   maximum displ.:     0.0117887 α      in ANC's #8, #5, #2, ...

........................................................................
.............................. CYCLE   44 ..............................
........................................................................
   1    -84.7623290 -0.847623E+02  0.929E-03    1.34       0.0  T
   2    -84.7623291 -0.693184E-07  0.536E-03    1.34       2.6  T
   3    -84.7623290  0.618599E-07  0.202E-03    1.34       7.0  T
   4    -84.7623291 -0.112006E-06  0.111E-03    1.34      12.8  T
   5    -84.7623291 -0.126107E-07  0.778E-04    1.34      18.2  T
   6    -84.7623291 -0.686873E-08  0.538E-04    1.34      26.3  T
     SCC iter.                  ...        0 min,  0.278 sec
     gradient                   ...        0 min,  0.056 sec
 * total energy  :   -83.6142556 Eh     change       -0.1303660E-04 Eh
   gradient norm :     0.0013387 Eh/α   predicted    -0.8509881E-05 ( -34.72%)
   displ. norm   :     0.0856175 α      lambda       -0.1944128E-04
   maximum displ.:     0.0445367 α      in ANC's #8, #2, #5, ...

........................................................................
.............................. CYCLE   45 ..............................
........................................................................
   1    -84.7628602 -0.847629E+02  0.245E-02    1.34       0.0  T
   2    -84.7628607 -0.419680E-06  0.140E-02    1.34       1.0  T
   3    -84.7628601  0.536468E-06  0.486E-03    1.34       2.9  T
   4    -84.7628609 -0.777614E-06  0.238E-03    1.34       6.0  T
   5    -84.7628610 -0.676876E-07  0.162E-03    1.34       8.7  T
   6    -84.7628610 -0.269944E-07  0.117E-03    1.34      12.0  T
   7    -84.7628610 -0.165002E-07  0.769E-04    1.34      18.4  T
   8    -84.7628610 -0.148351E-07  0.283E-04    1.34      50.0  T
     SCC iter.                  ...        0 min,  0.364 sec
     gradient                   ...        0 min,  0.057 sec
 * total energy  :   -83.6142698 Eh     change       -0.1423376E-04 Eh
   gradient norm :     0.0018761 Eh/α   predicted    -0.9752466E-05 ( -31.48%)
   displ. norm   :     0.0472324 α      lambda       -0.7737262E-05
   maximum displ.:     0.0215456 α      in ANC's #5, #8, #2, ...

........................................................................
.............................. CYCLE   46 ..............................
........................................................................
   1    -84.7626325 -0.847626E+02  0.980E-03    1.34       0.0  T
   2    -84.7626326 -0.475907E-07  0.569E-03    1.34       2.5  T
   3    -84.7626325  0.467735E-07  0.151E-03    1.34       9.4  T
   4    -84.7626326 -0.685700E-07  0.869E-04    1.34      16.3  T
   5    -84.7626326 -0.114018E-07  0.603E-04    1.34      23.4  T
     SCC iter.                  ...        0 min,  0.237 sec
     gradient                   ...        0 min,  0.053 sec
 * total energy  :   -83.6142790 Eh     change       -0.9191779E-05 Eh
   gradient norm :     0.0015702 Eh/α   predicted    -0.3872643E-05 ( -57.87%)
   displ. norm   :     0.1512127 α      lambda       -0.2113035E-04
   maximum displ.:     0.0721758 α      in ANC's #2, #8, #5, ...

........................................................................
.............................. CYCLE   47 ..............................
........................................................................
   1    -84.7618532 -0.847619E+02  0.317E-02    1.34       0.0  T
   2    -84.7618536 -0.454710E-06  0.184E-02    1.35       1.0  T
   3    -84.7618535  0.151412E-06  0.393E-03    1.35       3.6  T
   4    -84.7618539 -0.373011E-06  0.251E-03    1.35       5.6  T
   5    -84.7618539 -0.708579E-07  0.181E-03    1.35       7.8  T
   6    -84.7618540 -0.495436E-07  0.122E-03    1.35      11.6  T
   7    -84.7618540 -0.159645E-07  0.740E-04    1.35      19.1  T
   8    -84.7618540 -0.132395E-07  0.250E-04    1.35      56.6  T
     SCC iter.                  ...        0 min,  0.370 sec
     gradient                   ...        0 min,  0.053 sec
 * total energy  :   -83.6142968 Eh     change       -0.1775123E-04 Eh
   gradient norm :     0.0014798 Eh/α   predicted    -0.1067288E-04 ( -39.88%)
   displ. norm   :     0.1077239 α      lambda       -0.1008717E-04
   maximum displ.:     0.0524562 α      in ANC's #2, #5, #8, ...

........................................................................
.............................. CYCLE   48 ..............................
........................................................................
   1    -84.7619534 -0.847620E+02  0.221E-02    1.35       0.0  T
   2    -84.7619535 -0.144587E-06  0.129E-02    1.35       1.1  T
   3    -84.7619535 -0.133644E-07  0.246E-03    1.35       5.7  T
   4    -84.7619536 -0.104994E-06  0.176E-03    1.35       8.0  T
   5    -84.7619537 -0.390816E-07  0.115E-03    1.35      12.3  T
   6    -84.7619537 -0.140713E-07  0.841E-04    1.35      16.8  T
   7    -84.7619537 -0.113668E-07  0.331E-04    1.35      42.7  T
     SCC iter.                  ...        0 min,  0.324 sec
     gradient                   ...        0 min,  0.052 sec
 * total energy  :   -83.6143079 Eh     change       -0.1112797E-04 Eh
   gradient norm :     0.0011899 Eh/α   predicted    -0.5070519E-05 ( -54.43%)
   displ. norm   :     0.1341876 α      lambda       -0.1073110E-04
   maximum displ.:     0.0731449 α      in ANC's #2, #5, #12, ...

........................................................................
.............................. CYCLE   49 ..............................
........................................................................
   1    -84.7623470 -0.847623E+02  0.262E-02    1.35       0.0  T
   2    -84.7623472 -0.199803E-06  0.153E-02    1.35       1.0  T
   3    -84.7623469  0.285689E-06  0.376E-03    1.35       3.8  T
   4    -84.7623474 -0.469152E-06  0.215E-03    1.35       6.6  T
   5    -84.7623474 -0.520541E-07  0.138E-03    1.35      10.2  T
   6    -84.7623475 -0.209325E-07  0.102E-03    1.35      13.8  T
   7    -84.7623475 -0.165462E-07  0.425E-04    1.35      33.3  T
   8    -84.7623475 -0.526066E-08  0.172E-04    1.35      82.4  T
     SCC iter.                  ...        0 min,  0.370 sec
     gradient                   ...        0 min,  0.057 sec
 * total energy  :   -83.6143199 Eh     change       -0.1198730E-04 Eh
   gradient norm :     0.0007212 Eh/α   predicted    -0.5410532E-05 ( -54.86%)
   displ. norm   :     0.1194216 α      lambda       -0.8693160E-05
   maximum displ.:     0.0698140 α      in ANC's #2, #5, #4, ...

........................................................................
.............................. CYCLE   50 ..............................
........................................................................
   1    -84.7626952 -0.847627E+02  0.227E-02    1.35       0.0  T
   2    -84.7626954 -0.160458E-06  0.133E-02    1.35       1.1  T
   3    -84.7626952  0.163028E-06  0.304E-03    1.35       4.7  T
   4    -84.7626955 -0.286864E-06  0.186E-03    1.35       7.6  T
   5    -84.7626955 -0.463347E-07  0.121E-03    1.35      11.7  T
   6    -84.7626955 -0.174201E-07  0.874E-04    1.35      16.2  T
   7    -84.7626956 -0.115865E-07  0.387E-04    1.35      36.5  T
     SCC iter.                  ...        0 min,  0.324 sec
     gradient                   ...        0 min,  0.058 sec
 * total energy  :   -83.6143302 Eh     change       -0.1026746E-04 Eh
   gradient norm :     0.0007507 Eh/α   predicted    -0.4376640E-05 ( -57.37%)
   displ. norm   :     0.1308395 α      lambda       -0.9249961E-05
   maximum displ.:     0.0772225 α      in ANC's #2, #5, #4, ...

........................................................................
.............................. CYCLE   51 ..............................
........................................................................
   1    -84.7629437 -0.847629E+02  0.234E-02    1.35       0.0  T
   2    -84.7629439 -0.175115E-06  0.136E-02    1.35       1.0  T
   3    -84.7629437  0.118553E-06  0.301E-03    1.35       4.7  T
   4    -84.7629440 -0.228267E-06  0.196E-03    1.35       7.2  T
   5    -84.7629440 -0.640865E-07  0.116E-03    1.35      12.2  T
   6    -84.7629441 -0.119379E-07  0.865E-04    1.35      16.4  T
   7    -84.7629441 -0.108913E-07  0.401E-04    1.35      35.3  T
     SCC iter.                  ...        0 min,  0.324 sec
     gradient                   ...        0 min,  0.055 sec
 * total energy  :   -83.6143417 Eh     change       -0.1159344E-04 Eh
   gradient norm :     0.0009125 Eh/α   predicted    -0.4661075E-05 ( -59.80%)
   displ. norm   :     0.1995261 α      lambda       -0.1371557E-04
   maximum displ.:     0.1156648 α      in ANC's #2, #5, #4, ...

........................................................................
.............................. CYCLE   52 ..............................
........................................................................
   1    -84.7628925 -0.847629E+02  0.348E-02    1.35       0.0  T
   2    -84.7628928 -0.334507E-06  0.203E-02    1.35       1.0  T
   3    -84.7628930 -0.109254E-06  0.330E-03    1.35       4.3  T
   4    -84.7628930 -0.532327E-07  0.261E-03    1.35       5.4  T
   5    -84.7628932 -0.143831E-06  0.154E-03    1.35       9.2  T
   6    -84.7628932 -0.211343E-07  0.110E-03    1.35      12.8  T
   7    -84.7628932 -0.201050E-07  0.463E-04    1.35      30.5  T
   8    -84.7628932 -0.631252E-08  0.165E-04    1.35      85.8  T
     SCC iter.                  ...        0 min,  0.371 sec
     gradient                   ...        0 min,  0.066 sec
 * total energy  :   -83.6143592 Eh     change       -0.1745511E-04 Eh
   gradient norm :     0.0010278 Eh/α   predicted    -0.6981575E-05 ( -60.00%)
   displ. norm   :     0.3203001 α      lambda       -0.2085098E-04
   maximum displ.:     0.1849184 α      in ANC's #2, #5, #4, ...

........................................................................
.............................. CYCLE   53 ..............................
........................................................................
   1    -84.7623774 -0.847624E+02  0.545E-02    1.35       0.0  T
   2    -84.7623782 -0.777857E-06  0.317E-02    1.35       1.0  T
   3    -84.7623785 -0.316135E-06  0.477E-03    1.35       3.0  T
   4    -84.7623785 -0.170683E-07  0.375E-03    1.35       3.8  T
   5    -84.7623788 -0.312758E-06  0.218E-03    1.35       6.5  T
   6    -84.7623789 -0.391541E-07  0.159E-03    1.35       8.9  T
   7    -84.7623789 -0.444654E-07  0.631E-04    1.35      22.4  T
   8    -84.7623789 -0.975157E-08  0.273E-04    1.35      51.7  T
     SCC iter.                  ...        0 min,  0.368 sec
     gradient                   ...        0 min,  0.055 sec
 * total energy  :   -83.6143835 Eh     change       -0.2434840E-04 Eh
   gradient norm :     0.0013958 Eh/α   predicted    -0.1090528E-04 ( -55.21%)
   displ. norm   :     0.3481530 α      lambda       -0.2134373E-04
   maximum displ.:     0.2031493 α      in ANC's #2, #4, #1, ...

........................................................................
.............................. CYCLE   54 ..............................
........................................................................
   1    -84.7620487 -0.847620E+02  0.586E-02    1.35       0.0  T
   2    -84.7620496 -0.824294E-06  0.340E-02    1.35       1.0  T
   3    -84.7620498 -0.193814E-06  0.504E-03    1.35       2.8  T
   4    -84.7620499 -0.128841E-06  0.383E-03    1.35       3.7  T
   5    -84.7620502 -0.313611E-06  0.213E-03    1.35       6.6  T
   6    -84.7620502 -0.391784E-07  0.160E-03    1.35       8.8  T
   7    -84.7620503 -0.432350E-07  0.609E-04    1.35      23.2  T
   8    -84.7620503 -0.643792E-08  0.298E-04    1.35      47.5  T
     SCC iter.                  ...        0 min,  0.368 sec
     gradient                   ...        0 min,  0.060 sec
 * total energy  :   -83.6144057 Eh     change       -0.2215895E-04 Eh
   gradient norm :     0.0015108 Eh/α   predicted    -0.1125146E-04 ( -49.22%)
   displ. norm   :     0.2468899 α      lambda       -0.1417051E-04
   maximum displ.:     0.1473310 α      in ANC's #2, #4, #1, ...

........................................................................
.............................. CYCLE   55 ..............................
........................................................................
   1    -84.7620862 -0.847621E+02  0.403E-02    1.35       0.0  T
   2    -84.7620866 -0.425849E-06  0.232E-02    1.35       1.0  T
   3    -84.7620865  0.359102E-07  0.367E-03    1.35       3.8  T
   4    -84.7620867 -0.179430E-06  0.255E-03    1.35       5.6  T
   5    -84.7620869 -0.127480E-06  0.146E-03    1.35       9.7  T
   6    -84.7620869 -0.270665E-07  0.107E-03    1.35      13.2  T
   7    -84.7620869 -0.143027E-07  0.539E-04    1.35      26.2  T
   8    -84.7620869 -0.581043E-08  0.224E-04    1.35      63.1  T
     SCC iter.                  ...        0 min,  0.370 sec
     gradient                   ...        0 min,  0.070 sec
 * total energy  :   -83.6144216 Eh     change       -0.1591275E-04 Eh
   gradient norm :     0.0011935 Eh/α   predicted    -0.7280170E-05 ( -54.25%)
   displ. norm   :     0.2591078 α      lambda       -0.1577097E-04
   maximum displ.:     0.1582830 α      in ANC's #2, #4, #1, ...

........................................................................
.............................. CYCLE   56 ..............................
........................................................................
   1    -84.7624636 -0.847625E+02  0.417E-02    1.35       0.0  T
   2    -84.7624641 -0.505828E-06  0.241E-02    1.35       1.0  T
   3    -84.7624638  0.286814E-06  0.443E-03    1.35       3.2  T
   4    -84.7624643 -0.492707E-06  0.272E-03    1.35       5.2  T
   5    -84.7624644 -0.123242E-06  0.163E-03    1.35       8.7  T
   6    -84.7624644 -0.343164E-07  0.117E-03    1.35      12.1  T
   7    -84.7624644 -0.154962E-07  0.642E-04    1.35      22.0  T
   8    -84.7624645 -0.743009E-08  0.298E-04    1.35      47.5  T
[...]
          :  # basis functions                 170          :
          :  # atomic orbitals                 165          :
          :  # shells                           85          :
          :  # electrons                       154          :
          :  max. iterations                   250          :
          :  Hamiltonian                  GFN2-xTB          :
          :  restarted?                      false          :
          :  GBSA solvation                  false          :
          :  PC potential                    false          :
          :  electronic temp.          300.0000000     K    :
          :  accuracy                    1.0000000          :
          :  -> integral cutoff          0.2500000E+02      :
          :  -> integral neglect         0.1000000E-07      :
          :  -> SCF convergence          0.1000000E-05 Eh   :
          :  -> wf. convergence          0.1000000E-03 e    :
          :  Broyden damping             0.4000000          :
          ...................................................

 iter      E             dE          RMSdq      gap      omega  full diag
   1    -84.7632638 -0.847633E+02  0.319E-04    1.37       0.0  T
   2    -84.7632638 -0.497693E-09  0.261E-04    1.37      54.2  T
   3    -84.7632638 -0.646878E-09  0.214E-04    1.37      66.0  T

   *** convergence criteria satisfied after 3 iterations ***

         #    Occupation            Energy/Eh            Energy/eV
      -------------------------------------------------------------
         1        2.0000           -1.0203360             -27.7648
       ...           ...                  ...                  ...
        71        2.0000           -0.3995085             -10.8712
        72        2.0000           -0.3973267             -10.8118
        73        2.0000           -0.3973257             -10.8118
        74        2.0000           -0.3893613             -10.5951
        75        2.0000           -0.3860246             -10.5043
        76        2.0000           -0.3785344             -10.3004
        77        2.0000           -0.3569522              -9.7132 (HOMO)
        78                         -0.3066800              -8.3452 (LUMO)
        79                         -0.2735241              -7.4430
        80                         -0.2504076              -6.8139
        81                         -0.2273807              -6.1873
        82                         -0.2190456              -5.9605
       ...                                ...                  ...
       165                          0.7275020              19.7963
      -------------------------------------------------------------
                  HL-Gap            0.0502722 Eh            1.3680 eV
             Fermi-level           -0.3318161 Eh           -9.0292 eV

 SCC (total)                   0 d,  0 h,  0 min,  0.237 sec
 SCC setup                      ...        0 min,  0.007 sec (  2.801%)
 Dispersion                     ...        0 min,  0.002 sec (  0.870%)
 classical contributions        ...        0 min,  0.000 sec (  0.184%)
 integral evaluation            ...        0 min,  0.022 sec (  9.506%)
 iterations                     ...        0 min,  0.148 sec ( 62.350%)
 molecular gradient             ...        0 min,  0.055 sec ( 23.086%)
 printout                       ...        0 min,  0.003 sec (  1.117%)

         :::::::::::::::::::::::::::::::::::::::::::::::::::::
         ::                     SUMMARY                     ::
         :::::::::::::::::::::::::::::::::::::::::::::::::::::
         :: total energy             -83.614542227393 Eh    ::
         :: gradient norm              0.000300238508 Eh/a0 ::
         :: HOMO-LUMO gap              1.367976539353 eV    ::
         ::.................................................::
         :: SCC energy               -84.763263762236 Eh    ::
         :: -> isotropic ES            0.047171924277 Eh    ::
         :: -> anisotropic ES          0.000630793258 Eh    ::
         :: -> anisotropic XC          0.038704199471 Eh    ::
         :: -> dispersion             -0.067022040552 Eh    ::
         :: repulsion energy           1.149372009061 Eh    ::
         :: add. restraining           0.000000000000 Eh    ::
         :: total charge               0.000000000000 e     ::
         :::::::::::::::::::::::::::::::::::::::::::::::::::::

           -------------------------------------------------
          |                Property Printout                |
           -------------------------------------------------

    * Orbital Energies and Occupations

         #    Occupation            Energy/Eh            Energy/eV
      -------------------------------------------------------------
         1        2.0000           -1.0203360             -27.7648
       ...           ...                  ...                  ...
        65        2.0000           -0.4251621             -11.5692
        66        2.0000           -0.4115385             -11.1985
        67        2.0000           -0.4107795             -11.1779
        68        2.0000           -0.4098015             -11.1513
        69        2.0000           -0.4081413             -11.1061
        70        2.0000           -0.4021341             -10.9426
        71        2.0000           -0.3995085             -10.8712
        72        2.0000           -0.3973267             -10.8118
        73        2.0000           -0.3973257             -10.8118
        74        2.0000           -0.3893613             -10.5951
        75        2.0000           -0.3860246             -10.5043
        76        2.0000           -0.3785344             -10.3004
        77        2.0000           -0.3569522              -9.7132 (HOMO)
        78                         -0.3066800              -8.3452 (LUMO)
        79                         -0.2735241              -7.4430
        80                         -0.2504076              -6.8139
        81                         -0.2273807              -6.1873
        82                         -0.2190456              -5.9605
        83                         -0.2167761              -5.8988
        84                         -0.2113476              -5.7511
        85                         -0.1976069              -5.3772
        86                         -0.1958134              -5.3284
        87                         -0.1879909              -5.1155
        88                         -0.1738996              -4.7320
       ...                                ...                  ...
       165                          0.7275020              19.7963
      -------------------------------------------------------------
                  HL-Gap            0.0502722 Eh            1.3680 eV
             Fermi-level           -0.3318161 Eh           -9.0292 eV

     #   Z          covCN         q      C6AA      α(0)
     1   7 N        2.666    -0.309    27.947     7.851
     2   6 C        3.733     0.003    20.625     6.482
     3   6 C        3.825    -0.068    21.778     6.640
     4   6 C        2.987     0.017    27.628     8.622
     5   6 C        3.108    -0.053    29.173     8.849
     6   6 C        3.105    -0.052    29.146     8.846
     7   6 C        3.023     0.021    27.507     8.603
     8   6 C        3.016     0.017    27.619     8.621
     9   6 C        3.110    -0.060    29.346     8.875
    10   6 C        3.127    -0.000    27.835     8.638
    11   6 C        3.755    -0.103    22.530     6.768
    12   6 C        2.995     0.012    27.728     8.638
    13   6 C        3.001    -0.004    28.111     8.697
    14   6 C        2.923    -0.045    29.129     8.851
    15   6 C        2.923    -0.044    29.100     8.846
    16   6 C        2.997    -0.004    28.100     8.696
    17   6 C        2.997     0.010    27.787     8.647
    18   6 C        3.140    -0.003    27.856     8.637
    19   6 C        3.755    -0.103    22.516     6.766
    20   6 C        3.119    -0.054    29.170     8.846
    21   6 C        2.934    -0.023    28.584     8.768
    22  16 S        2.336    -0.014   141.631    20.030
    23   6 C        3.353     0.072    23.717     7.666
    24   7 N        1.863    -0.261    27.630     7.791
    25  16 S        2.670     0.330   128.326    19.066
    26   7 N        1.886    -0.260    27.623     7.791
    27   6 C        3.352     0.072    23.736     7.672
    28  16 S        2.383    -0.025   142.106    20.064
    29  16 S        2.352    -0.051   143.187    20.140
    30  17 Cl       0.839    -0.466   114.457    16.367
    31   1 H        0.876     0.331     0.625     1.238
    32   1 H        0.860     0.166     1.294     1.782
    33   1 H        0.860     0.167     1.289     1.778
    34   1 H        0.924     0.057     2.239     2.340
    35   1 H        0.924     0.061     2.189     2.314
    36   1 H        0.924     0.047     2.356     2.401
    37   1 H        0.924     0.044     2.391     2.418
    38   1 H        0.926     0.037     2.491     2.468
    39   1 H        0.926     0.046     2.373     2.409
    40   1 H        0.926     0.041     2.433     2.439
    41   1 H        0.925     0.049     2.335     2.390
    42   1 H        0.925     0.047     2.359     2.402
    43   1 H        0.924     0.047     2.360     2.402
    44   1 H        0.926     0.046     2.371     2.408
    45   1 H        0.926     0.045     2.386     2.416
    46   1 H        0.925     0.045     2.386     2.416
    47   1 H        0.924     0.045     2.380     2.412
    48   1 H        0.925     0.047     2.353     2.399
    49   1 H        0.926     0.036     2.499     2.472
    50   1 H        0.926     0.045     2.377     2.411

 Mol. C6AA /au·bohr⁶  :      46741.777650
 Mol. C8AA /au·bohr⁸  :    1402470.231117
 Mol. α(0) /au        :        346.488661


Wiberg/Mayer (AO) data.
largest (>0.10) Wiberg bond orders for each atom

 ---------------------------------------------------------------------------
     #   Z sym  total        # sym  WBO       # sym  WBO       # sym  WBO
 ---------------------------------------------------------------------------
     1   7 N    3.223 --     2 C    1.014    32 H    0.958    33 H    0.958
                            31 H    0.181
     2   6 C    3.970 --     1 N    1.014     3 C    0.977    34 H    0.974
                            35 H    0.973
     3   6 C    3.996 --     4 C    1.026     2 C    0.977    37 H    0.970
                            36 H    0.967
     4   6 C    3.925 --     5 C    1.574    29 S    1.154     3 C    1.026
     5   6 C    3.984 --     4 C    1.574     6 C    1.299    38 H    0.964
     6   6 C    3.970 --     7 C    1.509     5 C    1.299    39 H    0.961
     7   6 C    3.948 --     6 C    1.509     8 C    1.162    29 S    1.115
     8   6 C    3.934 --     9 C    1.473     7 C    1.162    28 S    1.138
     9   6 C    3.978 --     8 C    1.473    10 C    1.319    40 H    0.961
    10   6 C    3.952 --    12 C    1.447     9 C    1.319    11 C    1.024
    11   6 C    3.995 --    10 C    1.024    41 H    0.981    42 H    0.975
                            43 H    0.966
    12   6 C    3.933 --    10 C    1.447    13 C    1.141    28 S    1.129
    13   6 C    3.953 --    14 C    1.435    27 C    1.187    12 C    1.141
    14   6 C    3.977 --    13 C    1.435    15 C    1.359    44 H    0.964
    15   6 C    3.989 --    16 C    1.444    14 C    1.359    45 H    0.965
    16   6 C    3.944 --    15 C    1.444    23 C    1.192    17 C    1.122
    17   6 C    3.946 --    18 C    1.489    22 S    1.131    16 C    1.122
    18   6 C    3.952 --    17 C    1.489    20 C    1.275    19 C    1.024
    19   6 C    3.996 --    18 C    1.024    48 H    0.980    46 H    0.977
                            47 H    0.966
    20   6 C    3.983 --    21 C    1.601    18 C    1.275    49 H    0.965
    21   6 C    3.930 --    20 C    1.601    22 S    1.212    50 H    0.970
    22  16 S    2.643 --    21 C    1.212    17 C    1.131
    23   6 C    3.973 --    24 N    1.392    16 C    1.192    27 C    1.171
    24   7 N    3.098 --    25 S    1.424    23 C    1.392    26 N    0.163
    25  16 S    3.171 --    24 N    1.424    26 N    1.414
    26   7 N    3.112 --    25 S    1.414    27 C    1.396    24 N    0.163
    27   6 C    3.971 --    26 N    1.396    13 C    1.187    23 C    1.171
    28  16 S    2.630 --     8 C    1.138    12 C    1.129
    29  16 S    2.566 --     4 C    1.154     7 C    1.115
    30  17 Cl   0.783 --    31 H    0.706
    31   1 H    0.890 --    30 Cl   0.706     1 N    0.181
    32   1 H    0.972 --     1 N    0.958
    33   1 H    0.972 --     1 N    0.958
    34   1 H    0.997 --     2 C    0.974
    35   1 H    0.996 --     2 C    0.973
    36   1 H    0.996 --     3 C    0.967
    37   1 H    0.998 --     3 C    0.970
    38   1 H    0.998 --     5 C    0.964
    39   1 H    0.998 --     6 C    0.961
    40   1 H    0.998 --     9 C    0.961
    41   1 H    0.997 --    11 C    0.981
    42   1 H    0.997 --    11 C    0.975
    43   1 H    0.996 --    11 C    0.966
    44   1 H    0.996 --    14 C    0.964
    45   1 H    0.996 --    15 C    0.965
    46   1 H    0.997 --    19 C    0.977
    47   1 H    0.996 --    19 C    0.966
    48   1 H    0.997 --    19 C    0.980
    49   1 H    0.998 --    20 C    0.965
    50   1 H    0.997 --    21 C    0.970
 ---------------------------------------------------------------------------

Topologies differ in total number of bonds
Writing topology from bond orders to xtbtopo.mol

molecular dipole:
                 x           y           z       tot (Debye)
 q only:        1.224       1.049       0.369
   full:        1.240       0.610       0.337       3.616
molecular quadrupole (traceless):
                xx          xy          yy          xz          yz          zz
 q only:        8.861     -16.446      -4.322       0.278       9.371      -4.539
  q+dip:       13.786     -34.060      -6.746      -3.133      17.501      -7.040
   full:       14.758     -32.156      -7.654      -0.779      19.395      -7.104

           -------------------------------------------------
          |                Geometry Summary                 |
           -------------------------------------------------

      molecular mass/u    :      490.1272016
   center of mass at/Å    :        9.7932066       1.1149697      -3.2894722
  moments of inertia/u·Å² :        0.1534805E+04   0.1568105E+05   0.1638396E+05
rotational constants/cm⁻¹ :        0.1098357E-01   0.1075032E-02   0.1028911E-02

 * 50 selected distances

     #   Z          #   Z                                           value/Å
     1   7 N        2   6 C                                       1.4561486
     2   6 C        3   6 C                                       1.5401773
     3   6 C        4   6 C                                       1.4883880
     4   6 C        5   6 C                                       1.3622723
     5   6 C        6   6 C                                       1.4060732
     6   6 C        7   6 C                                       1.3703582
     7   6 C        8   6 C                                       1.4244601
     8   6 C        9   6 C                                       1.3731241
     9   6 C       10   6 C                                       1.4038518
    10   6 C       11   6 C                                       1.4945194
    10   6 C       12   6 C                                       1.3841002
    13   6 C       14   6 C                                       1.3851715
    14   6 C       15   6 C                                       1.3984995
    15   6 C       16   6 C                                       1.3834180
    17   6 C       18   6 C                                       1.3778506
    18   6 C       19   6 C                                       1.4943333
    18   6 C       20   6 C                                       1.4137715
    20   6 C       21   6 C                                       1.3578166
    17   6 C       22  16 S                                       1.7422217
    21   6 C       22  16 S                                       1.7136656
    16   6 C       23   6 C                                       1.4185009
    23   6 C       24   7 N                                       1.3310472
    24   7 N       25  16 S                                       1.6063568
    25  16 S       26   7 N                                       1.6090276
    13   6 C       27   6 C                                       1.4207545
    23   6 C       27   6 C                                       1.4367445
    26   7 N       27   6 C                                       1.3302714
     8   6 C       28  16 S                                       1.7354297
    12   6 C       28  16 S                                       1.7431174 (max)
     4   6 C       29  16 S                                       1.7352253
     7   6 C       29  16 S                                       1.7428969
     1   7 N       32   1 H                                       1.0148216
     1   7 N       33   1 H                                       1.0148043 (min)
     2   6 C       34   1 H                                       1.0920963
     2   6 C       35   1 H                                       1.0921354
     3   6 C       36   1 H                                       1.0940250
     3   6 C       37   1 H                                       1.0932955
     5   6 C       38   1 H                                       1.0757817
     6   6 C       39   1 H                                       1.0752392
     9   6 C       40   1 H                                       1.0766625
    11   6 C       41   1 H                                       1.0878220
    11   6 C       42   1 H                                       1.0881015
    11   6 C       43   1 H                                       1.0905507
    14   6 C       44   1 H                                       1.0764238
    15   6 C       45   1 H                                       1.0775750
    19   6 C       46   1 H                                       1.0879344
    19   6 C       47   1 H                                       1.0908358
    19   6 C       48   1 H                                       1.0880704
    20   6 C       49   1 H                                       1.0759845
    21   6 C       50   1 H                                       1.0718721

 * 6 distinct bonds (by element types)

   Z      Z             #   av. dist./Å        max./Å        min./Å
   1 H    6 C          17     1.0843768     1.0940250     1.0718721
   6 C    6 C          20     1.4167093     1.5401773     1.3578166
   1 H    7 N           2     1.0148129     1.0148216     1.0148043
   6 C    7 N           3     1.3724891     1.4561486     1.3302714
   6 C   16 S           6     1.7354261     1.7431174     1.7136656
   7 N   16 S           2     1.6076922     1.6090276     1.6063568


optimized geometry written to: xtbopt.xyz


           -------------------------------------------------
          | TOTAL ENERGY              -83.614542227393 Eh   |
          | GRADIENT NORM               0.000300238508 Eh/α |
          | HOMO-LUMO GAP               1.367976539353 eV   |
           -------------------------------------------------

------------------------------------------------------------------------
 * finished run on 2023/01/23 at 19:20:35.581     
------------------------------------------------------------------------
 total:
 * wall-time:     0 d,  0 h,  0 min, 28.103 sec
 *  cpu-time:     0 d,  1 h,  0 min,  0.807 sec
 * ratio c/w:   128.129 speedup
 SCF:
 * wall-time:     0 d,  0 h,  0 min,  0.384 sec
 *  cpu-time:     0 d,  0 h,  0 min, 48.851 sec
 * ratio c/w:   127.137 speedup
 ANC optimizer:
 * wall-time:     0 d,  0 h,  0 min, 27.677 sec
 *  cpu-time:     0 d,  0 h, 59 min,  6.706 sec
 * ratio c/w:   128.144 speedup

