22
 energy: -27.943204938299 gnorm: 0.000210814688 xtb: 6.5.1 (fef0646)
N            1.63750781817873        0.92358850876731       -0.71914857226114
C            2.60310183854306        0.00088364394853       -0.05875742869405
C            3.08144485175109        0.57643083824069        1.23678583489955
C            4.36491036515135        0.80874158948798        1.50107503223114
C            4.90342736153896        1.34849582998582        2.74239081846900
C            4.19010992653835        1.34305666722947        3.94194828506049
C            4.74449303248929        1.86985675276317        5.09267286766687
C            6.01814091055157        2.41574998697447        5.07013532643385
C            6.73999270828864        2.42302381918906        3.88750031300237
C            6.19081485760623        1.88881201805847        2.73783326042234
H            1.28776645571810        0.51653746448066       -1.59419037608560
H            2.09453022339906        1.81903779315449       -0.92870265301760
H            0.84107308438798        1.10640377498833       -0.09696239353018
H            3.44639554221349       -0.17589028431196       -0.72549652678119
H            2.10095432641168       -0.94990364627230        0.13140119032212
H            2.32159063791487        0.78934458986605        1.97344196481786
H            5.10994933587791        0.60560970237286        0.74214397323655
H            3.20588351229304        0.90447899606207        3.98795531755457
H            4.18532922260203        1.85294912521984        6.01674687405402
H            6.44896874119327        2.82670428074208        5.97121629639900
H            7.73543853802633        2.84210768955909        3.86622721639669
H            6.76341670932440        1.89741085949359        1.82159337940330
