      -----------------------------------------------------------      
     |                   =====================                   |     
     |                           x T B                           |     
     |                   =====================                   |     
     |                         S. Grimme                         |     
     |          Mulliken Center for Theoretical Chemistry        |     
     |                    University of Bonn                     |     
      -----------------------------------------------------------      

   * xtb version 6.5.1 (fef0646) compiled by 'conda@b96dff2e9fd6' on 2023-01-04

   xtb is free software: you can redistribute it and/or modify it under
   the terms of the GNU Lesser General Public License as published by
   the Free Software Foundation, either version 3 of the License, or
   (at your option) any later version.
   
   xtb is distributed in the hope that it will be useful,
   but WITHOUT ANY WARRANTY; without even the implied warranty of
   MERCHANTABILITY or FITNESS FOR A PARTICULAR PURPOSE.  See the
   GNU Lesser General Public License for more details.
   
   Cite this work as:
   * C. Bannwarth, E. Caldeweyher, S. Ehlert, A. Hansen, P. Pracht,
     J. Seibert, S. Spicher, S. Grimme, WIREs Comput. Mol. Sci., 2020, 11,
     e01493. DOI: 10.1002/wcms.1493
   
   for GFN2-xTB:
   * C. Bannwarth, S. Ehlert and S. Grimme., J. Chem. Theory Comput., 2019,
     15, 1652-1671. DOI: 10.1021/acs.jctc.8b01176
   for GFN1-xTB:
   * S. Grimme, C. Bannwarth, P. Shushkov, J. Chem. Theory Comput., 2017,
     13, 1989-2009. DOI: 10.1021/acs.jctc.7b00118
   for GFN0-xTB:
   * P. Pracht, E. Caldeweyher, S. Ehlert, S. Grimme, ChemRxiv, 2019, preprint.
     DOI: 10.26434/chemrxiv.8326202.v1
   for GFN-FF:
   * S. Spicher and S. Grimme, Angew. Chem. Int. Ed., 2020, 59, 15665-15673.
     DOI: 10.1002/anie.202004239
   
   for ALPB and GBSA implicit solvation:
   * S. Ehlert, M. Stahn, S. Spicher, S. Grimme, J. Chem. Theory Comput.,
     2021, 17, 4250-4261. DOI: 10.1021/acs.jctc.1c00471
   
   for DFT-D4:
   * E. Caldeweyher, C. Bannwarth and S. Grimme, J. Chem. Phys., 2017,
     147, 034112. DOI: 10.1063/1.4993215
   * E. Caldeweyher, S. Ehlert, A. Hansen, H. Neugebauer, S. Spicher,
     C. Bannwarth and S. Grimme, J. Chem. Phys., 2019, 150, 154122.
     DOI: 10.1063/1.5090222
   * E. Caldeweyher, J.-M. Mewes, S. Ehlert and S. Grimme, Phys. Chem. Chem. Phys.
     2020, 22, 8499-8512. DOI: 10.1039/D0CP00502A
   
   for sTDA-xTB:
   * S. Grimme and C. Bannwarth, J. Chem. Phys., 2016, 145, 054103.
     DOI: 10.1063/1.4959605
   
   in the mass-spec context:
   * V. Asgeirsson, C. Bauer and S. Grimme, Chem. Sci., 2017, 8, 4879.
     DOI: 10.1039/c7sc00601b
   * J. Koopman and S. Grimme, ACS Omega 2019, 4, 12, 15120-15133.
     DOI: 10.1021/acsomega.9b02011
   
   for metadynamics refer to:
   * S. Grimme, J. Chem. Theory Comput., 2019, 155, 2847-2862
     DOI: 10.1021/acs.jctc.9b00143
   
   for SPH calculations refer to:
   * S. Spicher and S. Grimme, J. Chem. Theory Comput., 2021, 17, 1701-1714
     DOI: 10.1021/acs.jctc.0c01306
   
   with help from (in alphabetical order)
   P. Atkinson, C. Bannwarth, F. Bohle, G. Brandenburg, E. Caldeweyher
   M. Checinski, S. Dohm, S. Ehlert, S. Ehrlich, I. Gerasimov, C. Hölzer
   A. Katbashev, J. Koopman, C. Lavigne, S. Lehtola, F. März, M. Müller,
   F. Musil, H. Neugebauer, J. Pisarek, C. Plett, P. Pracht, F. Pultar,
   J. Seibert, P. Shushkov, S. Spicher, M. Stahn, M. Steiner, T. Strunk,
   J. Stückrath, T. Rose, and J. Unsleber
   
 * started run on 2023/01/23 at 19:59:05.944     

           -------------------------------------------------
          |                Calculation Setup                |
           -------------------------------------------------

          program call               : xtb init.xyz --opt -c 1 -u 0 -P 16 --input xtb.inp
          hostname                   : gpg-woodward
          coordinate file            : init.xyz
          omp threads                :                    16

   ID    Z sym.   atoms
    1    7 N      1
    2    6 C      2-10
    3    1 H      11-24

           -------------------------------------------------
          |                 G F N 2 - x T B                 |
           -------------------------------------------------

        Reference                      10.1021/acs.jctc.8b01176
      * Hamiltonian:
        H0-scaling (s, p, d)           1.850000    2.230000    2.230000
        zeta-weighting                 0.500000
      * Dispersion:
        s8                             2.700000
        a1                             0.520000
        a2                             5.000000
        s9                             5.000000
      * Repulsion:
        kExp                           1.500000    1.000000
        rExp                           1.000000
      * Coulomb:
        alpha                          2.000000
        third order                    shell-resolved
        anisotropic                    true
        a3                             3.000000
        a5                             4.000000
        cn-shift                       1.200000
        cn-exp                         4.000000
        max-rad                        5.000000


          ...................................................
          :                      SETUP                      :
          :.................................................:
          :  # basis functions                  54          :
          :  # atomic orbitals                  54          :
          :  # shells                           34          :
          :  # electrons                        54          :
          :  max. iterations                   250          :
          :  Hamiltonian                  GFN2-xTB          :
          :  restarted?                      false          :
          :  GBSA solvation                  false          :
          :  PC potential                    false          :
          :  electronic temp.          300.0000000     K    :
          :  accuracy                    1.0000000          :
          :  -> integral cutoff          0.2500000E+02      :
          :  -> integral neglect         0.1000000E-07      :
          :  -> SCF convergence          0.1000000E-05 Eh   :
          :  -> wf. convergence          0.1000000E-03 e    :
          :  Broyden damping             0.4000000          :
          ...................................................

 iter      E             dE          RMSdq      gap      omega  full diag
   1    -29.2401190 -0.292401E+02  0.391E+00    4.60       0.0  T
   2    -29.3522947 -0.112176E+00  0.224E+00    4.68       1.0  T
   3    -29.3552092 -0.291449E-02  0.120E+00    4.68       1.0  T
   4    -29.3533839  0.182529E-02  0.402E-01    4.65       1.0  T
   5    -29.3562991 -0.291511E-02  0.104E-01    4.67       1.0  T
   6    -29.3563104 -0.113700E-04  0.359E-02    4.67       1.0  T
   7    -29.3563177 -0.727183E-05  0.918E-03    4.67       2.2  T
   8    -29.3563186 -0.937249E-06  0.387E-03    4.67       5.3  T
   9    -29.3563187 -0.613876E-07  0.139E-03    4.67      14.6  T
  10    -29.3563187 -0.675715E-08  0.560E-04    4.67      36.4  T
  11    -29.3563187 -0.458049E-08  0.230E-04    4.67      88.7  T

   *** convergence criteria satisfied after 11 iterations ***

         #    Occupation            Energy/Eh            Energy/eV
      -------------------------------------------------------------
         1        2.0000           -0.8991815             -24.4680
       ...           ...                  ...                  ...
        21        2.0000           -0.5704666             -15.5232
        22        2.0000           -0.5663741             -15.4118
        23        2.0000           -0.5623723             -15.3029
        24        2.0000           -0.5200980             -14.1526
        25        2.0000           -0.5168858             -14.0652
        26        2.0000           -0.4985068             -13.5651
        27        2.0000           -0.4948805             -13.4664 (HOMO)
        28                         -0.3233965              -8.8001 (LUMO)
        29                         -0.3212467              -8.7416
        30                         -0.2626100              -7.1460
        31                         -0.1970970              -5.3633
        32                         -0.1469974              -4.0000
       ...                                ...                  ...
        54                          0.5354055              14.5691
      -------------------------------------------------------------
                  HL-Gap            0.1714840 Eh            4.6663 eV
             Fermi-level           -0.4091385 Eh          -11.1332 eV

 SCC (total)                   0 d,  0 h,  0 min,  0.044 sec
 SCC setup                      ...        0 min,  0.001 sec (  1.179%)
 Dispersion                     ...        0 min,  0.001 sec (  1.609%)
 classical contributions        ...        0 min,  0.000 sec (  0.487%)
 integral evaluation            ...        0 min,  0.002 sec (  5.452%)
 iterations                     ...        0 min,  0.035 sec ( 79.092%)
 molecular gradient             ...        0 min,  0.005 sec ( 10.839%)
 printout                       ...        0 min,  0.000 sec (  0.977%)

         :::::::::::::::::::::::::::::::::::::::::::::::::::::
         ::                     SUMMARY                     ::
         :::::::::::::::::::::::::::::::::::::::::::::::::::::
         :: total energy             -28.881323515661 Eh    ::
         :: gradient norm              0.030248994110 Eh/a0 ::
         :: HOMO-LUMO gap              4.666316435610 eV    ::
         ::.................................................::
         :: SCC energy               -29.356318709346 Eh    ::
         :: -> isotropic ES            0.109588542992 Eh    ::
         :: -> anisotropic ES         -0.008519175420 Eh    ::
         :: -> anisotropic XC          0.022021110258 Eh    ::
         :: -> dispersion             -0.017285290499 Eh    ::
         :: repulsion energy           0.474848023192 Eh    ::
         :: add. restraining           0.000000000000 Eh    ::
         :: total charge               1.000000000000 e     ::
         :::::::::::::::::::::::::::::::::::::::::::::::::::::

      ----------------------------------------------------------- 
     |                   =====================                   |
     |                        A N C O P T                        |
     |                   =====================                   |
     |               Approximate Normal Coordinate               |
     |                Rational Function Optimizer                |
      ----------------------------------------------------------- 

          ...................................................
          :                      SETUP                      :
          :.................................................:
          :   optimization level            normal          :
          :   max. optcycles                   200          :
          :   ANC micro-cycles                  20          :
          :   degrees of freedom                66          :
          :.................................................:
          :   RF solver                   davidson          :
          :   write xtbopt.log                true          :
          :   linear?                        false          :
          :   energy convergence         0.5000000E-05 Eh   :
          :   grad. convergence          0.1000000E-02 Eh/α :
          :   maximium RF displ.         1.0000000          :
          :   Hlow (freq-cutoff)         0.1000000E-01      :
          :   Hmax (freq-cutoff)         5.0000000          :
          :   S6 in model hess.         20.0000000          :
          ...................................................

generating ANC from model Hessian ...
Using Lindh-Hessian (1995)
 Shifting diagonal of input Hessian by    9.0380137681192428E-003
 Lowest  eigenvalues of input Hessian
    0.000000    0.000000    0.000000    0.000000    0.000000    0.000000
    0.010000    0.010299    0.011419    0.014615    0.016822    0.019824
    0.022804    0.023122    0.026243    0.028853    0.032835    0.035291
 Highest eigenvalues
    1.440118    1.527397    1.557757    1.831955    1.931547    1.944153


........................................................................
.............................. CYCLE    1 ..............................
........................................................................
   1    -29.3563187 -0.293563E+02  0.110E-04    4.67       0.0  T
   2    -29.3563187 -0.212559E-10  0.677E-05    4.67     301.6  T
   3    -29.3563187  0.895994E-11  0.397E-05    4.67     513.9  T
     SCC iter.                  ...        0 min,  0.010 sec
     gradient                   ...        0 min,  0.005 sec
 * total energy  :   -28.8813235 Eh     change       -0.2574367E-09 Eh
   gradient norm :     0.0302492 Eh/α   predicted     0.0000000E+00 (-100.00%)
   displ. norm   :     0.1893459 α      lambda       -0.3733941E-02
   maximum displ.:     0.0944399 α      in ANC's #20, #17, #39, ...

........................................................................
.............................. CYCLE    2 ..............................
........................................................................
   1    -29.3761599 -0.293762E+02  0.168E-01    4.76       0.0  T
   2    -29.3761695 -0.963065E-05  0.988E-02    4.76       1.0  T
   3    -29.3761702 -0.679766E-06  0.881E-03    4.76       2.3  T
   4    -29.3761706 -0.383995E-06  0.318E-03    4.76       6.4  T
   5    -29.3761706 -0.453198E-07  0.172E-03    4.76      11.8  T
   6    -29.3761707 -0.348640E-07  0.484E-04    4.76      42.2  T
   7    -29.3761707 -0.135802E-08  0.176E-04    4.76     115.8  T
     SCC iter.                  ...        0 min,  0.022 sec
     gradient                   ...        0 min,  0.004 sec
 * total energy  :   -28.8836121 Eh     change       -0.2288624E-02 Eh
   gradient norm :     0.0097701 Eh/α   predicted    -0.1933923E-02 ( -15.50%)
   displ. norm   :     0.1222474 α      lambda       -0.4686978E-03
   maximum displ.:     0.0623730 α      in ANC's #4, #5, #2, ...

........................................................................
.............................. CYCLE    3 ..............................
........................................................................
   1    -29.3818163 -0.293818E+02  0.627E-02    4.78       0.0  T
   2    -29.3818188 -0.244868E-05  0.364E-02    4.78       1.0  T
   3    -29.3818181  0.644364E-06  0.732E-03    4.78       2.8  T
   4    -29.3818190 -0.852657E-06  0.245E-03    4.78       8.3  T
   5    -29.3818191 -0.134133E-06  0.882E-04    4.78      23.2  T
   6    -29.3818191 -0.195167E-08  0.269E-04    4.78      75.9  T
     SCC iter.                  ...        0 min,  0.016 sec
     gradient                   ...        0 min,  0.004 sec
 * total energy  :   -28.8838945 Eh     change       -0.2823753E-03 Eh
   gradient norm :     0.0034334 Eh/α   predicted    -0.2378543E-03 ( -15.77%)
   displ. norm   :     0.0888748 α      lambda       -0.9477833E-04
   maximum displ.:     0.0507188 α      in ANC's #2, #4, #5, ...

........................................................................
.............................. CYCLE    4 ..............................
........................................................................
   1    -29.3822102 -0.293822E+02  0.346E-02    4.77       0.0  T
   2    -29.3822107 -0.544238E-06  0.203E-02    4.77       1.0  T
   3    -29.3822097  0.100718E-05  0.642E-03    4.77       3.2  T
   4    -29.3822109 -0.122263E-05  0.854E-04    4.77      23.9  T
   5    -29.3822109 -0.848035E-08  0.354E-04    4.77      57.6  T
   6    -29.3822109 -0.163187E-09  0.140E-04    4.77     145.9  T
     SCC iter.                  ...        0 min,  0.016 sec
     gradient                   ...        0 min,  0.004 sec
 * total energy  :   -28.8839606 Eh     change       -0.6606187E-04 Eh
   gradient norm :     0.0015577 Eh/α   predicted    -0.4776363E-04 ( -27.70%)
   displ. norm   :     0.1339252 α      lambda       -0.4905295E-04
   maximum displ.:     0.0911354 α      in ANC's #2, #1, #4, ...

........................................................................
.............................. CYCLE    5 ..............................
........................................................................
   1    -29.3814148 -0.293814E+02  0.523E-02    4.77       0.0  T
   2    -29.3814153 -0.497875E-06  0.308E-02    4.77       1.0  T
   3    -29.3814137  0.158675E-05  0.749E-03    4.77       2.7  T
   4    -29.3814156 -0.186958E-05  0.783E-04    4.77      26.1  T
   5    -29.3814156 -0.291960E-08  0.371E-04    4.77      55.1  T
   6    -29.3814156 -0.361400E-09  0.146E-04    4.77     139.9  T
     SCC iter.                  ...        0 min,  0.011 sec
     gradient                   ...        0 min,  0.004 sec
 * total energy  :   -28.8840024 Eh     change       -0.4180195E-04 Eh
   gradient norm :     0.0021194 Eh/α   predicted    -0.2475782E-04 ( -40.77%)
   displ. norm   :     0.0470676 α      lambda       -0.2081750E-04
   maximum displ.:     0.0360367 α      in ANC's #2, #1, #3, ...

........................................................................
.............................. CYCLE    6 ..............................
........................................................................
   1    -29.3812947 -0.293813E+02  0.203E-02    4.77       0.0  T
   2    -29.3812947 -0.586327E-07  0.119E-02    4.77       1.7  T
   3    -29.3812946  0.132733E-06  0.234E-03    4.77       8.7  T
   4    -29.3812948 -0.159889E-06  0.294E-04    4.77      69.5  T
   5    -29.3812948 -0.525137E-09  0.146E-04    4.77     139.9  T
     SCC iter.                  ...        0 min,  0.007 sec
     gradient                   ...        0 min,  0.003 sec
 * total energy  :   -28.8840218 Eh     change       -0.1938220E-04 Eh
   gradient norm :     0.0016371 Eh/α   predicted    -0.1043199E-04 ( -46.18%)
   displ. norm   :     0.1634414 α      lambda       -0.4871206E-04
   maximum displ.:     0.1148213 α      in ANC's #2, #1, #3, ...

........................................................................
.............................. CYCLE    7 ..............................
........................................................................
   1    -29.3811145 -0.293811E+02  0.715E-02    4.77       0.0  T
   2    -29.3811153 -0.805798E-06  0.418E-02    4.77       1.0  T
   3    -29.3811132  0.201810E-05  0.899E-03    4.77       2.3  T
   4    -29.3811157 -0.241659E-05  0.106E-03    4.77      19.3  T
   5    -29.3811157 -0.646899E-08  0.515E-04    4.77      39.6  T
   6    -29.3811157 -0.534527E-09  0.182E-04    4.77     112.2  T
     SCC iter.                  ...        0 min,  0.008 sec
     gradient                   ...        0 min,  0.003 sec
 * total energy  :   -28.8840783 Eh     change       -0.5657213E-04 Eh
   gradient norm :     0.0014805 Eh/α   predicted    -0.2464562E-04 ( -56.44%)
   displ. norm   :     0.2137665 α      lambda       -0.4343923E-04
   maximum displ.:     0.1503741 α      in ANC's #2, #1, #3, ...

........................................................................
.............................. CYCLE    8 ..............................
........................................................................
   1    -29.3809519 -0.293810E+02  0.893E-02    4.77       0.0  T
   2    -29.3809527 -0.844354E-06  0.523E-02    4.77       1.0  T
   3    -29.3809501  0.261899E-05  0.100E-02    4.77       2.0  T
   4    -29.3809532 -0.313025E-05  0.112E-03    4.77      18.2  T
   5    -29.3809532 -0.209005E-08  0.517E-04    4.77      39.5  T
   6    -29.3809532 -0.988070E-09  0.143E-04    4.77     142.4  T
     SCC iter.                  ...        0 min,  0.008 sec
     gradient                   ...        0 min,  0.004 sec
 * total energy  :   -28.8841337 Eh     change       -0.5532942E-04 Eh
   gradient norm :     0.0023073 Eh/α   predicted    -0.2216320E-04 ( -59.94%)
   displ. norm   :     0.1724493 α      lambda       -0.4854464E-04
   maximum displ.:     0.1210462 α      in ANC's #2, #1, #3, ...

........................................................................
.............................. CYCLE    9 ..............................
........................................................................
   1    -29.3810270 -0.293810E+02  0.717E-02    4.77       0.0  T
   2    -29.3810275 -0.518169E-06  0.420E-02    4.77       1.0  T
   3    -29.3810256  0.185146E-05  0.833E-03    4.77       2.4  T
   4    -29.3810278 -0.219479E-05  0.821E-04    4.77      24.9  T
   5    -29.3810278 -0.236376E-09  0.340E-04    4.77      60.0  T
   6    -29.3810278 -0.106686E-08  0.846E-05    4.77     241.2  T
     SCC iter.                  ...        0 min,  0.008 sec
     gradient                   ...        0 min,  0.003 sec
 * total energy  :   -28.8841771 Eh     change       -0.4347183E-04 Eh
   gradient norm :     0.0020888 Eh/α   predicted    -0.2499763E-04 ( -42.50%)
   displ. norm   :     0.2273728 α      lambda       -0.5908251E-04
   maximum displ.:     0.1615991 α      in ANC's #2, #1, #3, ...

........................................................................
.............................. CYCLE   10 ..............................
........................................................................
   1    -29.3810629 -0.293811E+02  0.938E-02    4.77       0.0  T
   2    -29.3810638 -0.887232E-06  0.550E-02    4.77       1.0  T
   3    -29.3810607  0.312821E-05  0.108E-02    4.77       1.9  T
   4    -29.3810644 -0.371149E-05  0.109E-03    4.77      18.8  T
   5    -29.3810644 -0.456275E-09  0.432E-04    4.77      47.2  T
   6    -29.3810644 -0.158737E-08  0.120E-04    4.77     170.8  T
     SCC iter.                  ...        0 min,  0.008 sec
     gradient                   ...        0 min,  0.003 sec
 * total energy  :   -28.8842267 Eh     change       -0.4959587E-04 Eh
   gradient norm :     0.0013415 Eh/α   predicted    -0.3107182E-04 ( -37.35%)
   displ. norm   :     0.3096389 α      lambda       -0.4174034E-04
   maximum displ.:     0.2275703 α      in ANC's #2, #1, #3, ...

........................................................................
.............................. CYCLE   11 ..............................
........................................................................
   1    -29.3809204 -0.293809E+02  0.128E-01    4.77       0.0  T
   2    -29.3809222 -0.184104E-05  0.752E-02    4.77       1.0  T
   3    -29.3809155  0.676229E-05  0.160E-02    4.77       1.3  T
   4    -29.3809235 -0.799126E-05  0.146E-03    4.77      14.0  T
   5    -29.3809235 -0.156276E-08  0.629E-04    4.77      32.5  T
   6    -29.3809235 -0.259728E-08  0.172E-04    4.77     118.9  T
     SCC iter.                  ...        0 min,  0.007 sec
     gradient                   ...        0 min,  0.002 sec
 * total energy  :   -28.8842710 Eh     change       -0.4429633E-04 Eh
   gradient norm :     0.0012458 Eh/α   predicted    -0.2176328E-04 ( -50.87%)
   displ. norm   :     0.1219609 α      lambda       -0.1374644E-04
   maximum displ.:     0.0996467 α      in ANC's #2, #3, #1, ...

........................................................................
.............................. CYCLE   12 ..............................
........................................................................
   1    -29.3817370 -0.293817E+02  0.513E-02    4.77       0.0  T
   2    -29.3817374 -0.388871E-06  0.301E-02    4.77       1.0  T
   3    -29.3817361  0.132146E-05  0.713E-03    4.77       2.9  T
   4    -29.3817377 -0.156118E-05  0.614E-04    4.77      33.2  T
   5    -29.3817377 -0.123200E-08  0.319E-04    4.77      63.9  T
   6    -29.3817377 -0.716156E-10  0.803E-05    4.77     254.2  T
     SCC iter.                  ...        0 min,  0.007 sec
     gradient                   ...        0 min,  0.002 sec
 * total energy  :   -28.8842873 Eh     change       -0.1627099E-04 Eh
   gradient norm :     0.0008087 Eh/α   predicted    -0.6919178E-05 ( -57.48%)
   displ. norm   :     0.0913795 α      lambda       -0.9963855E-05
   maximum displ.:     0.0785226 α      in ANC's #2, #3, #1, ...

........................................................................
.............................. CYCLE   13 ..............................
........................................................................
   1    -29.3817729 -0.293818E+02  0.390E-02    4.77       0.0  T
   2    -29.3817732 -0.242788E-06  0.229E-02    4.77       1.0  T
   3    -29.3817722  0.915825E-06  0.597E-03    4.77       3.4  T
   4    -29.3817733 -0.108131E-05  0.424E-04    4.77      48.1  T
   5    -29.3817733 -0.415799E-09  0.219E-04    4.77      93.3  T
   6    -29.3817733 -0.114554E-09  0.629E-05    4.77     324.5  T
     SCC iter.                  ...        0 min,  0.007 sec
     gradient                   ...        0 min,  0.002 sec
 * total energy  :   -28.8843010 Eh     change       -0.1367289E-04 Eh
   gradient norm :     0.0005868 Eh/α   predicted    -0.5002040E-05 ( -63.42%)
   displ. norm   :     0.0771990 α      lambda       -0.1060757E-04
   maximum displ.:     0.0660508 α      in ANC's #2, #3, #1, ...

........................................................................
.............................. CYCLE   14 ..............................
........................................................................
   1    -29.3818319 -0.293818E+02  0.313E-02    4.77       0.0  T
   2    -29.3818321 -0.147756E-06  0.184E-02    4.77       1.1  T
   3    -29.3818315  0.526995E-06  0.453E-03    4.77       4.5  T
   4    -29.3818322 -0.622479E-06  0.387E-04    4.77      52.7  T
   5    -29.3818322 -0.401993E-09  0.200E-04    4.77     101.8  T
     SCC iter.                  ...        0 min,  0.006 sec
     gradient                   ...        0 min,  0.002 sec
 * total energy  :   -28.8843156 Eh     change       -0.1463805E-04 Eh
   gradient norm :     0.0005816 Eh/α   predicted    -0.5319470E-05 ( -63.66%)
   displ. norm   :     0.1008407 α      lambda       -0.1369494E-04
   maximum displ.:     0.0819132 α      in ANC's #2, #3, #1, ...

........................................................................
.............................. CYCLE   15 ..............................
........................................................................
   1    -29.3817910 -0.293818E+02  0.395E-02    4.77       0.0  T
   2    -29.3817912 -0.266822E-06  0.232E-02    4.77       1.0  T
   3    -29.3817902  0.105629E-05  0.640E-03    4.77       3.2  T
   4    -29.3817914 -0.124581E-05  0.423E-04    4.77      48.3  T
   5    -29.3817914 -0.384983E-09  0.222E-04    4.77      92.0  T
   6    -29.3817914 -0.220982E-09  0.538E-05    4.77     379.2  T
     SCC iter.                  ...        0 min,  0.007 sec
     gradient                   ...        0 min,  0.002 sec
 * total energy  :   -28.8843341 Eh     change       -0.1846225E-04 Eh
   gradient norm :     0.0007862 Eh/α   predicted    -0.6878892E-05 ( -62.74%)
   displ. norm   :     0.1295028 α      lambda       -0.1579339E-04
   maximum displ.:     0.1022540 α      in ANC's #2, #3, #1, ...

........................................................................
.............................. CYCLE   16 ..............................
........................................................................
   1    -29.3815018 -0.293815E+02  0.489E-02    4.77       0.0  T
   2    -29.3815022 -0.325123E-06  0.288E-02    4.77       1.0  T
   3    -29.3815009  0.126580E-05  0.695E-03    4.77       2.9  T
   4    -29.3815024 -0.148997E-05  0.560E-04    4.77      36.4  T
   5    -29.3815024 -0.273150E-09  0.279E-04    4.77      73.2  T
   6    -29.3815024 -0.461814E-09  0.721E-05    4.77     283.1  T
     SCC iter.                  ...        0 min,  0.007 sec
     gradient                   ...        0 min,  0.002 sec
 * total energy  :   -28.8843547 Eh     change       -0.2067560E-04 Eh
   gradient norm :     0.0009413 Eh/α   predicted    -0.7956062E-05 ( -61.52%)
   displ. norm   :     0.1574122 α      lambda       -0.1670772E-04
   maximum displ.:     0.1239493 α      in ANC's #2, #1, #3, ...

........................................................................
.............................. CYCLE   17 ..............................
........................................................................
   1    -29.3814322 -0.293814E+02  0.591E-02    4.77       0.0  T
   2    -29.3814327 -0.506546E-06  0.348E-02    4.77       1.0  T
   3    -29.3814306  0.210982E-05  0.894E-03    4.77       2.3  T
   4    -29.3814331 -0.247805E-05  0.608E-04    4.77      33.6  T
   5    -29.3814331 -0.102801E-09  0.297E-04    4.77      68.8  T
   6    -29.3814331 -0.701625E-09  0.699E-05    4.77     292.1  T
     SCC iter.                  ...        0 min,  0.007 sec
     gradient                   ...        0 min,  0.002 sec
 * total energy  :   -28.8843759 Eh     change       -0.2110942E-04 Eh
   gradient norm :     0.0008217 Eh/α   predicted    -0.8447149E-05 ( -59.98%)
   displ. norm   :     0.1765552 α      lambda       -0.1486534E-04
   maximum displ.:     0.1397406 α      in ANC's #2, #1, #3, ...

........................................................................
.............................. CYCLE   18 ..............................
........................................................................
   1    -29.3814155 -0.293814E+02  0.664E-02    4.77       0.0  T
   2    -29.3814160 -0.587223E-06  0.390E-02    4.77       1.0  T
   3    -29.3814137  0.233517E-05  0.939E-03    4.77       2.2  T
   4    -29.3814164 -0.274371E-05  0.708E-04    4.77      28.8  T
   5    -29.3814164 -0.526022E-09  0.351E-04    4.77      58.2  T
   6    -29.3814164 -0.690175E-09  0.100E-04    4.77     203.6  T
     SCC iter.                  ...        0 min,  0.007 sec
     gradient                   ...        0 min,  0.002 sec
 * total energy  :   -28.8843934 Eh     change       -0.1758483E-04 Eh
   gradient norm :     0.0006572 Eh/α   predicted    -0.7536054E-05 ( -57.14%)
   displ. norm   :     0.1549405 α      lambda       -0.9572726E-05
   maximum displ.:     0.1248643 α      in ANC's #2, #1, #3, ...

........................................................................
.............................. CYCLE   19 ..............................
........................................................................
   1    -29.3815165 -0.293815E+02  0.590E-02    4.77       0.0  T
   2    -29.3815170 -0.502003E-06  0.347E-02    4.77       1.0  T
   3    -29.3815149  0.204277E-05  0.885E-03    4.77       2.3  T
   4    -29.3815173 -0.240211E-05  0.606E-04    4.77      33.7  T
   5    -29.3815173 -0.272721E-09  0.302E-04    4.77      67.5  T
   6    -29.3815173 -0.507285E-09  0.820E-05    4.77     248.8  T
     SCC iter.                  ...        0 min,  0.007 sec
     gradient                   ...        0 min,  0.002 sec
 * total energy  :   -28.8844038 Eh     change       -0.1035933E-04 Eh
   gradient norm :     0.0006205 Eh/α   predicted    -0.4838028E-05 ( -53.30%)
   displ. norm   :     0.1105719 α      lambda       -0.5385007E-05
   maximum displ.:     0.0915982 α      in ANC's #2, #1, #3, ...

........................................................................
.............................. CYCLE   20 ..............................
........................................................................
   1    -29.3817625 -0.293818E+02  0.433E-02    4.77       0.0  T
   2    -29.3817628 -0.231005E-06  0.255E-02    4.77       1.0  T
   3    -29.3817619  0.868450E-06  0.567E-03    4.77       3.6  T
   4    -29.3817629 -0.102143E-05  0.477E-04    4.77      42.8  T
   5    -29.3817629 -0.413475E-09  0.226E-04    4.77      90.4  T
   6    -29.3817629 -0.257522E-09  0.752E-05    4.77     271.5  T
     SCC iter.                  ...        0 min,  0.007 sec
     gradient                   ...        0 min,  0.002 sec
 * total energy  :   -28.8844088 Eh     change       -0.4976784E-05 Eh
   gradient norm :     0.0008419 Eh/α   predicted    -0.2711071E-05 ( -45.53%)
   displ. norm   :     0.0610767 α      lambda       -0.2906522E-05
   maximum displ.:     0.0531474 α      in ANC's #2, #1, #3, ...

   *** GEOMETRY OPTIMIZATION CONVERGED AFTER 20 ITERATIONS ***

------------------------------------------------------------------------
 total energy gain   :        -0.0030853 Eh       -1.9360 kcal/mol
 total RMSD          :         0.4512589 a0        0.2388 Å
 total power (kW/mol):        -0.4050176 (step)  -26.4669 (real)
------------------------------------------------------------------------

 ANCopt (total)                0 d,  0 h,  0 min,  0.306 sec
 optimizer setup                ...        0 min,  0.000 sec (  0.032%)
 model hessian                  ...        0 min,  0.021 sec (  6.995%)
 ANC generation                 ...        0 min,  0.003 sec (  1.032%)
 coordinate transformation      ...        0 min,  0.000 sec (  0.114%)
 single point calculation       ...        0 min,  0.272 sec ( 89.020%)
 optimization log               ...        0 min,  0.004 sec (  1.231%)
 hessian update                 ...        0 min,  0.001 sec (  0.320%)
 rational function              ...        0 min,  0.002 sec (  0.574%)

================
 final structure:
================
24
 xtb: 6.5.1 (fef0646)
N            1.05511823469235       -1.68552002200244       -1.80634863803095
C            2.54416319055416       -1.63453336152712       -1.64983682947979
C            3.00557344505071       -0.21566185406076       -1.35315040804723
C            4.54063745889727       -0.14785797461647       -1.37849694845229
C            5.07974761372514       -0.46044925439953       -2.75043890423171
C            4.95230038940229        0.46906192711108       -3.77644813703171
C            5.42743194909470        0.18681103978855       -5.04462390178034
C            6.03786871248571       -1.02990814130540       -5.30212521031975
C            6.17318943555960       -1.96007533771589       -4.28591862118066
C            5.69264311838782       -1.67786313853379       -3.01806592716407
H            0.72793009658916       -2.64288532555568       -1.98492395767520
H            0.77107449584343       -1.08559772846824       -2.59172134022073
H            0.60278907531685       -1.33275442153171       -0.95265957413974
H            3.00566273271880       -1.98284995630608       -2.57599699145009
H            2.83006112635206       -2.30688931980304       -0.84022391264266
H            2.64427797598995        0.10604606261286       -0.37516695637828
H            2.61645754015826        0.46608607871951       -2.11206454262914
H            4.94856510136560       -0.84636963363630       -0.64736237206570
H            4.84481413745421        0.85827143412261       -1.08868271797776
H            4.49402860321728        1.42693061004245       -3.57592882507530
H            5.32943118317018        0.91993730930419       -5.83015448594843
H            6.41607314981391       -1.24739474589902       -6.28872317832361
H            6.65840786821998       -2.90531955833583       -4.47714557466161
H            5.81365336594069       -2.40297468800348       -2.22492204509317

 Bond Distances (Angstroems)
 ---------------------------
N1-C2=1.4981         N1-H11=1.0274        N1-H12=1.0283        N1-H13=1.0285        C2-N1=1.4981         C2-C3=1.5212         
C2-H14=1.0918        C2-H15=1.0905        C3-C2=1.5212         C3-C4=1.5368         C3-H16=1.0911        C3-H17=1.0919        
C4-C3=1.5368         C4-C5=1.5068         C4-H18=1.0904        C4-H19=1.0903        C5-C4=1.5068         C5-C6=1.3903         
C5-C10=1.3890        C6-C5=1.3903         C6-C7=1.3834         C6-H20=1.0806        C7-C6=1.3834         C7-C8=1.3854         
C7-H21=1.0790        C8-C7=1.3854         C8-C9=1.3843         C8-H22=1.0788        C9-C8=1.3843         C9-C10=1.3849        
C9-H23=1.0796        C10-C5=1.3890        C10-C9=1.3849        C10-H24=1.0814       H11-N1=1.0274        H12-N1=1.0283        
H13-N1=1.0285        H14-C2=1.0918        H15-C2=1.0905        H16-C3=1.0911        H17-C3=1.0919        H18-C4=1.0904        
H19-C4=1.0903        H20-C6=1.0806        H21-C7=1.0790        H22-C8=1.0788        H23-C9=1.0796        H24-C10=1.0814       
 C  H  Rav=1.0859 sigma=0.0056  Rmin=1.0788  Rmax=1.0919    11
 C  C  Rav=1.4313 sigma=0.0643  Rmin=1.3834  Rmax=1.5368     9
 N  H  Rav=1.0281 sigma=0.0005  Rmin=1.0274  Rmax=1.0285     3
 N  C  Rav=1.4981 sigma=0.0000  Rmin=1.4981  Rmax=1.4981     1

 selected bond angles (degree)
 --------------------
H11-N1-C2=111.49               H12-N1-C2=109.54               H12-N1-H11=108.84              H13-N1-C2=109.80               
H13-N1-H11=108.89              H13-N1-H12=108.20              C3-C2-N1=110.71                H14-C2-N1=108.70               
H14-C2-C3=109.56               H15-C2-N1=108.49               H15-C2-C3=110.53               H15-C2-H14=108.80              
C4-C3-C2=109.93                H16-C3-C2=110.45               H16-C3-C4=109.42               H17-C3-C2=109.80               
H17-C3-C4=108.48               H17-C3-H16=108.72              C5-C4-C3=111.30                H18-C4-C3=109.54               
H18-C4-C5=110.11               H19-C4-C3=108.36               H19-C4-C5=109.49               H19-C4-H18=107.97              
C6-C5-C4=120.03                C10-C5-C4=121.00               C10-C5-C6=118.96               C7-C6-C5=120.57                
H20-C6-C5=119.64               H20-C6-C7=119.78               C8-C7-C6=120.06                H21-C7-C6=119.84               
H21-C7-C8=120.10               C9-C8-C7=119.79                H22-C8-C7=120.10               H22-C8-C9=120.11               
C10-C9-C8=120.08               H23-C9-C8=120.15               H23-C9-C10=119.77              C9-C10-C5=120.54               
H24-C10-C5=119.72              H24-C10-C9=119.73              

 selected dihedral angles (degree)
 ---------------------------------
C3-C2-N1-H11=181.36           C3-C2-N1-H12= 60.83           C3-C2-N1-H13=302.14           H14-C2-N1-H11= 60.98          
H14-C2-N1-H12=300.44          H14-C2-N1-H13=181.75          H15-C2-N1-H11=302.81          H15-C2-N1-H12=182.28          
H15-C2-N1-H13= 63.59          C4-C3-C2-N1=187.38            C4-C3-C2-H14=307.26           C4-C3-C2-H15= 67.14           
H16-C3-C2-N1= 66.53           H16-C3-C2-H14=186.41          H16-C3-C2-H15=306.29          H17-C3-C2-N1=306.65           
H17-C3-C2-H14= 66.52          H17-C3-C2-H15=186.41          C5-C4-C3-C2= 63.82            C5-C4-C3-H16=185.29           
C5-C4-C3-H17=303.75           H18-C4-C3-C2=301.83           H18-C4-C3-H16= 63.29          H18-C4-C3-H17=181.76          
H19-C4-C3-C2=184.27           H19-C4-C3-H16=305.73          H19-C4-C3-H17= 64.19          C6-C5-C4-C3= 73.31            
C6-C5-C4-H18=194.97           C6-C5-C4-H19=313.53           C10-C5-C4-C3=254.15           C10-C5-C4-H18= 15.81          
C10-C5-C4-H19=134.37          C7-C6-C5-C4=180.85            C7-C6-C5-C10=  0.03           H20-C6-C5-C4=  1.97           
H20-C6-C5-C10=181.15          C8-C7-C6-C5=359.94            C8-C7-C6-H20=178.83           H21-C7-C6-C5=180.49           
H21-C7-C6-H20=359.38          C9-C8-C7-C6=359.85            C9-C8-C7-H21=179.30           H22-C8-C7-C6=180.52           
H22-C8-C7-H21=359.96          C10-C9-C8-C7=  0.38           C10-C9-C8-H22=179.72          H23-C9-C8-C7=180.73           
H23-C9-C8-H22=  0.07          C9-C10-C5-C4=179.37           C9-C10-C5-C6=  0.20           H24-C10-C5-C4=358.11          
H24-C10-C5-C6=178.94          C5-C10-C9-C8=359.59           C5-C10-C9-H23=179.24          H24-C10-C9-C8=180.85          
H24-C10-C9-H23=  0.50         
           -------------------------------------------------
          |                Final Singlepoint                |
           -------------------------------------------------

          ...................................................
          :                      SETUP                      :
          :.................................................:
          :  # basis functions                  54          :
          :  # atomic orbitals                  54          :
          :  # shells                           34          :
          :  # electrons                        54          :
          :  max. iterations                   250          :
          :  Hamiltonian                  GFN2-xTB          :
          :  restarted?                      false          :
          :  GBSA solvation                  false          :
          :  PC potential                    false          :
          :  electronic temp.          300.0000000     K    :
          :  accuracy                    1.0000000          :
          :  -> integral cutoff          0.2500000E+02      :
          :  -> integral neglect         0.1000000E-07      :
          :  -> SCF convergence          0.1000000E-05 Eh   :
          :  -> wf. convergence          0.1000000E-03 e    :
          :  Broyden damping             0.4000000          :
          ...................................................

 iter      E             dE          RMSdq      gap      omega  full diag
   1    -29.3817629 -0.293818E+02  0.211E-05    4.77       0.0  T
   2    -29.3817629 -0.160938E-11  0.115E-05    4.77    1779.0  T
   3    -29.3817629 -0.124345E-12  0.644E-06    4.77    3171.8  T

   *** convergence criteria satisfied after 3 iterations ***

         #    Occupation            Energy/Eh            Energy/eV
      -------------------------------------------------------------
         1        2.0000           -0.8959030             -24.3788
       ...           ...                  ...                  ...
        21        2.0000           -0.5735250             -15.6064
        22        2.0000           -0.5698938             -15.5076
        23        2.0000           -0.5674676             -15.4416
        24        2.0000           -0.5227443             -14.2246
        25        2.0000           -0.5189513             -14.1214
        26        2.0000           -0.5033500             -13.6969
        27        2.0000           -0.4997599             -13.5992 (HOMO)
        28                         -0.3244058              -8.8275 (LUMO)
        29                         -0.3217974              -8.7566
        30                         -0.2643939              -7.1945
        31                         -0.1942254              -5.2851
        32                         -0.1603698              -4.3639
       ...                                ...                  ...
        54                          0.5645186              15.3613
      -------------------------------------------------------------
                  HL-Gap            0.1753541 Eh            4.7716 eV
             Fermi-level           -0.4120829 Eh          -11.2133 eV

 SCC (total)                   0 d,  0 h,  0 min,  0.007 sec
 SCC setup                      ...        0 min,  0.000 sec (  1.333%)
 Dispersion                     ...        0 min,  0.000 sec (  2.689%)
 classical contributions        ...        0 min,  0.000 sec (  0.400%)
 integral evaluation            ...        0 min,  0.001 sec ( 10.020%)
 iterations                     ...        0 min,  0.004 sec ( 55.397%)
 molecular gradient             ...        0 min,  0.002 sec ( 27.080%)
 printout                       ...        0 min,  0.000 sec (  1.906%)

         :::::::::::::::::::::::::::::::::::::::::::::::::::::
         ::                     SUMMARY                     ::
         :::::::::::::::::::::::::::::::::::::::::::::::::::::
         :: total energy             -28.884408777196 Eh    ::
         :: gradient norm              0.000842316172 Eh/a0 ::
         :: HOMO-LUMO gap              4.771628258869 eV    ::
         ::.................................................::
         :: SCC energy               -29.381762917279 Eh    ::
         :: -> isotropic ES            0.108950696283 Eh    ::
         :: -> anisotropic ES         -0.009887893624 Eh    ::
         :: -> anisotropic XC          0.021344018312 Eh    ::
         :: -> dispersion             -0.017469445910 Eh    ::
         :: repulsion energy           0.497195809300 Eh    ::
         :: add. restraining           0.000000000000 Eh    ::
         :: total charge               1.000000000000 e     ::
         :::::::::::::::::::::::::::::::::::::::::::::::::::::

           -------------------------------------------------
          |                Property Printout                |
           -------------------------------------------------

    * Orbital Energies and Occupations

         #    Occupation            Energy/Eh            Energy/eV
      -------------------------------------------------------------
         1        2.0000           -0.8959030             -24.3788
       ...           ...                  ...                  ...
        15        2.0000           -0.6334087             -17.2359
        16        2.0000           -0.6224943             -16.9389
        17        2.0000           -0.6129470             -16.6791
        18        2.0000           -0.6009476             -16.3526
        19        2.0000           -0.5920944             -16.1117
        20        2.0000           -0.5762148             -15.6796
        21        2.0000           -0.5735250             -15.6064
        22        2.0000           -0.5698938             -15.5076
        23        2.0000           -0.5674676             -15.4416
        24        2.0000           -0.5227443             -14.2246
        25        2.0000           -0.5189513             -14.1214
        26        2.0000           -0.5033500             -13.6969
        27        2.0000           -0.4997599             -13.5992 (HOMO)
        28                         -0.3244058              -8.8275 (LUMO)
        29                         -0.3217974              -8.7566
        30                         -0.2643939              -7.1945
        31                         -0.1942254              -5.2851
        32                         -0.1603698              -4.3639
        33                         -0.1009782              -2.7478
        34                         -0.1003020              -2.7294
        35                         -0.0516279              -1.4049
        36                         -0.0258776              -0.7042
        37                         -0.0110064              -0.2995
        38                         -0.0032017              -0.0871
       ...                                ...                  ...
        54                          0.5645186              15.3613
      -------------------------------------------------------------
                  HL-Gap            0.1753541 Eh            4.7716 eV
             Fermi-level           -0.4120829 Eh          -11.2133 eV

     #   Z          covCN         q      C6AA      α(0)
     1   7 N        3.483    -0.128    23.762     7.240
     2   6 C        3.732    -0.035    21.284     6.585
     3   6 C        3.803    -0.077    21.972     6.673
     4   6 C        3.809    -0.074    21.911     6.663
     5   6 C        2.970    -0.002    28.068     8.690
     6   6 C        2.924    -0.042    29.042     8.838
     7   6 C        2.919    -0.027    28.683     8.782
     8   6 C        2.920    -0.027    28.673     8.781
     9   6 C        2.919    -0.028    28.698     8.785
    10   6 C        2.924    -0.046    29.140     8.853
    11   1 H        0.859     0.269     0.812     1.412
    12   1 H        0.859     0.272     0.804     1.405
    13   1 H        0.859     0.272     0.804     1.405
    14   1 H        0.924     0.112     1.683     2.029
    15   1 H        0.924     0.106     1.731     2.058
    16   1 H        0.924     0.061     2.185     2.312
    17   1 H        0.924     0.063     2.170     2.303
    18   1 H        0.924     0.055     2.261     2.352
    19   1 H        0.924     0.072     2.060     2.244
    20   1 H        0.926     0.034     2.532     2.489
    21   1 H        0.926     0.046     2.370     2.407
    22   1 H        0.926     0.049     2.337     2.390
    23   1 H        0.926     0.045     2.377     2.411
    24   1 H        0.925     0.030     2.585     2.514

 Mol. C6AA /au·bohr⁶  :       4889.685062
 Mol. C8AA /au·bohr⁸  :     113336.531672
 Mol. α(0) /au        :        109.620459


Wiberg/Mayer (AO) data.
largest (>0.10) Wiberg bond orders for each atom

 ---------------------------------------------------------------------------
     #   Z sym  total        # sym  WBO       # sym  WBO       # sym  WBO
 ---------------------------------------------------------------------------
     1   7 N    3.675 --     2 C    0.918    11 H    0.913    13 H    0.910
                            12 H    0.910
     2   6 C    3.881 --     3 C    1.009    15 H    0.967    14 H    0.961
                             1 N    0.918
     3   6 C    3.981 --     2 C    1.009     4 C    0.983    16 H    0.974
                            17 H    0.971
     4   6 C    3.986 --     5 C    1.006     3 C    0.983    18 H    0.974
                            19 H    0.965
     5   6 C    3.987 --    10 C    1.417     6 C    1.411     4 C    1.006
                             8 C    0.110
     6   6 C    3.992 --     7 C    1.448     5 C    1.411    20 H    0.969
                             9 C    0.112
     7   6 C    3.991 --     6 C    1.448     8 C    1.436    21 H    0.970
                            10 C    0.110
     8   6 C    3.991 --     9 C    1.443     7 C    1.436    22 H    0.970
                             5 C    0.110
     9   6 C    3.991 --     8 C    1.443    10 C    1.440    23 H    0.970
                             6 C    0.112
    10   6 C    3.991 --     9 C    1.440     5 C    1.417    24 H    0.969
                             7 C    0.110
    11   1 H    0.927 --     1 N    0.913
    12   1 H    0.926 --     1 N    0.910
    13   1 H    0.926 --     1 N    0.910
    14   1 H    0.988 --     2 C    0.961
    15   1 H    0.989 --     2 C    0.967
    16   1 H    0.996 --     3 C    0.974
    17   1 H    0.996 --     3 C    0.971
    18   1 H    0.997 --     4 C    0.974
    19   1 H    0.994 --     4 C    0.965
    20   1 H    0.999 --     6 C    0.969
    21   1 H    0.998 --     7 C    0.970
    22   1 H    0.997 --     8 C    0.970
    23   1 H    0.998 --     9 C    0.970
    24   1 H    0.999 --    10 C    0.969
 ---------------------------------------------------------------------------

Topologies differ in total number of bonds
Writing topology from bond orders to xtbtopo.mol

molecular dipole:
                 x           y           z       tot (Debye)
 q only:        2.998      -2.878      -3.616
   full:        2.740      -2.930      -3.612      13.722
molecular quadrupole (traceless):
                xx          xy          yy          xz          yz          zz
 q only:        1.811     -11.297      -5.571     -20.024      15.399       3.760
  q+dip:       -3.907     -12.839      -2.785     -20.002      14.510       6.692
   full:       -1.298     -11.251      -3.837     -19.147      15.109       5.135

           -------------------------------------------------
          |                Geometry Summary                 |
           -------------------------------------------------

      molecular mass/u    :      136.2144968
   center of mass at/Å    :        4.3226071      -0.8398707      -2.9671217
  moments of inertia/u·Å² :        0.2091516E+03   0.6932325E+03   0.7163360E+03
rotational constants/cm⁻¹ :        0.8060005E-01   0.2431743E-01   0.2353313E-01

 * 23 selected distances

     #   Z          #   Z                                           value/Å
     1   7 N        2   6 C                                       1.4981158
     2   6 C        3   6 C                                       1.5212229
     3   6 C        4   6 C                                       1.5367699 (max)
     5   6 C        6   6 C                                       1.3902982
     6   6 C        7   6 C                                       1.3833603
     7   6 C        8   6 C                                       1.3854046
     8   6 C        9   6 C                                       1.3842684
     5   6 C       10   6 C                                       1.3890148
     9   6 C       10   6 C                                       1.3849257
     1   7 N       11   1 H                                       1.0273703 (min)
     1   7 N       12   1 H                                       1.0282986
     1   7 N       13   1 H                                       1.0285088
     2   6 C       14   1 H                                       1.0918238
     2   6 C       15   1 H                                       1.0905382
     3   6 C       16   1 H                                       1.0910922
     3   6 C       17   1 H                                       1.0918527
     4   6 C       18   1 H                                       1.0903584
     4   6 C       19   1 H                                       1.0903267
     6   6 C       20   1 H                                       1.0806173
     7   6 C       21   1 H                                       1.0789517
     8   6 C       22   1 H                                       1.0787561
     9   6 C       23   1 H                                       1.0795793
    10   6 C       24   1 H                                       1.0814378

 * 4 distinct bonds (by element types)

   Z      Z             #   av. dist./Å        max./Å        min./Å
   1 H    6 C          11     1.0859395     1.0918527     1.0787561
   6 C    6 C           8     1.4219081     1.5367699     1.3833603
   1 H    7 N           3     1.0280593     1.0285088     1.0273703
   6 C    7 N           1     1.4981158     1.4981158     1.4981158


optimized geometry written to: xtbopt.xyz


           -------------------------------------------------
          | TOTAL ENERGY              -28.884408777196 Eh   |
          | GRADIENT NORM               0.000842316172 Eh/α |
          | HOMO-LUMO GAP               4.771628258869 eV   |
           -------------------------------------------------

------------------------------------------------------------------------
 * finished run on 2023/01/23 at 19:59:06.328     
------------------------------------------------------------------------
 total:
 * wall-time:     0 d,  0 h,  0 min,  0.384 sec
 *  cpu-time:     0 d,  0 h,  0 min, 35.525 sec
 * ratio c/w:    92.511 speedup
 SCF:
 * wall-time:     0 d,  0 h,  0 min,  0.044 sec
 *  cpu-time:     0 d,  0 h,  0 min,  5.782 sec
 * ratio c/w:   130.147 speedup
 ANC optimizer:
 * wall-time:     0 d,  0 h,  0 min,  0.314 sec
 *  cpu-time:     0 d,  0 h,  0 min, 26.704 sec
 * ratio c/w:    84.910 speedup

