 Entering Gaussian System
 *********************************************
 Gaussian 98:
 frequency output generated by the xtb code
 *********************************************
                         Standard orientation:
 --------------------------------------------------------------------
  Center     Atomic     Atomic              Coordinates (Angstroms)
  Number     Number      Type              X           Y           Z
 --------------------------------------------------------------------
    1          7             0       -3.008141    1.318357    0.612918
    2          6             0       -2.272773    1.780981   -0.594785
    3          6             0       -0.970227    1.085164   -0.745439
    4          6             0        0.065147    1.327580    0.054157
    5          6             0        1.352433    0.628713   -0.016196
    6          6             0        1.451665   -0.676569   -0.497834
    7          6             0        2.672071   -1.319245   -0.550377
    8          6             0        3.815076   -0.673480   -0.120552
    9          6             0        3.734945    0.616761    0.366276
   10          6             0        2.515798    1.261608    0.420489
   11         17             0       -2.991160   -2.147474    0.338764
   12          1             0       -3.946319    1.743762    0.694221
   13          1             0       -2.481717    1.540566    1.477286
   14          1             0       -3.121447    0.291317    0.585240
   15          1             0       -2.107057    2.863850   -0.538178
   16          1             0       -2.892417    1.625393   -1.487263
   17          1             0       -0.878864    0.326612   -1.505798
   18          1             0       -0.035996    2.090652    0.808287
   19          1             0        0.559861   -1.192394   -0.813260
   20          1             0        2.732965   -2.329176   -0.924796
   21          1             0        4.768304   -1.177045   -0.162135
   22          1             0        4.626569    1.121087    0.704722
   23          1             0        2.452845    2.268849    0.798818
 --------------------------------------------------------------------
     1 basis functions        1 primitive gaussians
     1 alpha electrons        1 beta electrons

 Harmonic frequencies (cm**-1), IR intensities (km*mol⁻¹),
 Raman scattering activities (A**4/amu), Raman depolarization ratios,
 reduced masses (AMU), force constants (mDyne/A) and normal coordinates:
                      1                      2                      3
                        a                      a                      a 
 Frequencies --  -148.5066               -86.6388                -8.0108
 Red. masses --    20.0794                 7.8813                12.0954
 Frc consts  --     0.0000                 0.0000                 0.0000
 IR Inten    --   138.8843                 2.4035                 0.7611
 Raman Activ --     0.0000                 0.0000                 0.0000
 Depolar     --     0.0000                 0.0000                 0.0000
 Atom AN      X      Y      Z        X      Y      Z        X      Y      Z
   1   7     0.02   0.63   0.08    -0.20  -0.06   0.05    -0.05  -0.12  -0.06
   2   6     0.06   0.17  -0.07     0.03   0.06   0.21     0.06   0.16   0.11
   3   6    -0.03  -0.01   0.03    -0.16  -0.28   0.23     0.06   0.17   0.08
   4   6     0.01   0.03  -0.02     0.17   0.21  -0.34     0.06   0.15   0.09
   5   6    -0.01  -0.01   0.01     0.08   0.07  -0.17     0.03   0.08   0.07
   6   6    -0.00  -0.00  -0.01     0.09   0.04  -0.09    -0.13  -0.04   0.37
   7   6     0.00   0.01  -0.02     0.07  -0.00   0.04    -0.18  -0.12   0.33
   8   6    -0.00   0.01  -0.01     0.05  -0.04   0.14    -0.07  -0.08  -0.03
   9   6    -0.01   0.00   0.02     0.05  -0.02   0.09     0.09   0.05  -0.34
  10   6    -0.02  -0.01   0.03     0.07   0.03  -0.08     0.13   0.13  -0.28
  11  17    -0.02  -0.62  -0.02    -0.13   0.00  -0.07     0.01  -0.23  -0.21
  12   1     0.04   0.25   0.02    -0.05  -0.00  -0.00    -0.02  -0.04  -0.01
  13   1     0.04   0.17   0.00    -0.08  -0.07   0.04    -0.03  -0.08   0.01
  14   1    -0.08   0.20   0.07    -0.07  -0.01  -0.04    -0.00  -0.03  -0.08
  15   1     0.05   0.05  -0.09     0.09  -0.00   0.14     0.02   0.04   0.10
  16   1    -0.00   0.01  -0.00     0.02   0.12   0.03     0.04   0.10   0.00
  17   1    -0.03  -0.03   0.04    -0.19  -0.28   0.25     0.02   0.05   0.02
  18   1     0.02   0.04  -0.03     0.15   0.26  -0.29     0.02   0.04   0.03
  19   1     0.00  -0.00  -0.01     0.03   0.01  -0.05    -0.06  -0.02   0.19
  20   1     0.00   0.01  -0.01     0.02  -0.00   0.02    -0.09  -0.06   0.16
  21   1     0.00   0.01  -0.01     0.01  -0.02   0.07    -0.03  -0.04  -0.02
  22   1    -0.01   0.00   0.01     0.01  -0.02   0.06     0.05   0.02  -0.18
  23   1    -0.01  -0.01   0.02     0.02   0.01  -0.03     0.07   0.07  -0.15
                      4                      5                      6
                        a                      a                      a 
 Frequencies --    45.3994                78.6926               114.2955
 Red. masses --    23.3498                17.4591                11.6156
 Frc consts  --     0.0000                 0.0000                 0.0000
 IR Inten    --    10.3945                11.2315                17.0548
 Raman Activ --     0.0000                 0.0000                 0.0000
 Depolar     --     0.0000                 0.0000                 0.0000
 Atom AN      X      Y      Z        X      Y      Z        X      Y      Z
   1   7     0.01   0.02   0.04    -0.21   0.24  -0.01     0.31   0.05   0.41
   2   6    -0.08   0.12   0.02    -0.01  -0.04  -0.00    -0.07  -0.04   0.13
   3   6    -0.09   0.13  -0.07    -0.13  -0.30   0.20    -0.10  -0.03  -0.18
   4   6    -0.05   0.14  -0.14    -0.09  -0.20   0.11    -0.09  -0.17  -0.16
   5   6    -0.10   0.05  -0.10    -0.09  -0.20   0.15    -0.04  -0.07  -0.19
   6   6    -0.18   0.04  -0.10    -0.01  -0.21   0.21     0.06  -0.13  -0.02
   7   6    -0.24  -0.08   0.02     0.07  -0.06   0.04     0.10  -0.08   0.23
   8   6    -0.22  -0.20   0.14     0.06   0.11  -0.18     0.02   0.04   0.27
   9   6    -0.13  -0.19   0.13    -0.03   0.10  -0.17    -0.07   0.14  -0.02
  10   6    -0.07  -0.06   0.01    -0.11  -0.06   0.00    -0.11   0.08  -0.23
  11  17     0.72   0.02   0.01     0.36   0.34  -0.20    -0.05   0.11  -0.23
  12   1    -0.02  -0.05   0.01    -0.05   0.09  -0.05     0.12   0.08   0.22
  13   1    -0.01   0.04   0.01    -0.07   0.08   0.00     0.19  -0.05   0.06
  14   1     0.08  -0.00   0.02    -0.07   0.07   0.02    -0.00   0.03   0.08
  15   1    -0.03   0.03   0.02     0.05  -0.02  -0.03    -0.01  -0.01   0.00
  16   1    -0.04   0.05   0.01     0.01  -0.01  -0.01    -0.09  -0.03   0.09
  17   1    -0.05   0.02  -0.01    -0.07  -0.15   0.12    -0.04   0.04  -0.11
  18   1     0.00   0.06  -0.06    -0.00   0.00  -0.02    -0.04  -0.10   0.00
  19   1    -0.06   0.04  -0.05     0.00  -0.09   0.10     0.03  -0.05  -0.02
  20   1    -0.09  -0.02   0.01     0.04  -0.02   0.02     0.06  -0.04   0.12
  21   1    -0.08  -0.09   0.07     0.03   0.07  -0.10     0.01   0.02   0.14
  22   1    -0.03  -0.08   0.07    -0.01   0.06  -0.09    -0.04   0.07  -0.01
  23   1    -0.00  -0.02   0.00    -0.05  -0.02  -0.00    -0.06   0.04  -0.12
                      7                      8                      9
                        a                      a                      a 
 Frequencies --   144.9146               205.0112               290.0111
 Red. masses --     9.5232                 9.1151                 4.9239
 Frc consts  --     0.0000                 0.0000                 0.0000
 IR Inten    --     3.2092                14.7669                 1.4041
 Raman Activ --     0.0000                 0.0000                 0.0000
 Depolar     --     0.0000                 0.0000                 0.0000
 Atom AN      X      Y      Z        X      Y      Z        X      Y      Z
   1   7     0.20   0.04   0.19     0.39  -0.15  -0.04     0.00   0.03   0.16
   2   6    -0.09  -0.46  -0.17     0.17   0.17  -0.03    -0.16   0.03   0.02
   3   6     0.06  -0.20   0.09     0.00  -0.06  -0.19    -0.06   0.19  -0.10
   4   6     0.05   0.22  -0.01     0.00   0.09  -0.24     0.05   0.12  -0.21
   5   6     0.04   0.20   0.09    -0.11  -0.07   0.15     0.00  -0.05  -0.05
   6   6    -0.12   0.17   0.13    -0.12  -0.10   0.23     0.06  -0.13   0.14
   7   6    -0.20   0.05   0.00    -0.07   0.03  -0.01     0.11  -0.06   0.11
   8   6    -0.10  -0.07  -0.08    -0.05   0.17  -0.26     0.14   0.06  -0.15
   9   6     0.05  -0.08  -0.02    -0.12   0.05   0.05     0.04  -0.01   0.02
  10   6     0.13   0.07   0.05    -0.16  -0.07   0.27    -0.01  -0.11   0.11
  11  17    -0.03   0.08  -0.18    -0.03  -0.04   0.06    -0.09  -0.03  -0.06
  12   1     0.07   0.05   0.08     0.14   0.01   0.11    -0.18  -0.35  -0.17
  13   1     0.13   0.06  -0.01     0.19  -0.17  -0.03    -0.19   0.41   0.06
  14   1     0.01   0.02   0.13     0.03  -0.03  -0.11     0.39  -0.05   0.24
  15   1    -0.11  -0.11  -0.23     0.11   0.03   0.08    -0.11   0.02  -0.05
  16   1    -0.04  -0.33   0.00     0.01   0.15   0.00    -0.06  -0.07   0.03
  17   1     0.06  -0.12   0.10    -0.07  -0.12   0.04    -0.04   0.04  -0.02
  18   1     0.00   0.13  -0.07     0.02   0.15  -0.19     0.05   0.05  -0.07
  19   1    -0.05   0.07   0.07    -0.04  -0.04   0.10     0.02  -0.06   0.06
  20   1    -0.10   0.02  -0.01    -0.01   0.02  -0.02     0.04  -0.03   0.05
  21   1    -0.04  -0.04  -0.05     0.00   0.09  -0.17     0.05   0.05  -0.11
  22   1     0.04  -0.06  -0.01    -0.03   0.02   0.01     0.00   0.01   0.02
  23   1     0.08   0.02   0.02    -0.07  -0.04   0.12    -0.01  -0.05   0.07
                     10                     11                     12
                        a                      a                      a 
 Frequencies --   320.1589               364.2542               377.7828
 Red. masses --     7.8592                 8.8172                 8.7884
 Frc consts  --     0.0000                 0.0000                 0.0000
 IR Inten    --     5.7845                 0.5924                 2.8536
 Raman Activ --     0.0000                 0.0000                 0.0000
 Depolar     --     0.0000                 0.0000                 0.0000
 Atom AN      X      Y      Z        X      Y      Z        X      Y      Z
   1   7     0.31  -0.00  -0.06    -0.03   0.01   0.02     0.12  -0.07  -0.08
   2   6     0.31   0.05   0.00    -0.03   0.01   0.01    -0.13   0.02  -0.16
   3   6     0.10  -0.26   0.15    -0.01   0.03  -0.04     0.06   0.32   0.33
   4   6    -0.00  -0.12   0.19    -0.02  -0.01  -0.02     0.15   0.30   0.19
   5   6    -0.06  -0.04   0.07     0.00  -0.01  -0.00    -0.14  -0.25  -0.01
   6   6    -0.11   0.04  -0.14    -0.05  -0.16   0.40    -0.00  -0.23  -0.11
   7   6    -0.11   0.07  -0.12     0.09   0.14  -0.37     0.13  -0.03  -0.06
   8   6    -0.20   0.03   0.19     0.03  -0.00  -0.01     0.04   0.04   0.11
   9   6    -0.13   0.12  -0.05    -0.05  -0.15   0.39    -0.10   0.07  -0.03
  10   6    -0.10   0.15  -0.17     0.07   0.14  -0.38    -0.19  -0.13  -0.14
  11  17    -0.07  -0.03  -0.02    -0.00   0.00  -0.00    -0.00  -0.01   0.00
  12   1    -0.04  -0.25  -0.16    -0.01   0.00   0.00     0.05   0.01   0.09
  13   1    -0.07   0.26   0.01    -0.01   0.00   0.01     0.12  -0.08  -0.06
  14   1     0.35  -0.04   0.10    -0.01   0.00   0.00    -0.01  -0.01  -0.07
  15   1     0.16   0.00   0.03    -0.01   0.00   0.01    -0.18   0.03  -0.14
  16   1     0.09   0.07  -0.01    -0.01   0.01   0.01     0.01  -0.17  -0.05
  17   1     0.01  -0.12   0.09     0.00   0.02  -0.03     0.03  -0.03   0.22
  18   1     0.00   0.02   0.00    -0.01  -0.01   0.00     0.20   0.18  -0.02
  19   1    -0.03   0.02  -0.06    -0.04  -0.10   0.26     0.03  -0.10  -0.07
  20   1    -0.01   0.03  -0.06     0.05   0.09  -0.24     0.09  -0.00  -0.04
  21   1    -0.07  -0.02   0.13     0.01   0.00  -0.00     0.02   0.03   0.07
  22   1    -0.03   0.03  -0.03    -0.04  -0.09   0.24    -0.05   0.07  -0.01
  23   1    -0.05   0.06  -0.10     0.04   0.09  -0.25    -0.10  -0.03  -0.07
                     13                     14                     15
                        a                      a                      a 
 Frequencies --   430.0574               499.1252               587.3937
 Red. masses --     9.7661                 9.7341                11.0495
 Frc consts  --     0.0000                 0.0000                 0.0000
 IR Inten    --     3.2876                 1.8845                 0.7580
 Raman Activ --     0.0000                 0.0000                 0.0000
 Depolar     --     0.0000                 0.0000                 0.0000
 Atom AN      X      Y      Z        X      Y      Z        X      Y      Z
   1   7    -0.17   0.04   0.06     0.19  -0.01  -0.14     0.00   0.00   0.01
   2   6     0.25  -0.23   0.16    -0.08   0.15  -0.12     0.06  -0.04   0.02
   3   6     0.32   0.03   0.01    -0.19  -0.11   0.30     0.01  -0.07  -0.05
   4   6     0.30   0.06  -0.05    -0.14  -0.12   0.22    -0.08   0.08   0.02
   5   6     0.10  -0.04  -0.35     0.04   0.21  -0.43    -0.18  -0.09  -0.06
   6   6    -0.16  -0.16  -0.06     0.04   0.07  -0.04    -0.37  -0.03  -0.10
   7   6    -0.13  -0.08   0.09    -0.01  -0.06   0.22    -0.11   0.46   0.17
   8   6    -0.20   0.22  -0.15     0.10   0.07  -0.28     0.19   0.10   0.06
   9   6    -0.15   0.11   0.17    -0.02  -0.12   0.21     0.39   0.04   0.09
  10   6    -0.14   0.04   0.02     0.02   0.02  -0.09     0.09  -0.44  -0.17
  11  17     0.01   0.01  -0.00    -0.01  -0.01   0.00     0.00   0.00  -0.00
  12   1    -0.01   0.10  -0.10     0.03  -0.07   0.07     0.00   0.01  -0.03
  13   1    -0.12   0.00   0.06     0.11  -0.01  -0.07    -0.02   0.01   0.01
  14   1    -0.13   0.02   0.05     0.12  -0.01  -0.07    -0.01   0.00   0.02
  15   1     0.06  -0.06   0.04    -0.00   0.04  -0.05     0.06  -0.02   0.04
  16   1     0.10  -0.08   0.03     0.00   0.03  -0.05     0.01   0.04   0.01
  17   1     0.15   0.09  -0.07    -0.03  -0.02   0.08     0.04   0.00  -0.03
  18   1     0.09  -0.07   0.07    -0.01  -0.08   0.12    -0.05   0.00   0.02
  19   1    -0.07  -0.05   0.06    -0.00  -0.02   0.10    -0.05  -0.09  -0.04
  20   1     0.01  -0.05   0.11    -0.04  -0.07   0.21     0.00   0.13   0.06
  21   1    -0.04   0.09  -0.07     0.03   0.03  -0.10    -0.01  -0.09  -0.04
  22   1    -0.05  -0.01   0.12    -0.03  -0.09   0.21     0.06   0.09   0.05
  23   1    -0.12  -0.01   0.05     0.01  -0.04   0.09    -0.01  -0.12  -0.05
                     16                     17                     18
                        a                      a                      a 
 Frequencies --   595.7011               657.8336               724.6832
 Red. masses --    10.4236                 9.3106                 4.9820
 Frc consts  --     0.0000                 0.0000                 0.0000
 IR Inten    --     3.3431                 3.2573                24.1329
 Raman Activ --     0.0000                 0.0000                 0.0000
 Depolar     --     0.0000                 0.0000                 0.0000
 Atom AN      X      Y      Z        X      Y      Z        X      Y      Z
   1   7    -0.01   0.01   0.04    -0.03  -0.01   0.03     0.06   0.03  -0.09
   2   6     0.22  -0.14   0.08    -0.01  -0.00   0.00    -0.03   0.01   0.01
   3   6     0.13  -0.06  -0.11     0.03   0.05  -0.08    -0.13  -0.22   0.29
   4   6    -0.18   0.33   0.11     0.00  -0.03   0.00     0.10   0.22  -0.19
   5   6    -0.32   0.17  -0.01    -0.03  -0.17   0.41     0.01   0.05  -0.13
   6   6     0.19   0.16   0.04     0.04   0.09  -0.29    -0.02  -0.06   0.13
   7   6     0.17  -0.00   0.09    -0.07  -0.15   0.33     0.01  -0.02   0.06
   8   6     0.30  -0.17  -0.08    -0.00   0.12  -0.27    -0.01  -0.05   0.13
   9   6    -0.30  -0.22  -0.09    -0.03  -0.11   0.35    -0.05  -0.04   0.06
  10   6    -0.25  -0.09  -0.13     0.07   0.13  -0.26    -0.06  -0.08   0.15
  11  17     0.00   0.00  -0.00     0.00   0.00   0.00    -0.00  -0.00   0.00
  12   1     0.01   0.05  -0.09    -0.00   0.01  -0.00     0.00  -0.03   0.04
  13   1    -0.07   0.02   0.05    -0.01  -0.00   0.01     0.06   0.01  -0.05
  14   1    -0.05   0.01   0.05    -0.02  -0.00   0.01     0.05   0.00  -0.02
  15   1     0.13  -0.05   0.09    -0.02   0.00  -0.00     0.06  -0.01   0.01
  16   1     0.04   0.05   0.02    -0.01  -0.01   0.01     0.01   0.04  -0.02
  17   1     0.14  -0.01  -0.02    -0.04  -0.04   0.03     0.11   0.23  -0.19
  18   1    -0.11   0.08   0.03    -0.00   0.05  -0.06    -0.06  -0.20   0.20
  19   1     0.10  -0.03   0.01     0.04   0.09  -0.27     0.03   0.08  -0.22
  20   1    -0.05  -0.01   0.04     0.01  -0.00  -0.01     0.04   0.10  -0.27
  21   1     0.11   0.00   0.00     0.03   0.10  -0.25     0.06   0.12  -0.30
  22   1    -0.14   0.00   0.02     0.02  -0.00  -0.02     0.03   0.12  -0.29
  23   1     0.01  -0.03  -0.01     0.04   0.11  -0.26     0.03   0.10  -0.27
                     19                     20                     21
                        a                      a                      a 
 Frequencies --   775.8119               818.6676               858.6791
 Red. masses --     6.7967                 6.3948                 5.9674
 Frc consts  --     0.0000                 0.0000                 0.0000
 IR Inten    --     4.4099                13.5114                21.9182
 Raman Activ --     0.0000                 0.0000                 0.0000
 Depolar     --     0.0000                 0.0000                 0.0000
 Atom AN      X      Y      Z        X      Y      Z        X      Y      Z
   1   7     0.01   0.02  -0.05     0.05   0.07  -0.02     0.06   0.08   0.06
   2   6    -0.09   0.00  -0.02     0.09   0.13   0.15     0.12   0.07   0.10
   3   6    -0.13  -0.23   0.19    -0.01  -0.03   0.12    -0.03  -0.08  -0.10
   4   6     0.08   0.35  -0.22     0.23  -0.22  -0.23    -0.26   0.23   0.10
   5   6    -0.03  -0.15   0.34    -0.01  -0.05   0.12    -0.07   0.07  -0.06
   6   6     0.03  -0.04  -0.14    -0.04   0.17   0.02     0.07  -0.09  -0.10
   7   6     0.04  -0.09  -0.09    -0.03   0.29   0.07     0.06  -0.25  -0.16
   8   6    -0.03   0.09  -0.13     0.18  -0.08  -0.06    -0.16   0.09   0.02
   9   6     0.05   0.06  -0.03    -0.22  -0.12  -0.08     0.21   0.09   0.14
  10   6     0.05   0.06  -0.13    -0.12  -0.01  -0.02     0.07  -0.08   0.10
  11  17    -0.00  -0.00  -0.00    -0.00  -0.01   0.01    -0.00  -0.00   0.01
  12   1    -0.01  -0.03   0.06    -0.03  -0.07  -0.06    -0.04  -0.08  -0.12
  13   1     0.06   0.02  -0.05    -0.14  -0.18   0.14    -0.22  -0.21   0.21
  14   1     0.04  -0.00  -0.00     0.08   0.02  -0.30     0.07   0.02  -0.33
  15   1     0.07  -0.01   0.04    -0.16   0.08  -0.29     0.00   0.03  -0.24
  16   1    -0.02   0.09  -0.02     0.03  -0.33   0.10    -0.06  -0.20   0.13
  17   1     0.14   0.24  -0.23    -0.09   0.09  -0.08     0.01  -0.05   0.01
  18   1    -0.13  -0.13   0.15     0.06  -0.12  -0.01    -0.19   0.05   0.02
  19   1    -0.03  -0.06   0.12    -0.02   0.03   0.05    -0.00  -0.09   0.12
  20   1     0.01  -0.11   0.21    -0.11   0.05   0.09     0.07  -0.12   0.10
  21   1    -0.05  -0.09   0.29     0.03  -0.07   0.08    -0.03   0.04  -0.01
  22   1    -0.01  -0.09   0.23    -0.10   0.01   0.02     0.11   0.04  -0.12
  23   1    -0.03  -0.06   0.16    -0.00   0.01  -0.03     0.03   0.06  -0.17
                     22                     23                     24
                        a                      a                      a 
 Frequencies --   870.6097               899.3496               923.3060
 Red. masses --     3.5218                 3.7283                 5.1367
 Frc consts  --     0.0000                 0.0000                 0.0000
 IR Inten    --     8.2675                 0.7871                22.7872
 Raman Activ --     0.0000                 0.0000                 0.0000
 Depolar     --     0.0000                 0.0000                 0.0000
 Atom AN      X      Y      Z        X      Y      Z        X      Y      Z
   1   7    -0.06  -0.03   0.02    -0.04   0.00   0.04     0.20  -0.03  -0.20
   2   6    -0.07  -0.03  -0.07    -0.02   0.03  -0.04    -0.01  -0.11   0.21
   3   6     0.03   0.03  -0.00     0.02  -0.03  -0.00    -0.13   0.09   0.07
   4   6     0.09  -0.06  -0.02     0.05   0.00  -0.02    -0.06  -0.03  -0.05
   5   6     0.02  -0.02   0.01     0.01  -0.04   0.07    -0.02   0.01  -0.01
   6   6     0.01   0.10  -0.20     0.01   0.08  -0.22    -0.00  -0.05   0.18
   7   6     0.02   0.13  -0.13     0.01   0.03  -0.02     0.02   0.04  -0.18
   8   6     0.06  -0.00  -0.06    -0.01  -0.11   0.26    -0.01   0.05  -0.11
   9   6    -0.08  -0.08   0.11    -0.05  -0.07   0.14    -0.00  -0.09   0.27
  10   6    -0.06  -0.08   0.26     0.03   0.11  -0.23     0.03   0.03  -0.14
  11  17    -0.00   0.00  -0.01    -0.00   0.00   0.00     0.00  -0.00  -0.00
  12   1    -0.00   0.01   0.08    -0.02  -0.04   0.06     0.11   0.16  -0.25
  13   1     0.10   0.10  -0.09     0.01  -0.01  -0.00    -0.03   0.09  -0.02
  14   1    -0.01  -0.01   0.12     0.02  -0.00  -0.02    -0.11   0.00   0.11
  15   1     0.02  -0.02   0.11     0.01   0.01  -0.01    -0.09  -0.01   0.07
  16   1     0.01   0.11  -0.06    -0.01   0.01  -0.01     0.03  -0.06   0.04
  17   1     0.01  -0.04   0.04     0.03   0.01  -0.02    -0.10   0.05  -0.01
  18   1     0.07  -0.03   0.02     0.00  -0.01  -0.00     0.00   0.01  -0.02
  19   1    -0.07  -0.12   0.38    -0.07  -0.15   0.44     0.04   0.09  -0.22
  20   1    -0.08  -0.12   0.36     0.00   0.01  -0.02    -0.04  -0.10   0.25
  21   1    -0.00  -0.05   0.10     0.07   0.15  -0.40    -0.04  -0.08   0.20
  22   1     0.02   0.11  -0.26     0.04   0.13  -0.33     0.09   0.17  -0.45
  23   1     0.08   0.19  -0.48    -0.07  -0.16   0.43    -0.03  -0.09   0.21
                     25                     26                     27
                        a                      a                      a 
 Frequencies --   927.3197               932.8357               973.5771
 Red. masses --     5.7599                 3.5154                 2.4196
 Frc consts  --     0.0000                 0.0000                 0.0000
 IR Inten    --    32.3252                 2.6328                13.8662
 Raman Activ --     0.0000                 0.0000                 0.0000
 Depolar     --     0.0000                 0.0000                 0.0000
 Atom AN      X      Y      Z        X      Y      Z        X      Y      Z
   1   7     0.26  -0.04  -0.26     0.08  -0.01  -0.08    -0.00  -0.08   0.08
   2   6    -0.01  -0.12   0.27    -0.01  -0.03   0.08     0.09   0.06  -0.11
   3   6    -0.17   0.12   0.09    -0.06   0.03   0.02     0.01   0.11  -0.07
   4   6    -0.06  -0.02  -0.08    -0.02  -0.00  -0.02     0.06   0.16  -0.19
   5   6    -0.04  -0.02   0.07    -0.00   0.02  -0.04     0.02  -0.03   0.03
   6   6     0.04   0.06  -0.14     0.02   0.06  -0.16     0.01   0.01   0.03
   7   6     0.00  -0.04  -0.00    -0.04  -0.14   0.30    -0.01   0.02  -0.00
   8   6    -0.04  -0.06   0.17     0.03   0.08  -0.20    -0.02   0.00  -0.00
   9   6     0.07   0.09  -0.17     0.01  -0.01   0.05    -0.01  -0.01  -0.01
  10   6     0.00  -0.03   0.07    -0.00  -0.02   0.06     0.00   0.00  -0.03
  11  17     0.00   0.00  -0.00     0.00   0.00  -0.00    -0.00   0.00  -0.00
  12   1     0.15   0.21  -0.33     0.04   0.06  -0.10     0.02   0.03  -0.03
  13   1    -0.05   0.11  -0.02    -0.02   0.03  -0.00    -0.04   0.01   0.03
  14   1    -0.14   0.01   0.14    -0.04   0.00   0.03    -0.07  -0.01   0.08
  15   1    -0.12  -0.01   0.08    -0.04  -0.00   0.02    -0.01   0.02  -0.03
  16   1     0.03  -0.09   0.06     0.00  -0.03   0.02     0.01  -0.01  -0.02
  17   1    -0.13   0.05   0.00    -0.03   0.01   0.01    -0.21  -0.40   0.39
  18   1    -0.01  -0.02  -0.00    -0.00  -0.01   0.00    -0.19  -0.49   0.46
  19   1    -0.04  -0.05   0.21    -0.06  -0.11   0.35     0.02  -0.01  -0.02
  20   1     0.00  -0.02   0.03     0.10   0.21  -0.58    -0.01   0.01  -0.00
  21   1     0.05   0.12  -0.31    -0.06  -0.15   0.40    -0.01  -0.01   0.01
  22   1    -0.04  -0.13   0.33     0.03   0.07  -0.16     0.00  -0.01  -0.00
  23   1     0.03   0.06  -0.14     0.00  -0.00   0.01    -0.02  -0.02   0.04
                     28                     29                     30
                        a                      a                      a 
 Frequencies --   988.4808              1016.5307              1048.4150
 Red. masses --    10.4016                 8.3567                 4.4070
 Frc consts  --     0.0000                 0.0000                 0.0000
 IR Inten    --     1.4489                17.7388                26.9681
 Raman Activ --     0.0000                 0.0000                 0.0000
 Depolar     --     0.0000                 0.0000                 0.0000
 Atom AN      X      Y      Z        X      Y      Z        X      Y      Z
   1   7    -0.07  -0.03   0.03    -0.05  -0.30   0.31     0.21  -0.01   0.16
   2   6     0.07   0.05  -0.03     0.34   0.30  -0.40    -0.26  -0.06  -0.30
   3   6     0.02   0.00   0.04    -0.15  -0.06   0.14    -0.06   0.02   0.05
   4   6     0.08  -0.11  -0.07    -0.06  -0.02  -0.02     0.10  -0.04   0.03
   5   6    -0.13   0.04   0.03    -0.03   0.03  -0.01     0.07  -0.08   0.00
   6   6     0.39   0.37   0.19    -0.05  -0.05  -0.03     0.08   0.08   0.04
   7   6    -0.04  -0.13  -0.05     0.01  -0.03  -0.01    -0.02   0.08   0.03
   8   6    -0.32   0.16   0.02     0.05  -0.02  -0.00    -0.07   0.02  -0.00
   9   6     0.10   0.11   0.06     0.03   0.00   0.01    -0.05  -0.02  -0.02
  10   6    -0.07  -0.49  -0.21     0.01   0.06   0.04     0.00  -0.06  -0.03
  11  17    -0.00  -0.00  -0.00     0.01   0.01  -0.01     0.00   0.00   0.00
  12   1    -0.01  -0.01   0.08     0.07   0.14  -0.14     0.06   0.07  -0.35
  13   1     0.05   0.02  -0.04    -0.13   0.04   0.12    -0.29  -0.12   0.28
  14   1    -0.00  -0.01   0.05    -0.24  -0.06   0.29    -0.10   0.02  -0.12
  15   1    -0.04   0.02  -0.02    -0.16   0.11  -0.09     0.23  -0.07   0.06
  16   1     0.08  -0.04  -0.04     0.14  -0.10  -0.11    -0.36   0.28   0.07
  17   1    -0.01   0.04  -0.03    -0.02   0.16  -0.13     0.18   0.00   0.03
  18   1     0.09  -0.03  -0.01    -0.03   0.07  -0.09     0.24  -0.02   0.05
  19   1     0.06   0.16   0.10    -0.03  -0.00   0.01     0.02   0.03   0.01
  20   1    -0.12  -0.03  -0.04     0.02  -0.01   0.01    -0.05   0.02   0.00
  21   1    -0.09   0.04  -0.00     0.02  -0.01   0.01    -0.03  -0.00  -0.01
  22   1    -0.03   0.10   0.04     0.02  -0.00  -0.01    -0.02  -0.00  -0.00
  23   1    -0.08  -0.14  -0.06     0.02   0.03  -0.01    -0.02  -0.02  -0.01
                     31                     32                     33
                        a                      a                      a 
 Frequencies --  1090.6350              1120.7387              1130.8632
 Red. masses --     6.6663                 5.3703                 6.9810
 Frc consts  --     0.0000                 0.0000                 0.0000
 IR Inten    --     0.2037                 6.9838                11.1763
 Raman Activ --     0.0000                 0.0000                 0.0000
 Depolar     --     0.0000                 0.0000                 0.0000
 Atom AN      X      Y      Z        X      Y      Z        X      Y      Z
   1   7    -0.01  -0.02  -0.01     0.03  -0.04  -0.03    -0.02   0.09   0.08
   2   6    -0.00   0.06   0.03    -0.17   0.16   0.03     0.27  -0.35  -0.13
   3   6     0.01  -0.04  -0.02     0.17  -0.18  -0.07    -0.29   0.34   0.13
   4   6    -0.02   0.01   0.01     0.09   0.04   0.10    -0.09  -0.10  -0.12
   5   6     0.02   0.01   0.00     0.19   0.10   0.04    -0.09   0.06   0.05
   6   6     0.13  -0.06  -0.01    -0.21  -0.01  -0.03    -0.13  -0.00  -0.02
   7   6     0.11   0.30   0.13    -0.01  -0.15  -0.06     0.04  -0.09  -0.03
   8   6    -0.38   0.22   0.03     0.10   0.13   0.06     0.03   0.07   0.03
   9   6    -0.22  -0.26  -0.14    -0.17  -0.05  -0.05    -0.04  -0.02  -0.02
  10   6     0.14  -0.11  -0.02     0.08  -0.24  -0.08     0.09  -0.04  -0.01
  11  17     0.00   0.00  -0.00     0.00  -0.00  -0.00    -0.00  -0.00   0.00
  12   1     0.01   0.02   0.00     0.03   0.04  -0.05    -0.05  -0.09   0.07
  13   1     0.01   0.02  -0.02    -0.02   0.04  -0.00     0.00  -0.08   0.04
  14   1    -0.01  -0.01   0.03    -0.06  -0.01   0.05     0.09   0.02  -0.13
  15   1    -0.06   0.02  -0.01    -0.13   0.05  -0.01     0.29  -0.13   0.03
  16   1     0.01  -0.03   0.01    -0.12   0.02   0.06     0.16   0.03  -0.11
  17   1     0.02   0.00  -0.02    -0.06  -0.06  -0.02    -0.15   0.10   0.03
  18   1    -0.02   0.01  -0.01    -0.14   0.02  -0.01     0.15  -0.04   0.01
  19   1     0.17  -0.23  -0.04    -0.25   0.30   0.04    -0.14   0.15   0.04
  20   1     0.36   0.09   0.09     0.17  -0.05   0.01     0.17  -0.03   0.02
  21   1    -0.10   0.09   0.02     0.19   0.32   0.15     0.09   0.16   0.08
  22   1     0.08  -0.30  -0.11    -0.22   0.24   0.06    -0.05   0.05   0.02
  23   1     0.35  -0.03   0.04     0.26  -0.07   0.01     0.30  -0.02   0.05
                     34                     35                     36
                        a                      a                      a 
 Frequencies --  1182.3082              1189.9243              1210.6430
 Red. masses --     1.3473                 2.9688                 3.0309
 Frc consts  --     0.0000                 0.0000                 0.0000
 IR Inten    --     0.0039                 1.7950                 4.6355
 Raman Activ --     0.0000                 0.0000                 0.0000
 Depolar     --     0.0000                 0.0000                 0.0000
 Atom AN      X      Y      Z        X      Y      Z        X      Y      Z
   1   7     0.00   0.00   0.00     0.03   0.05   0.04    -0.08  -0.12  -0.10
   2   6    -0.01  -0.00  -0.01     0.01  -0.11  -0.08     0.04   0.15   0.12
   3   6     0.01  -0.00   0.00    -0.01   0.07   0.05    -0.01  -0.06  -0.08
   4   6     0.01   0.01   0.01    -0.01   0.07   0.07    -0.05  -0.01  -0.03
   5   6     0.04   0.05   0.03     0.26  -0.08  -0.01    -0.21   0.02   0.01
   6   6     0.08  -0.04  -0.00     0.04   0.05   0.02    -0.10   0.10   0.03
   7   6     0.03   0.00   0.01     0.06   0.11   0.06     0.08  -0.06  -0.01
   8   6    -0.04  -0.07  -0.03    -0.01   0.00   0.00     0.06  -0.04  -0.01
   9   6    -0.02   0.03   0.01    -0.05  -0.13  -0.06     0.08  -0.01   0.01
  10   6    -0.08   0.04   0.00    -0.08  -0.08  -0.04    -0.07   0.06   0.00
  11  17     0.00  -0.00   0.00    -0.00  -0.00   0.00     0.00  -0.00  -0.00
  12   1     0.00  -0.00  -0.00    -0.01  -0.03  -0.01     0.02   0.05   0.05
  13   1    -0.00  -0.00   0.00    -0.03  -0.04   0.04     0.06   0.08  -0.10
  14   1    -0.00   0.00  -0.00     0.01   0.01  -0.05    -0.03  -0.04   0.14
  15   1     0.00  -0.00   0.00     0.01  -0.03   0.07     0.19   0.02  -0.26
  16   1    -0.01   0.01   0.00     0.06   0.05  -0.08    -0.20  -0.09   0.20
  17   1    -0.03  -0.00  -0.00    -0.24   0.05  -0.05     0.18  -0.05   0.04
  18   1    -0.02   0.00  -0.00    -0.33   0.09  -0.09     0.42  -0.08   0.11
  19   1    -0.06   0.12   0.03    -0.19   0.32   0.09    -0.19   0.28   0.05
  20   1     0.44   0.00   0.07     0.27   0.03   0.05     0.34  -0.02   0.05
  21   1    -0.32  -0.58  -0.28    -0.01  -0.01  -0.01     0.02  -0.00   0.00
  22   1    -0.25   0.37   0.10     0.14  -0.26  -0.08     0.19  -0.25  -0.06
  23   1     0.13   0.01   0.02    -0.54  -0.02  -0.10    -0.12   0.02  -0.01
                     37                     38                     39
                        a                      a                      a 
 Frequencies --  1228.9926              1268.7325              1275.6765
 Red. masses --     4.0759                 5.0748                 4.8000
 Frc consts  --     0.0000                 0.0000                 0.0000
 IR Inten    --     5.8168                 4.6692                 0.4657
 Raman Activ --     0.0000                 0.0000                 0.0000
 Depolar     --     0.0000                 0.0000                 0.0000
 Atom AN      X      Y      Z        X      Y      Z        X      Y      Z
   1   7    -0.11  -0.15  -0.09    -0.01  -0.00  -0.03    -0.01   0.05  -0.01
   2   6     0.13   0.03   0.06    -0.02  -0.06  -0.12     0.08  -0.02  -0.01
   3   6    -0.11   0.14   0.03     0.23  -0.04   0.06    -0.02  -0.12  -0.12
   4   6    -0.07   0.08   0.07     0.31  -0.04   0.11    -0.16   0.21   0.11
   5   6     0.30  -0.13  -0.01    -0.33   0.16  -0.01     0.08  -0.33  -0.11
   6   6     0.11  -0.07  -0.02    -0.02  -0.02  -0.01     0.15  -0.12  -0.02
   7   6    -0.04   0.10   0.04     0.02  -0.09  -0.03     0.10   0.12   0.06
   8   6    -0.05   0.03   0.00     0.05   0.02   0.02     0.02   0.10   0.04
   9   6    -0.10  -0.03  -0.03     0.10   0.07   0.04    -0.09   0.07   0.01
  10   6     0.07  -0.05  -0.00    -0.14   0.04  -0.01    -0.05   0.03   0.01
  11  17     0.00  -0.00  -0.00     0.00   0.00  -0.00    -0.00   0.00   0.00
  12   1     0.02   0.05   0.07    -0.00  -0.01   0.02    -0.01  -0.02   0.02
  13   1     0.07   0.08  -0.11    -0.01  -0.01   0.00    -0.00  -0.04   0.01
  14   1    -0.02  -0.05   0.17    -0.01  -0.00   0.03     0.02   0.01  -0.01
  15   1     0.47  -0.04  -0.38     0.05  -0.02  -0.03    -0.17   0.02   0.11
  16   1    -0.26  -0.06   0.23    -0.27   0.10   0.13     0.02  -0.01   0.00
  17   1    -0.15   0.07  -0.04    -0.62   0.12  -0.19    -0.16   0.00  -0.09
  18   1    -0.16   0.08  -0.06    -0.08  -0.00  -0.00     0.23   0.00   0.11
  19   1     0.05  -0.05   0.01     0.04  -0.09  -0.01    -0.22   0.37   0.10
  20   1    -0.24   0.03  -0.02     0.01  -0.03  -0.01    -0.37   0.04  -0.05
  21   1    -0.03  -0.01  -0.00    -0.02  -0.06  -0.03    -0.10  -0.15  -0.07
  22   1    -0.13   0.14   0.03     0.14  -0.15  -0.04     0.09  -0.15  -0.04
  23   1    -0.02  -0.02  -0.02     0.16   0.02   0.03     0.32   0.01   0.05
                     40                     41                     42
                        a                      a                      a 
 Frequencies --  1300.2071              1327.0972              1338.2354
 Red. masses --     4.1048                 3.9747                11.3263
 Frc consts  --     0.0000                 0.0000                 0.0000
 IR Inten    --     2.9993                36.0104                 0.4604
 Raman Activ --     0.0000                 0.0000                 0.0000
 Depolar     --     0.0000                 0.0000                 0.0000
 Atom AN      X      Y      Z        X      Y      Z        X      Y      Z
   1   7     0.02  -0.07   0.05     0.03  -0.12   0.17    -0.00  -0.00   0.01
   2   6    -0.21   0.07   0.07    -0.34   0.08   0.13     0.01  -0.00   0.01
   3   6     0.08   0.12   0.13     0.10  -0.11  -0.14    -0.05  -0.02  -0.06
   4   6     0.12  -0.17  -0.13    -0.02   0.11   0.10    -0.05   0.02   0.01
   5   6    -0.13   0.02  -0.03    -0.01  -0.03  -0.01     0.20   0.34   0.18
   6   6     0.05  -0.11  -0.03    -0.02   0.04   0.01     0.22  -0.32  -0.09
   7   6     0.01  -0.03  -0.01     0.03   0.00   0.01    -0.38   0.01  -0.06
   8   6     0.10   0.14   0.07    -0.03  -0.05  -0.03     0.16   0.30   0.14
   9   6     0.05   0.04   0.02    -0.02   0.02   0.01     0.21  -0.32  -0.09
  10   6    -0.22   0.00  -0.03     0.06   0.01   0.01    -0.37   0.00  -0.06
  11  17     0.00  -0.00  -0.00     0.00  -0.00   0.00    -0.00  -0.00   0.00
  12   1     0.04   0.06  -0.06     0.07   0.13  -0.15     0.00   0.01  -0.01
  13   1    -0.01   0.05   0.00     0.01   0.13  -0.00     0.01   0.00  -0.00
  14   1    -0.02  -0.02  -0.02    -0.01  -0.02  -0.16     0.01  -0.00  -0.02
  15   1     0.22  -0.01  -0.15     0.30  -0.03  -0.26    -0.01  -0.00   0.00
  16   1     0.15   0.01  -0.12     0.46   0.01  -0.35     0.04  -0.01  -0.02
  17   1     0.31  -0.05   0.15    -0.28   0.03  -0.13    -0.03   0.00  -0.03
  18   1    -0.44   0.03  -0.17     0.22  -0.01   0.09     0.22  -0.03   0.07
  19   1    -0.13   0.20   0.04     0.03  -0.05  -0.01     0.02  -0.03  -0.00
  20   1    -0.14  -0.01  -0.03     0.02   0.00  -0.00    -0.01   0.00  -0.00
  21   1    -0.06  -0.13  -0.06     0.01   0.02   0.00     0.01   0.01   0.01
  22   1     0.16  -0.21  -0.05    -0.02   0.03   0.01     0.00  -0.00   0.00
  23   1     0.29   0.00   0.05    -0.04   0.00  -0.00    -0.05   0.00  -0.00
                     43                     44                     45
                        a                      a                      a 
 Frequencies --  1367.0685              1405.4706              1435.3769
 Red. masses --     2.4231                 1.6990                 8.8164
 Frc consts  --     0.0000                 0.0000                 0.0000
 IR Inten    --   139.0444                70.5810                 1.7273
 Raman Activ --     0.0000                 0.0000                 0.0000
 Depolar     --     0.0000                 0.0000                 0.0000
 Atom AN      X      Y      Z        X      Y      Z        X      Y      Z
   1   7    -0.22  -0.15   0.14     0.08  -0.09   0.16     0.00   0.01   0.02
   2   6     0.11  -0.05  -0.06     0.10  -0.02  -0.01     0.02   0.00  -0.00
   3   6    -0.03   0.01   0.02    -0.01   0.01   0.03    -0.08   0.00  -0.04
   4   6     0.01  -0.01  -0.00    -0.01  -0.00  -0.01     0.00  -0.03  -0.00
   5   6     0.01   0.01   0.00    -0.01  -0.02  -0.01     0.18   0.33   0.17
   6   6    -0.01   0.00   0.00     0.02  -0.01   0.00    -0.29   0.01  -0.04
   7   6     0.01  -0.01  -0.00    -0.01   0.02   0.00     0.28  -0.21  -0.04
   8   6     0.00   0.01   0.00    -0.01  -0.01  -0.01     0.15   0.25   0.12
   9   6    -0.01   0.01  -0.00     0.02  -0.01  -0.00    -0.34   0.14  -0.00
  10   6     0.01  -0.01  -0.00    -0.01   0.02   0.01     0.15  -0.24  -0.07
  11  17    -0.01  -0.01   0.00     0.01   0.00   0.01     0.00   0.00   0.00
  12   1     0.22   0.54  -0.11    -0.10  -0.24  -0.04    -0.02  -0.04  -0.04
  13   1     0.09   0.22  -0.12     0.13   0.54  -0.21     0.04   0.01  -0.02
  14   1     0.52  -0.08  -0.36    -0.48   0.07  -0.51    -0.04   0.01  -0.02
  15   1    -0.14   0.01   0.07    -0.06   0.01   0.03    -0.00   0.00   0.01
  16   1    -0.13   0.05   0.08    -0.11   0.01   0.09     0.00  -0.02   0.01
  17   1     0.02  -0.00   0.01     0.02   0.01   0.00     0.01  -0.01   0.00
  18   1    -0.03  -0.00  -0.00    -0.02  -0.00  -0.00     0.11  -0.02   0.03
  19   1    -0.00   0.00  -0.01    -0.01   0.02  -0.00     0.01  -0.15  -0.06
  20   1     0.00   0.00  -0.01     0.00   0.01  -0.01    -0.19  -0.06  -0.05
  21   1    -0.00  -0.00  -0.00     0.00   0.01   0.00    -0.16  -0.29  -0.14
  22   1    -0.00  -0.01   0.00    -0.00   0.01   0.01     0.06  -0.21  -0.07
  23   1    -0.01  -0.01   0.00     0.01   0.00   0.01    -0.12  -0.07  -0.05
                     46                     47                     48
                        a                      a                      a 
 Frequencies --  1449.3323              1473.2018              1485.5723
 Red. masses --     1.9571                 8.9840                 2.0120
 Frc consts  --     0.0000                 0.0000                 0.0000
 IR Inten    --    83.1104                 0.9968                12.9432
 Raman Activ --     0.0000                 0.0000                 0.0000
 Depolar     --     0.0000                 0.0000                 0.0000
 Atom AN      X      Y      Z        X      Y      Z        X      Y      Z
   1   7     0.13  -0.10  -0.21     0.00  -0.00  -0.00     0.02  -0.02  -0.02
   2   6    -0.03  -0.01  -0.02     0.02   0.00  -0.01     0.13  -0.20   0.16
   3   6    -0.00   0.00  -0.01    -0.06  -0.00  -0.03    -0.02   0.01   0.02
   4   6    -0.01  -0.00  -0.00    -0.08   0.07   0.04    -0.03  -0.00  -0.02
   5   6     0.00   0.02   0.01     0.37  -0.22  -0.03     0.03  -0.01   0.01
   6   6    -0.01  -0.01  -0.01    -0.05   0.30   0.10    -0.01   0.02   0.01
   7   6     0.02  -0.01   0.00    -0.33  -0.10  -0.09    -0.02  -0.01  -0.01
   8   6     0.00   0.02   0.01     0.23  -0.12  -0.01     0.02   0.00   0.00
   9   6    -0.02  -0.00  -0.00    -0.08   0.32   0.11    -0.01   0.02   0.00
  10   6     0.02  -0.01  -0.00    -0.30  -0.11  -0.09    -0.01  -0.01  -0.01
  11  17     0.00   0.00   0.00     0.00  -0.00   0.00     0.00   0.00  -0.00
  12   1     0.14   0.17   0.62     0.00  -0.00   0.01     0.01  -0.00   0.09
  13   1    -0.55   0.33   0.24    -0.01   0.01   0.00    -0.08   0.01   0.05
  14   1    -0.04  -0.01  -0.07    -0.00   0.00  -0.01    -0.03  -0.01   0.04
  15   1     0.04  -0.02   0.09     0.02  -0.01   0.04    -0.36   0.08  -0.55
  16   1     0.04  -0.07  -0.02     0.01  -0.05   0.01     0.00   0.66  -0.11
  17   1    -0.01   0.00  -0.00    -0.01   0.01  -0.02     0.03  -0.00   0.02
  18   1     0.02  -0.00   0.00    -0.01   0.03   0.00     0.01  -0.00  -0.00
  19   1    -0.00  -0.00  -0.00     0.17  -0.19  -0.03     0.01  -0.01  -0.00
  20   1    -0.02  -0.00  -0.00     0.25  -0.03   0.03     0.01  -0.00   0.00
  21   1    -0.01  -0.02  -0.01     0.07  -0.03   0.00     0.00  -0.01  -0.00
  22   1    -0.00  -0.01  -0.00     0.16  -0.18  -0.04     0.01  -0.01  -0.00
  23   1    -0.02  -0.00  -0.00     0.27  -0.03   0.03     0.01  -0.00  -0.00
                     49                     50                     51
                        a                      a                      a 
 Frequencies --  1588.8767              1599.9924              1678.8675
 Red. masses --    11.4678                11.4917                11.5842
 Frc consts  --     0.0000                 0.0000                 0.0000
 IR Inten    --     0.5542                 5.9343                20.5414
 Raman Activ --     0.0000                 0.0000                 0.0000
 Depolar     --     0.0000                 0.0000                 0.0000
 Atom AN      X      Y      Z        X      Y      Z        X      Y      Z
   1   7    -0.00  -0.00   0.00     0.00   0.00  -0.00    -0.01  -0.00   0.02
   2   6    -0.01   0.00  -0.00    -0.00  -0.00   0.01    -0.06   0.02  -0.04
   3   6     0.08  -0.00   0.04    -0.06  -0.01  -0.04     0.58   0.05   0.35
   4   6    -0.05   0.02  -0.02     0.10  -0.00   0.04    -0.57  -0.07  -0.36
   5   6    -0.15  -0.37  -0.17    -0.26   0.05  -0.03     0.06   0.04   0.04
   6   6    -0.08   0.33   0.11     0.32  -0.24  -0.04     0.03  -0.07  -0.03
   7   6    -0.15  -0.22  -0.11    -0.49   0.06  -0.05    -0.05   0.02  -0.00
   8   6     0.22   0.48   0.22     0.23  -0.02   0.03     0.02  -0.04  -0.01
   9   6     0.01  -0.35  -0.13    -0.33   0.26   0.05    -0.06   0.07   0.02
  10   6     0.19   0.15   0.09     0.47  -0.08   0.04     0.07  -0.04  -0.00
  11  17     0.00  -0.00  -0.00     0.00   0.00  -0.00    -0.00  -0.00   0.00
  12   1    -0.00   0.00  -0.00    -0.00  -0.00  -0.00     0.00   0.01  -0.00
  13   1     0.00  -0.00  -0.00     0.00  -0.00  -0.00     0.00  -0.01   0.00
  14   1     0.00  -0.00   0.00    -0.00   0.00   0.00     0.01  -0.00   0.00
  15   1     0.01  -0.00   0.01     0.00   0.00  -0.00     0.01  -0.00   0.02
  16   1    -0.01  -0.00   0.00     0.01  -0.00  -0.00    -0.07   0.03   0.03
  17   1    -0.02   0.01  -0.01     0.02  -0.01  -0.00    -0.10   0.07   0.03
  18   1    -0.04   0.01  -0.02    -0.03   0.00   0.01     0.10  -0.06  -0.04
  19   1     0.08  -0.06  -0.01    -0.01   0.08   0.03    -0.01   0.00   0.01
  20   1     0.03  -0.06  -0.02     0.11   0.02   0.02     0.00   0.00   0.00
  21   1    -0.07  -0.11  -0.06     0.04  -0.04  -0.01     0.01  -0.00   0.00
  22   1    -0.08   0.03  -0.00     0.02  -0.09  -0.03     0.01  -0.02  -0.01
  23   1    -0.06   0.04   0.00    -0.10  -0.02  -0.02    -0.02  -0.01  -0.01
                     52                     53                     54
                        a                      a                      a 
 Frequencies --  2901.9528              2940.5383              2969.8721
 Red. masses --     1.9821                 1.9533                 1.5366
 Frc consts  --     0.0000                 0.0000                 0.0000
 IR Inten    --  1451.0522                25.0588                 9.9394
 Raman Activ --     0.0000                 0.0000                 0.0000
 Depolar     --     0.0000                 0.0000                 0.0000
 Atom AN      X      Y      Z        X      Y      Z        X      Y      Z
   1   7    -0.03  -0.26  -0.03     0.01   0.06   0.00     0.01   0.03   0.00
   2   6     0.01   0.06   0.02     0.11   0.23   0.13    -0.10   0.10  -0.17
   3   6    -0.00   0.00   0.00     0.00   0.00  -0.00    -0.01   0.00  -0.00
   4   6    -0.00  -0.00  -0.00     0.00  -0.00  -0.00     0.00   0.00   0.00
   5   6     0.00  -0.00   0.00    -0.00   0.00   0.00    -0.00   0.00   0.00
   6   6     0.00   0.00   0.00     0.00  -0.00  -0.00    -0.00  -0.00  -0.00
   7   6    -0.00  -0.00  -0.00    -0.00  -0.00  -0.00    -0.00   0.00   0.00
   8   6     0.00  -0.00   0.00    -0.00   0.00   0.00    -0.00   0.00  -0.00
   9   6     0.00   0.00   0.00    -0.00  -0.00  -0.00    -0.00  -0.00  -0.00
  10   6    -0.00  -0.00  -0.00     0.00  -0.00   0.00     0.00  -0.00  -0.00
  11  17    -0.00   0.01   0.00     0.00  -0.00  -0.00     0.00  -0.00   0.00
  12   1    -0.02  -0.00  -0.00     0.01  -0.00  -0.00     0.00   0.00  -0.00
  13   1     0.03  -0.01   0.04     0.00   0.00  -0.00    -0.02  -0.01  -0.04
  14   1     0.12   0.93   0.04    -0.02  -0.20  -0.01    -0.01  -0.07  -0.00
  15   1    -0.03  -0.21  -0.02    -0.12  -0.78  -0.04    -0.10  -0.51  -0.06
  16   1    -0.03   0.00  -0.03    -0.29  -0.06  -0.41     0.46   0.16   0.66
  17   1    -0.00   0.01   0.00    -0.00   0.02   0.02     0.00  -0.00  -0.00
  18   1    -0.00   0.01   0.01    -0.00   0.01   0.00     0.00  -0.00  -0.00
  19   1     0.00   0.00  -0.00    -0.00  -0.00  -0.00     0.00   0.00   0.00
  20   1     0.00   0.00   0.00    -0.00  -0.00  -0.00     0.00  -0.00  -0.00
  21   1    -0.00   0.00  -0.00     0.00  -0.00  -0.00     0.00  -0.00  -0.00
  22   1    -0.00  -0.00  -0.00     0.00   0.00   0.00     0.00   0.00  -0.00
  23   1    -0.00   0.00   0.00    -0.00   0.00   0.00     0.00   0.00  -0.00
                     55                     56                     57
                        a                      a                      a 
 Frequencies --  3089.4720              3093.2752              3095.6460
 Red. masses --     1.7522                 1.7997                 1.8000
 Frc consts  --     0.0000                 0.0000                 0.0000
 IR Inten    --     2.3233                21.6867                15.4882
 Raman Activ --     0.0000                 0.0000                 0.0000
 Depolar     --     0.0000                 0.0000                 0.0000
 Atom AN      X      Y      Z        X      Y      Z        X      Y      Z
   1   7    -0.00  -0.00  -0.00    -0.00   0.00  -0.00     0.00  -0.00   0.00
   2   6     0.00   0.00   0.00     0.00   0.00   0.00    -0.00  -0.00  -0.00
   3   6     0.00   0.00   0.01     0.01   0.04   0.05    -0.00  -0.02  -0.02
   4   6     0.00  -0.02  -0.02     0.01  -0.17  -0.17    -0.00   0.05   0.05
   5   6    -0.00   0.00   0.00    -0.00  -0.00  -0.00     0.00   0.01   0.00
   6   6    -0.01  -0.00  -0.00     0.01   0.00   0.00     0.03   0.01   0.01
   7   6    -0.00   0.07   0.03     0.00  -0.05  -0.02     0.01  -0.16  -0.06
   8   6     0.14  -0.08  -0.01    -0.05   0.03   0.00    -0.08   0.04   0.00
   9   6    -0.14  -0.08  -0.06    -0.01  -0.00  -0.00    -0.12  -0.06  -0.04
  10   6    -0.01   0.06   0.02    -0.00   0.06   0.02    -0.00   0.08   0.03
  11  17    -0.00  -0.00   0.00    -0.00  -0.00   0.00    -0.00   0.00  -0.00
  12   1    -0.00   0.00  -0.00    -0.00   0.00  -0.00     0.00  -0.00   0.00
  13   1     0.00   0.00   0.00     0.01   0.00   0.01    -0.00  -0.00  -0.01
  14   1     0.00   0.00  -0.00    -0.00  -0.01  -0.00     0.00   0.00   0.00
  15   1    -0.00  -0.00  -0.00    -0.00  -0.00  -0.00     0.00   0.00   0.00
  16   1    -0.00   0.00   0.00     0.00   0.00   0.00     0.00   0.00   0.00
  17   1     0.00  -0.02  -0.02     0.02  -0.18  -0.18    -0.01   0.09   0.09
  18   1    -0.01   0.08   0.08    -0.07   0.61   0.60     0.02  -0.19  -0.19
  19   1     0.03   0.02   0.01    -0.03  -0.01  -0.01    -0.12  -0.07  -0.04
  20   1     0.01  -0.27  -0.10    -0.01   0.17   0.06    -0.04   0.59   0.22
  21   1    -0.53   0.28   0.02     0.18  -0.09  -0.01     0.27  -0.14  -0.01
  22   1     0.53   0.30   0.20     0.02   0.01   0.01     0.40   0.23   0.15
  23   1     0.02  -0.24  -0.09     0.01  -0.20  -0.08     0.02  -0.30  -0.11
                     58                     59                     60
                        a                      a                      a 
 Frequencies --  3103.9029              3109.5453              3117.5780
 Red. masses --     1.8522                 1.8974                 1.8559
 Frc consts  --     0.0000                 0.0000                 0.0000
 IR Inten    --    74.5309                50.7006                14.3879
 Raman Activ --     0.0000                 0.0000                 0.0000
 Depolar     --     0.0000                 0.0000                 0.0000
 Atom AN      X      Y      Z        X      Y      Z        X      Y      Z
   1   7    -0.00   0.00  -0.00    -0.00  -0.00  -0.00     0.00  -0.00  -0.00
   2   6    -0.00   0.00  -0.00     0.00   0.00   0.00     0.00   0.01   0.01
   3   6     0.00   0.01   0.01    -0.00   0.04   0.04    -0.02   0.17   0.17
   4   6     0.00  -0.02  -0.02    -0.00  -0.01  -0.01    -0.01   0.06   0.05
   5   6     0.01  -0.00  -0.00     0.00  -0.00  -0.00    -0.00   0.00   0.00
   6   6     0.04   0.02   0.01    -0.03  -0.02  -0.01    -0.08  -0.05  -0.03
   7   6     0.01  -0.15  -0.06    -0.00   0.05   0.02     0.00  -0.04  -0.02
   8   6     0.14  -0.07  -0.01    -0.11   0.06   0.01     0.02  -0.01  -0.00
   9   6     0.01   0.00   0.00    -0.13  -0.07  -0.05     0.02   0.01   0.01
  10   6     0.01  -0.14  -0.05     0.01  -0.17  -0.06    -0.00   0.04   0.01
  11  17    -0.00   0.00   0.00    -0.00  -0.00   0.00     0.00   0.00  -0.00
  12   1    -0.00   0.00   0.00    -0.00   0.00   0.00    -0.01   0.00   0.00
  13   1     0.00   0.00   0.00     0.00   0.00   0.01     0.01   0.00   0.00
  14   1    -0.00  -0.00  -0.00     0.00   0.00  -0.00     0.00   0.00   0.00
  15   1    -0.00   0.00  -0.00    -0.00  -0.00   0.00    -0.00  -0.02  -0.00
  16   1     0.00   0.00   0.00    -0.00  -0.00  -0.00    -0.01  -0.00  -0.01
  17   1     0.00  -0.03  -0.03     0.02  -0.13  -0.13     0.07  -0.58  -0.59
  18   1    -0.01   0.08   0.08    -0.01   0.03   0.03     0.02  -0.20  -0.20
  19   1    -0.15  -0.09  -0.05     0.11   0.06   0.04     0.27   0.16   0.09
  20   1    -0.03   0.53   0.20     0.01  -0.18  -0.07    -0.01   0.13   0.05
  21   1    -0.46   0.24   0.02     0.35  -0.19  -0.02    -0.07   0.04   0.00
  22   1    -0.02  -0.01  -0.01     0.43   0.24   0.16    -0.06  -0.03  -0.02
  23   1    -0.03   0.50   0.19    -0.04   0.59   0.22     0.01  -0.12  -0.05
                     61                     62                     63
                        a                      a                      a 
 Frequencies --  3122.4837              3155.3395              3181.5695
 Red. masses --     1.8547                 1.8137                 1.7044
 Frc consts  --     0.0000                 0.0000                 0.0000
 IR Inten    --    16.6529                34.5856                18.2700
 Raman Activ --     0.0000                 0.0000                 0.0000
 Depolar     --     0.0000                 0.0000                 0.0000
 Atom AN      X      Y      Z        X      Y      Z        X      Y      Z
   1   7     0.00  -0.00  -0.00    -0.15  -0.03  -0.20    -0.21   0.10   0.03
   2   6     0.00   0.00   0.00    -0.00   0.00  -0.01    -0.00   0.00   0.00
   3   6    -0.01   0.07   0.07     0.00  -0.00  -0.00    -0.00   0.00   0.00
   4   6    -0.00   0.02   0.02     0.00   0.00   0.00     0.00   0.00   0.00
   5   6     0.01  -0.00   0.00    -0.00   0.00  -0.00    -0.00   0.00  -0.00
   6   6     0.21   0.12   0.07     0.00   0.00   0.00     0.00   0.00   0.00
   7   6    -0.00   0.06   0.02     0.00  -0.00  -0.00    -0.00   0.00   0.00
   8   6    -0.02   0.01  -0.00     0.00  -0.00  -0.00    -0.00   0.00   0.00
   9   6    -0.00  -0.00  -0.00     0.00   0.00   0.00    -0.00  -0.00  -0.00
  10   6    -0.00   0.00   0.00    -0.00   0.00   0.00     0.00  -0.00  -0.00
  11  17     0.00   0.00  -0.00     0.00  -0.00   0.00     0.00  -0.00  -0.00
  12   1    -0.01   0.00   0.00     0.08  -0.05  -0.03     0.88  -0.40  -0.05
  13   1     0.00   0.00   0.00     0.50   0.21   0.79    -0.08  -0.01  -0.08
  14   1    -0.00   0.00   0.00    -0.02  -0.06  -0.02    -0.01   0.05   0.00
  15   1    -0.00  -0.01  -0.00    -0.00  -0.01   0.00     0.00   0.01  -0.00
  16   1    -0.00  -0.00  -0.00     0.02   0.01   0.03    -0.00  -0.00  -0.00
  17   1     0.03  -0.24  -0.24    -0.00   0.01   0.01     0.00  -0.01  -0.01
  18   1     0.01  -0.08  -0.08     0.00  -0.01  -0.01    -0.00   0.00  -0.00
  19   1    -0.72  -0.41  -0.25    -0.00  -0.00  -0.00    -0.00  -0.00  -0.00
  20   1     0.01  -0.19  -0.07    -0.00   0.00   0.00     0.00  -0.00  -0.00
  21   1     0.05  -0.03  -0.00    -0.00   0.00   0.00     0.00  -0.00   0.00
  22   1     0.00   0.00   0.00    -0.00  -0.00  -0.00     0.00   0.00   0.00
  23   1     0.00  -0.02  -0.01     0.00  -0.00  -0.00    -0.00   0.00   0.00
