 Entering Gaussian System
 *********************************************
 Gaussian 98:
 frequency output generated by the xtb code
 *********************************************
                         Standard orientation:
 --------------------------------------------------------------------
  Center     Atomic     Atomic              Coordinates (Angstroms)
  Number     Number      Type              X           Y           Z
 --------------------------------------------------------------------
    1          7             0       -1.335250   -1.864873   -0.143982
    2          6             0       -1.110063   -1.386687   -1.539984
    3          6             0       -0.690795    0.079961   -1.643118
    4          6             0        0.657159    0.457865   -0.988203
    5          6             0        1.802633   -0.521162   -1.331616
    6          6             0        3.146037   -0.018758   -0.773481
    7          6             0        3.062914    0.207915    0.747339
    8          6             0        1.912490    1.166042    1.106871
    9          6             0        0.573755    0.656348    0.543887
   10         17             0       -3.040101    0.651289    1.579390
   11          1             0       -1.838995   -2.763231   -0.120119
   12          1             0       -1.891985   -1.175550    0.390549
   13          1             0       -0.446869   -2.004107    0.356295
   14          1             0       -2.033666   -1.537413   -2.114250
   15          1             0       -0.367778   -2.026242   -2.031485
   16          1             0       -1.478701    0.709016   -1.213256
   17          1             0       -0.652218    0.357009   -2.704589
   18          1             0        0.957623    1.439213   -1.395366
   19          1             0        1.854378   -0.682144   -2.416056
   20          1             0        1.576259   -1.501240   -0.898423
   21          1             0        3.415511    0.923020   -1.267214
   22          1             0        3.956063   -0.718973   -1.020053
   23          1             0        4.018737    0.583921    1.137555
   24          1             0        2.902761   -0.754533    1.248771
   25          1             0        2.125254    2.160350    0.695359
   26          1             0        1.848595    1.308714    2.194411
   27          1             0       -0.249400    1.336693    0.795909
   28          1             0        0.324302   -0.292870    1.024949
 --------------------------------------------------------------------
     1 basis functions        1 primitive gaussians
     1 alpha electrons        1 beta electrons

 Harmonic frequencies (cm**-1), IR intensities (km*mol⁻¹),
 Raman scattering activities (A**4/amu), Raman depolarization ratios,
 reduced masses (AMU), force constants (mDyne/A) and normal coordinates:
                      1                      2                      3
                        a                      a                      a 
 Frequencies --  -133.3797                45.3394                74.4592
 Red. masses --    21.1339                23.1385                11.3318
 Frc consts  --     0.0000                 0.0000                 0.0000
 IR Inten    --   126.7189                16.3168                 8.0176
 Raman Activ --     0.0000                 0.0000                 0.0000
 Depolar     --     0.0000                 0.0000                 0.0000
 Atom AN      X      Y      Z        X      Y      Z        X      Y      Z
   1   7     0.37  -0.39  -0.26     0.06  -0.12  -0.13     0.22   0.05  -0.07
   2   6     0.12  -0.09  -0.19    -0.04  -0.07  -0.13    -0.04   0.14  -0.07
   3   6    -0.01  -0.04  -0.00    -0.07  -0.06  -0.09    -0.00   0.13  -0.07
   4   6    -0.01  -0.03  -0.00    -0.12  -0.02  -0.01     0.04   0.07  -0.11
   5   6     0.01  -0.00  -0.01    -0.07   0.01   0.06    -0.11  -0.19   0.14
   6   6    -0.00   0.01  -0.00    -0.12   0.05   0.14    -0.06  -0.33   0.14
   7   6    -0.01  -0.01  -0.00    -0.22   0.06   0.13    -0.12  -0.08   0.10
   8   6    -0.03  -0.03   0.01    -0.28   0.02   0.06     0.05   0.21  -0.14
   9   6    -0.02  -0.05   0.00    -0.22  -0.04  -0.02    -0.02   0.41  -0.15
  10  17    -0.31   0.46   0.34     0.72   0.13  -0.00     0.01  -0.27   0.16
  11   1     0.17  -0.15  -0.10    -0.09   0.03  -0.02     0.13  -0.03  -0.02
  12   1     0.06  -0.18  -0.05     0.14   0.03   0.02     0.01  -0.05   0.01
  13   1     0.12  -0.04  -0.09     0.03  -0.16  -0.10     0.08   0.08  -0.04
  14   1     0.02  -0.03  -0.03    -0.02  -0.02  -0.02    -0.04   0.06   0.02
  15   1     0.04   0.01  -0.11    -0.02  -0.01  -0.06    -0.04   0.04  -0.07
  16   1    -0.01  -0.04   0.03    -0.03  -0.02  -0.04     0.01   0.04  -0.01
  17   1    -0.02   0.03   0.01    -0.01  -0.01  -0.03    -0.01   0.04  -0.02
  18   1    -0.01  -0.01   0.00    -0.04  -0.00   0.00     0.06  -0.02  -0.08
  19   1     0.00   0.00  -0.00    -0.00   0.00   0.02    -0.02  -0.11   0.05
  20   1     0.01  -0.01  -0.01    -0.02   0.00   0.01    -0.09  -0.02   0.09
  21   1    -0.00   0.01   0.00    -0.04   0.02   0.04     0.04  -0.13   0.00
  22   1     0.00   0.01  -0.00    -0.02   0.02   0.06    -0.05  -0.15   0.09
  23   1    -0.01   0.00   0.00    -0.07   0.03   0.05    -0.02  -0.06   0.03
  24   1     0.00  -0.00  -0.00    -0.06   0.02   0.04    -0.10   0.01   0.07
  25   1    -0.01  -0.01   0.01    -0.08   0.01   0.02     0.08   0.03  -0.08
  26   1    -0.01  -0.01   0.00    -0.10   0.01   0.02    -0.00   0.11  -0.05
  27   1    -0.01  -0.02   0.00    -0.08  -0.02  -0.02     0.04   0.20  -0.11
  28   1    -0.01  -0.01  -0.00    -0.06  -0.01  -0.01    -0.10   0.17   0.01
                      4                      5                      6
                        a                      a                      a 
 Frequencies --    89.4262               148.7779               185.2929
 Red. masses --    16.5669                 8.8368                 7.6102
 Frc consts  --     0.0000                 0.0000                 0.0000
 IR Inten    --     9.1738                 5.9654                23.6228
 Raman Activ --     0.0000                 0.0000                 0.0000
 Depolar     --     0.0000                 0.0000                 0.0000
 Atom AN      X      Y      Z        X      Y      Z        X      Y      Z
   1   7     0.26  -0.20   0.04    -0.23  -0.09  -0.27    -0.34  -0.36  -0.09
   2   6    -0.05   0.05   0.08    -0.16   0.10  -0.18     0.12  -0.14   0.02
   3   6    -0.22   0.11   0.33     0.01   0.06   0.07    -0.04  -0.07   0.18
   4   6    -0.13   0.06   0.19     0.04  -0.16   0.14     0.02   0.15  -0.03
   5   6    -0.21   0.02   0.05    -0.02  -0.27   0.26     0.02   0.14  -0.01
   6   6    -0.13  -0.04  -0.10     0.02  -0.05  -0.02     0.05   0.03   0.01
   7   6     0.05  -0.06  -0.09     0.22   0.37  -0.07     0.03  -0.12   0.02
   8   6     0.14  -0.02   0.06     0.06   0.20  -0.07     0.17   0.07  -0.01
   9   6     0.04   0.06   0.20     0.09  -0.12   0.14     0.08   0.34  -0.06
  10  17     0.14   0.02  -0.51    -0.00  -0.04   0.02    -0.02   0.01  -0.00
  11   1     0.17  -0.11   0.00    -0.14   0.02  -0.10    -0.33   0.04  -0.10
  12   1    -0.00  -0.12   0.02     0.02  -0.00  -0.02     0.08   0.01   0.02
  13   1     0.10   0.05  -0.01    -0.06  -0.13  -0.10    -0.14  -0.39  -0.02
  14   1    -0.04   0.01   0.06    -0.05   0.09  -0.06     0.09  -0.04  -0.08
  15   1    -0.02   0.06  -0.04    -0.07   0.02  -0.08     0.09  -0.01   0.05
  16   1    -0.06  -0.02   0.18     0.02   0.02   0.05    -0.02  -0.07   0.10
  17   1    -0.13   0.10   0.11     0.01   0.06   0.03    -0.07   0.01   0.06
  18   1    -0.04   0.02   0.05     0.05  -0.06   0.04    -0.02   0.03  -0.06
  19   1    -0.10   0.01   0.01    -0.03  -0.16   0.09     0.00   0.04  -0.00
  20   1    -0.05   0.01   0.02     0.01  -0.04   0.16    -0.01   0.05  -0.00
  21   1    -0.04  -0.01  -0.03    -0.03  -0.05  -0.09     0.03   0.02   0.03
  22   1    -0.05  -0.02  -0.06     0.01  -0.02   0.03     0.00  -0.00  -0.02
  23   1     0.03  -0.03  -0.05     0.06   0.20  -0.10     0.02  -0.09   0.04
  24   1     0.02  -0.02  -0.02     0.15   0.14   0.06    -0.05  -0.04  -0.02
  25   1     0.04  -0.01   0.01    -0.05   0.05  -0.06     0.11   0.01   0.00
  26   1     0.08  -0.01   0.02     0.05   0.09  -0.02     0.04   0.02  -0.00
  27   1     0.03   0.03   0.08    -0.00  -0.08   0.06     0.08   0.18  -0.05
  28   1     0.00   0.02   0.07     0.09  -0.05   0.05    -0.08   0.13  -0.01
                      7                      8                      9
                        a                      a                      a 
 Frequencies --   211.6151               244.5084               262.0541
 Red. masses --     6.0083                 7.4100                 6.8719
 Frc consts  --     0.0000                 0.0000                 0.0000
 IR Inten    --     4.1415                 2.9099                 0.6929
 Raman Activ --     0.0000                 0.0000                 0.0000
 Depolar     --     0.0000                 0.0000                 0.0000
 Atom AN      X      Y      Z        X      Y      Z        X      Y      Z
   1   7    -0.32   0.04  -0.17     0.16   0.22   0.01    -0.09  -0.15   0.01
   2   6     0.26  -0.15  -0.11     0.30  -0.05  -0.06    -0.37   0.04   0.02
   3   6    -0.02  -0.07   0.01     0.08  -0.00  -0.14     0.01  -0.06  -0.02
   4   6    -0.06   0.02   0.06    -0.05   0.01   0.08     0.10  -0.11  -0.12
   5   6    -0.08  -0.01   0.08    -0.20  -0.19   0.24     0.16  -0.12   0.12
   6   6    -0.05   0.01  -0.02    -0.16   0.09  -0.21     0.06   0.33  -0.03
   7   6    -0.01   0.01  -0.02     0.05  -0.04  -0.19     0.09  -0.02   0.01
   8   6     0.02   0.03   0.01     0.01  -0.20   0.15     0.01  -0.17   0.19
   9   6    -0.03   0.08   0.05    -0.11   0.13   0.07    -0.00   0.20  -0.15
  10  17     0.20   0.02   0.09    -0.08  -0.00   0.02     0.06   0.02  -0.03
  11   1     0.24  -0.17  -0.07    -0.13   0.16   0.04     0.13  -0.13  -0.01
  12   1    -0.42  -0.13  -0.22     0.18   0.17   0.01    -0.13  -0.13   0.01
  13   1    -0.15   0.40   0.18     0.03  -0.11  -0.02     0.01   0.11  -0.01
  14   1     0.16  -0.13  -0.16     0.12  -0.08  -0.06    -0.17   0.10   0.08
  15   1     0.19  -0.01   0.10     0.14  -0.00   0.05    -0.19  -0.03  -0.07
  16   1    -0.04  -0.07   0.02    -0.02  -0.02  -0.09     0.05   0.04  -0.01
  17   1    -0.01   0.02   0.01     0.08  -0.02  -0.04    -0.01  -0.04  -0.01
  18   1    -0.02   0.00   0.01     0.03  -0.02   0.01     0.04  -0.06  -0.09
  19   1    -0.04  -0.03   0.03    -0.13  -0.19   0.08     0.04  -0.13   0.05
  20   1    -0.01   0.01   0.05    -0.03   0.00   0.21     0.09  -0.01   0.12
  21   1    -0.02  -0.00  -0.01    -0.15   0.05  -0.07    -0.12   0.15   0.03
  22   1    -0.02  -0.00  -0.01    -0.01   0.08  -0.12     0.09   0.21  -0.07
  23   1     0.00  -0.00  -0.01     0.01   0.01  -0.08     0.01   0.00   0.03
  24   1    -0.00   0.00  -0.01     0.08  -0.04  -0.08     0.05  -0.04  -0.06
  25   1     0.01   0.01  -0.00     0.01  -0.02   0.14     0.04  -0.01   0.17
  26   1     0.02   0.01   0.00     0.02  -0.16   0.06    -0.05  -0.16   0.07
  27   1     0.00   0.03   0.01     0.03   0.12  -0.01     0.06   0.16  -0.12
  28   1    -0.02   0.03   0.03    -0.13   0.07   0.04    -0.16   0.12  -0.01
                     10                     11                     12
                        a                      a                      a 
 Frequencies --   318.6925               342.9960               368.7183
 Red. masses --     7.7656                 6.6930                 8.5754
 Frc consts  --     0.0000                 0.0000                 0.0000
 IR Inten    --     2.1219                 2.2344                 8.3813
 Raman Activ --     0.0000                 0.0000                 0.0000
 Depolar     --     0.0000                 0.0000                 0.0000
 Atom AN      X      Y      Z        X      Y      Z        X      Y      Z
   1   7     0.03   0.09  -0.09     0.04   0.16  -0.04    -0.09  -0.29   0.08
   2   6    -0.22  -0.17  -0.18     0.11   0.06  -0.05     0.08   0.22   0.23
   3   6     0.08  -0.25  -0.20    -0.08   0.08   0.25     0.37   0.14  -0.04
   4   6    -0.16  -0.08   0.27     0.10  -0.24  -0.02     0.17   0.04   0.19
   5   6    -0.03   0.15   0.07     0.14  -0.24   0.01     0.00  -0.06  -0.01
   6   6    -0.01   0.14   0.01    -0.04   0.27  -0.01    -0.01   0.00  -0.20
   7   6     0.00  -0.19   0.03    -0.25  -0.18   0.03    -0.27  -0.04  -0.21
   8   6     0.25   0.15  -0.11    -0.02   0.13  -0.18    -0.14   0.09  -0.07
   9   6     0.05   0.09   0.30     0.06  -0.11  -0.05    -0.14  -0.01   0.15
  10  17    -0.01  -0.00   0.00    -0.02  -0.00   0.02     0.03   0.00  -0.03
  11   1     0.01   0.03   0.07    -0.03   0.07   0.01     0.02  -0.11  -0.13
  12   1     0.04   0.06  -0.03     0.05   0.08  -0.02    -0.09  -0.17   0.06
  13   1     0.04   0.06  -0.08     0.01   0.01  -0.01    -0.05  -0.09   0.07
  14   1    -0.11   0.01   0.00     0.06  -0.02  -0.05     0.01   0.13   0.06
  15   1    -0.13  -0.11  -0.09     0.08   0.06   0.01    -0.02   0.03   0.04
  16   1    -0.02  -0.03  -0.20     0.02  -0.04   0.23     0.10   0.14  -0.17
  17   1     0.18  -0.12  -0.07    -0.15   0.15   0.10     0.23  -0.10  -0.05
  18   1    -0.09  -0.00   0.08     0.06  -0.08  -0.01     0.09   0.02   0.09
  19   1    -0.04   0.11   0.01     0.03  -0.11   0.01    -0.07  -0.02  -0.01
  20   1     0.03   0.01  -0.04     0.11  -0.06   0.06     0.02  -0.01   0.02
  21   1    -0.04   0.08   0.06    -0.16   0.16   0.07    -0.01  -0.00  -0.07
  22   1     0.00   0.07  -0.07     0.09   0.22  -0.07     0.01   0.01  -0.03
  23   1     0.02  -0.16   0.06    -0.06  -0.19   0.11    -0.07  -0.09   0.00
  24   1    -0.11  -0.06  -0.04    -0.23  -0.07  -0.08    -0.16  -0.02  -0.11
  25   1     0.10  -0.02  -0.16     0.02  -0.01  -0.16    -0.06   0.01  -0.06
  26   1     0.13   0.17  -0.04    -0.00   0.15  -0.07     0.03   0.06  -0.02
  27   1     0.04   0.05   0.09    -0.02  -0.06  -0.04    -0.06  -0.02   0.01
  28   1     0.03   0.06   0.15     0.07  -0.03   0.02    -0.03  -0.00   0.05
                     13                     14                     15
                        a                      a                      a 
 Frequencies --   399.5097               437.2150               513.3771
 Red. masses --     7.6293                 9.2116                 5.7694
 Frc consts  --     0.0000                 0.0000                 0.0000
 IR Inten    --     2.8908                 0.3966                 1.5807
 Raman Activ --     0.0000                 0.0000                 0.0000
 Depolar     --     0.0000                 0.0000                 0.0000
 Atom AN      X      Y      Z        X      Y      Z        X      Y      Z
   1   7    -0.02  -0.16   0.07     0.02   0.05   0.00     0.01   0.07  -0.04
   2   6     0.03   0.08   0.12    -0.02   0.03  -0.01    -0.11  -0.16  -0.10
   3   6    -0.08   0.12  -0.21    -0.10   0.03   0.07     0.05  -0.16   0.10
   4   6    -0.12   0.26  -0.19    -0.10   0.01   0.11     0.09   0.24  -0.07
   5   6    -0.15   0.09   0.30     0.20   0.18   0.26     0.03   0.12   0.18
   6   6    -0.08   0.14   0.13     0.44  -0.01  -0.05     0.19  -0.05  -0.16
   7   6     0.14  -0.14   0.15     0.11  -0.08  -0.10    -0.24   0.01  -0.19
   8   6     0.12  -0.07  -0.20    -0.16  -0.25  -0.34    -0.04   0.14   0.16
   9   6     0.13  -0.20  -0.16    -0.38  -0.01   0.03     0.12  -0.01  -0.03
  10  17     0.01   0.00  -0.01    -0.00  -0.00   0.00    -0.01  -0.00   0.01
  11   1     0.02  -0.06  -0.06     0.01   0.01   0.01     0.00   0.02   0.08
  12   1    -0.04  -0.09   0.05     0.01   0.01   0.01     0.02   0.06  -0.04
  13   1    -0.02  -0.06   0.04     0.01   0.01  -0.01     0.02   0.06  -0.03
  14   1     0.02  -0.02   0.03    -0.00  -0.01  -0.00    -0.07   0.04   0.01
  15   1     0.03   0.04   0.04     0.01   0.03   0.00    -0.10  -0.10  -0.07
  16   1    -0.04   0.07  -0.14    -0.02  -0.01   0.07     0.01  -0.10   0.09
  17   1     0.01  -0.07  -0.09    -0.07   0.05   0.03    -0.05   0.02   0.04
  18   1    -0.03   0.07  -0.05    -0.04   0.02   0.05    -0.03   0.07  -0.05
  19   1    -0.02  -0.17   0.12     0.00  -0.02   0.08    -0.06  -0.18   0.08
  20   1    -0.08   0.11   0.26     0.09   0.07   0.14    -0.03   0.13   0.25
  21   1    -0.09   0.08   0.08     0.20  -0.03  -0.03     0.19  -0.09  -0.11
  22   1    -0.02   0.08  -0.07     0.06  -0.08  -0.00    -0.02  -0.13   0.06
  23   1     0.04  -0.05   0.05    -0.03   0.05   0.06    -0.05  -0.16   0.07
  24   1     0.02  -0.04   0.03     0.06  -0.04  -0.05    -0.24  -0.02  -0.15
  25   1     0.05  -0.06  -0.14    -0.06  -0.10  -0.19    -0.02   0.10   0.19
  26   1    -0.00   0.08  -0.07     0.01   0.03  -0.11    -0.01  -0.13   0.07
  27   1    -0.01  -0.17   0.10    -0.03   0.10  -0.02    -0.07  -0.16   0.09
  28   1     0.18  -0.15  -0.15    -0.21   0.05   0.04     0.21  -0.11  -0.11
                     16                     17                     18
                        a                      a                      a 
 Frequencies --   594.5214               792.5137               811.8371
 Red. masses --     7.7036                 8.0311                 4.7220
 Frc consts  --     0.0000                 0.0000                 0.0000
 IR Inten    --     4.5168                 2.8328                 1.3277
 Raman Activ --     0.0000                 0.0000                 0.0000
 Depolar     --     0.0000                 0.0000                 0.0000
 Atom AN      X      Y      Z        X      Y      Z        X      Y      Z
   1   7    -0.00   0.08  -0.05     0.04   0.08  -0.12    -0.01  -0.00  -0.07
   2   6     0.02  -0.12  -0.06     0.06   0.15   0.10    -0.05   0.01   0.03
   3   6     0.42  -0.19   0.29     0.09  -0.13   0.23    -0.04  -0.02   0.17
   4   6     0.23   0.24   0.01    -0.15  -0.31   0.11    -0.06   0.08   0.15
   5   6    -0.15   0.09   0.01    -0.15   0.20   0.18     0.06  -0.11   0.18
   6   6    -0.25  -0.01   0.05    -0.14   0.13   0.10     0.14  -0.18   0.05
   7   6     0.04  -0.05   0.05    -0.00   0.12  -0.04     0.06  -0.10  -0.09
   8   6    -0.10  -0.15  -0.17     0.05  -0.08  -0.20    -0.07   0.07  -0.20
   9   6    -0.07  -0.02  -0.10     0.21  -0.12  -0.31    -0.12   0.25  -0.13
  10  17    -0.00   0.00   0.01     0.00   0.00   0.00    -0.00  -0.00  -0.00
  11   1     0.00   0.02   0.05     0.01   0.02  -0.10     0.01  -0.01   0.05
  12   1    -0.01   0.06  -0.07    -0.01  -0.02   0.00     0.04   0.02  -0.01
  13   1    -0.00   0.06   0.01    -0.00  -0.02  -0.02     0.04   0.04  -0.08
  14   1    -0.08   0.20   0.06     0.03   0.08   0.00     0.04  -0.04  -0.07
  15   1    -0.18  -0.17  -0.12     0.02   0.06   0.01     0.06   0.07   0.04
  16   1     0.11  -0.13   0.18     0.03   0.05  -0.07    -0.03   0.07  -0.11
  17   1     0.02   0.04   0.10     0.17  -0.12   0.05     0.12  -0.11   0.02
  18   1     0.03   0.07  -0.00    -0.09  -0.08   0.00     0.01  -0.03  -0.06
  19   1    -0.04   0.03   0.00    -0.02   0.13   0.04     0.03   0.24   0.01
  20   1    -0.13   0.04  -0.01     0.04   0.00  -0.02    -0.01  -0.13  -0.20
  21   1    -0.15   0.05   0.06     0.14  -0.06  -0.06    -0.22   0.07   0.10
  22   1    -0.04   0.07  -0.07    -0.18  -0.14   0.09     0.16   0.16  -0.16
  23   1    -0.01   0.13  -0.08     0.01  -0.09   0.08    -0.02   0.04  -0.02
  24   1     0.15   0.01   0.09    -0.14   0.01  -0.09     0.03   0.02   0.06
  25   1    -0.02  -0.09  -0.16    -0.00   0.06   0.13     0.05   0.11   0.21
  26   1    -0.02   0.08  -0.07    -0.12  -0.21  -0.04    -0.07  -0.25  -0.02
  27   1    -0.01   0.01  -0.02     0.12   0.07  -0.15    -0.18  -0.18   0.14
  28   1    -0.06  -0.02  -0.08    -0.03   0.05   0.03     0.28  -0.08  -0.14
                     19                     20                     21
                        a                      a                      a 
 Frequencies --   820.3610               854.7394               880.4403
 Red. masses --     3.5608                 7.3902                 5.5514
 Frc consts  --     0.0000                 0.0000                 0.0000
 IR Inten    --    47.0095                 8.6322                 9.1040
 Raman Activ --     0.0000                 0.0000                 0.0000
 Depolar     --     0.0000                 0.0000                 0.0000
 Atom AN      X      Y      Z        X      Y      Z        X      Y      Z
   1   7     0.09  -0.01   0.08    -0.10  -0.13   0.26    -0.08   0.14   0.04
   2   6     0.25   0.02   0.00    -0.11  -0.13  -0.21    -0.00   0.12   0.03
   3   6     0.00   0.03  -0.23     0.08   0.21  -0.27     0.20  -0.15  -0.11
   4   6    -0.15  -0.09  -0.03     0.18   0.04   0.06    -0.05  -0.12  -0.06
   5   6    -0.03  -0.05   0.11     0.01   0.06   0.25    -0.14   0.07   0.01
   6   6     0.06  -0.02   0.05    -0.16   0.02   0.17     0.04  -0.03  -0.13
   7   6     0.12   0.03  -0.03    -0.07   0.11  -0.20     0.30  -0.06   0.14
   8   6     0.05   0.07  -0.06     0.08  -0.09  -0.17    -0.02   0.20   0.12
   9   6    -0.12   0.02   0.01     0.07  -0.08   0.01    -0.23  -0.01  -0.04
  10  17     0.00   0.00   0.01    -0.00   0.00  -0.00    -0.00   0.01  -0.01
  11   1    -0.09   0.06  -0.18     0.03  -0.06   0.20     0.12  -0.05  -0.19
  12   1    -0.12   0.05  -0.20     0.03  -0.03   0.13     0.01  -0.21   0.36
  13   1    -0.20  -0.11   0.38     0.08   0.04  -0.10     0.11  -0.05  -0.25
  14   1    -0.14   0.21   0.28     0.03  -0.14  -0.13     0.07   0.03  -0.11
  15   1    -0.21  -0.13  -0.24     0.04  -0.05   0.08     0.02  -0.09   0.19
  16   1    -0.01  -0.13   0.14     0.07  -0.04   0.15     0.09  -0.14   0.19
  17   1    -0.18   0.16  -0.03    -0.12   0.26  -0.02    -0.15   0.12   0.01
  18   1     0.01  -0.03   0.01     0.15   0.01   0.08    -0.02  -0.03  -0.02
  19   1     0.03   0.14   0.01     0.09   0.22   0.04    -0.08   0.05  -0.00
  20   1    -0.01  -0.07  -0.12    -0.03  -0.06  -0.13    -0.01  -0.00  -0.02
  21   1    -0.05   0.00  -0.01    -0.07  -0.02  -0.02    -0.01  -0.00  -0.03
  22   1     0.02   0.02  -0.03    -0.05  -0.01   0.07    -0.04  -0.03  -0.15
  23   1     0.04  -0.10   0.07    -0.01  -0.05  -0.02     0.12  -0.16   0.09
  24   1    -0.09   0.01  -0.05    -0.11   0.03  -0.08    -0.06  -0.02  -0.02
  25   1     0.00   0.07   0.11    -0.05   0.03   0.06    -0.01   0.06   0.05
  26   1     0.00  -0.12   0.00     0.06  -0.16  -0.03    -0.06   0.05   0.03
  27   1    -0.05  -0.03   0.06     0.08   0.06  -0.01    -0.13  -0.08  -0.03
  28   1     0.05  -0.01   0.02    -0.06   0.02   0.03     0.01  -0.02  -0.00
                     22                     23                     24
                        a                      a                      a 
 Frequencies --   887.7661               915.7346               922.3670
 Red. masses --     6.2152                 6.1157                 4.4476
 Frc consts  --     0.0000                 0.0000                 0.0000
 IR Inten    --     8.2049                 3.8433                 2.9722
 Raman Activ --     0.0000                 0.0000                 0.0000
 Depolar     --     0.0000                 0.0000                 0.0000
 Atom AN      X      Y      Z        X      Y      Z        X      Y      Z
   1   7    -0.01  -0.15   0.05    -0.01  -0.16   0.18    -0.03  -0.01   0.11
   2   6    -0.04  -0.13  -0.09    -0.02  -0.02  -0.19     0.03   0.00  -0.09
   3   6    -0.02   0.18   0.11     0.08   0.17  -0.06     0.04   0.04  -0.06
   4   6     0.07   0.10   0.08     0.02  -0.29   0.13    -0.08  -0.03   0.12
   5   6    -0.22  -0.11  -0.06    -0.05   0.17   0.05    -0.03   0.12  -0.21
   6   6     0.16  -0.01  -0.15    -0.04   0.10  -0.18     0.16  -0.20  -0.03
   7   6     0.33   0.11   0.24    -0.03  -0.23   0.11    -0.10  -0.04   0.10
   8   6    -0.09   0.09   0.05    -0.09   0.10   0.08    -0.05   0.11  -0.21
   9   6    -0.05  -0.14  -0.14     0.00   0.16  -0.17     0.19  -0.14  -0.01
  10  17    -0.00  -0.00   0.00    -0.00  -0.00   0.00     0.00   0.00  -0.00
  11   1    -0.05  -0.00   0.27    -0.05  -0.01   0.18     0.01  -0.02  -0.01
  12   1     0.03   0.14  -0.18     0.01   0.07  -0.09    -0.02  -0.04   0.06
  13   1    -0.00   0.09   0.05    -0.04   0.03   0.12    -0.00  -0.02   0.01
  14   1    -0.01  -0.05  -0.02    -0.02  -0.04  -0.02    -0.01   0.02  -0.01
  15   1     0.02   0.04  -0.08     0.02   0.04  -0.07    -0.02  -0.05  -0.00
  16   1    -0.03   0.10  -0.10     0.07   0.06   0.04    -0.02  -0.05   0.03
  17   1     0.13  -0.02   0.01     0.05   0.15   0.01     0.03   0.11   0.01
  18   1     0.08   0.03   0.06     0.06  -0.10   0.00    -0.13   0.09   0.18
  19   1    -0.12   0.04  -0.03    -0.16   0.02   0.01    -0.12  -0.23  -0.02
  20   1    -0.10  -0.04  -0.07     0.18   0.03   0.07    -0.07   0.15   0.19
  21   1    -0.04  -0.01  -0.11     0.20  -0.00   0.02    -0.09   0.12   0.24
  22   1     0.04   0.02  -0.10    -0.16  -0.14  -0.07     0.14   0.13  -0.18
  23   1     0.10  -0.23   0.28    -0.03   0.14  -0.11    -0.04   0.09  -0.04
  24   1    -0.20  -0.01  -0.10     0.25  -0.07   0.09    -0.04   0.11   0.26
  25   1    -0.13   0.03  -0.02     0.20  -0.03   0.00    -0.05   0.14   0.21
  26   1    -0.12   0.07   0.00    -0.16   0.09   0.01    -0.11  -0.24  -0.03
  27   1     0.03   0.05  -0.12    -0.14  -0.13  -0.06     0.13   0.10  -0.12
  28   1    -0.15   0.01  -0.03     0.22  -0.01  -0.01    -0.05   0.10   0.20
                     25                     26                     27
                        a                      a                      a 
 Frequencies --   948.6532               961.0148              1012.8821
 Red. masses --     6.7987                 7.2554                 8.2672
 Frc consts  --     0.0000                 0.0000                 0.0000
 IR Inten    --     2.0131                 4.6018                14.8352
 Raman Activ --     0.0000                 0.0000                 0.0000
 Depolar     --     0.0000                 0.0000                 0.0000
 Atom AN      X      Y      Z        X      Y      Z        X      Y      Z
   1   7    -0.04   0.07   0.10     0.07   0.10  -0.05    -0.06  -0.01   0.38
   2   6     0.07  -0.02  -0.09    -0.06  -0.02   0.05     0.15   0.17  -0.48
   3   6     0.00   0.00  -0.06    -0.15  -0.06  -0.08    -0.02  -0.05   0.21
   4   6    -0.11   0.11   0.17     0.13   0.01   0.08    -0.21   0.04   0.02
   5   6    -0.19  -0.24  -0.09    -0.00   0.15   0.35     0.15  -0.04   0.01
   6   6     0.22   0.14  -0.09     0.13  -0.19  -0.19    -0.02  -0.06   0.08
   7   6    -0.15   0.13   0.19    -0.14  -0.06  -0.06     0.02  -0.01  -0.15
   8   6    -0.07  -0.26  -0.10    -0.16   0.08   0.26     0.03   0.04   0.17
   9   6     0.26   0.17  -0.02     0.29  -0.13  -0.15    -0.03  -0.04  -0.15
  10  17     0.00   0.00  -0.00     0.00   0.00   0.00     0.00   0.00  -0.00
  11   1     0.05  -0.02  -0.12     0.00   0.03  -0.20     0.03  -0.03   0.01
  12   1    -0.02  -0.11   0.19    -0.05  -0.05   0.02    -0.04  -0.09   0.19
  13   1     0.02  -0.05  -0.05    -0.05  -0.09   0.08    -0.01  -0.05   0.07
  14   1    -0.00   0.06  -0.01    -0.03  -0.10   0.05     0.00   0.15  -0.09
  15   1    -0.06  -0.14   0.03     0.01   0.02   0.01    -0.02  -0.02  -0.12
  16   1    -0.10  -0.13  -0.00    -0.04  -0.02  -0.01    -0.16  -0.08  -0.13
  17   1     0.04   0.10   0.01    -0.04  -0.01  -0.02     0.25   0.02   0.07
  18   1     0.04  -0.02  -0.03     0.03  -0.01  -0.01    -0.17   0.03  -0.03
  19   1    -0.19   0.05  -0.05    -0.05   0.27   0.06     0.17  -0.04   0.01
  20   1     0.00  -0.11  -0.10    -0.05  -0.04  -0.12    -0.03   0.00  -0.00
  21   1     0.07  -0.03  -0.14    -0.16   0.02  -0.02    -0.07  -0.01  -0.01
  22   1     0.09   0.02   0.14     0.09   0.07  -0.20     0.06   0.04   0.06
  23   1    -0.16   0.15   0.23    -0.05   0.07  -0.08     0.06  -0.07  -0.11
  24   1     0.05  -0.04  -0.07     0.06  -0.01   0.03     0.00  -0.02  -0.07
  25   1     0.10  -0.11  -0.07    -0.08  -0.05  -0.14    -0.03  -0.03  -0.07
  26   1    -0.13   0.01  -0.04    -0.06   0.24   0.04     0.05   0.12   0.03
  27   1     0.10   0.02   0.15     0.13   0.07  -0.18    -0.02  -0.01  -0.08
  28   1     0.13  -0.01  -0.09    -0.11   0.02  -0.04    -0.07  -0.02  -0.10
                     28                     29                     30
                        a                      a                      a 
 Frequencies --  1021.4393              1037.6900              1064.3311
 Red. masses --     6.1300                 6.1118                 6.8799
 Frc consts  --     0.0000                 0.0000                 0.0000
 IR Inten    --    32.0333                 2.1426                 0.6059
 Raman Activ --     0.0000                 0.0000                 0.0000
 Depolar     --     0.0000                 0.0000                 0.0000
 Atom AN      X      Y      Z        X      Y      Z        X      Y      Z
   1   7     0.17   0.19   0.07    -0.13   0.05  -0.17    -0.03  -0.03   0.02
   2   6    -0.23  -0.17  -0.14     0.20  -0.23   0.23     0.04   0.06  -0.01
   3   6    -0.13  -0.01   0.06    -0.19   0.22  -0.03    -0.03  -0.04  -0.03
   4   6     0.30   0.13   0.21    -0.00   0.14   0.19    -0.03   0.06  -0.03
   5   6     0.07  -0.03  -0.13     0.14  -0.09   0.01     0.33   0.01   0.05
   6   6    -0.17   0.08   0.04    -0.08   0.07   0.03    -0.27  -0.08  -0.19
   7   6     0.14  -0.02   0.04     0.04  -0.13  -0.06     0.17  -0.05   0.12
   8   6    -0.02   0.01  -0.13     0.01   0.13   0.02    -0.34  -0.02  -0.12
   9   6    -0.10   0.04  -0.03    -0.02  -0.11  -0.17     0.23   0.12   0.21
  10  17     0.00   0.00  -0.00    -0.00   0.00   0.00    -0.00  -0.00  -0.00
  11   1     0.01   0.06  -0.40     0.05  -0.04   0.03    -0.00  -0.01   0.03
  12   1    -0.12  -0.13   0.08     0.05  -0.02   0.09     0.01   0.01   0.01
  13   1    -0.12  -0.21   0.23     0.09   0.07  -0.24     0.01   0.02  -0.02
  14   1    -0.07  -0.31   0.03    -0.02   0.21   0.11     0.00   0.05   0.00
  15   1     0.04   0.02   0.03    -0.17  -0.28   0.01    -0.00   0.01  -0.02
  16   1    -0.07   0.00  -0.07    -0.27  -0.13  -0.12    -0.02  -0.03  -0.00
  17   1     0.13   0.04   0.03     0.04   0.04  -0.01    -0.03  -0.02  -0.01
  18   1     0.12   0.03   0.08     0.16   0.04   0.17    -0.08   0.05   0.01
  19   1    -0.02  -0.09  -0.02     0.03  -0.01   0.00     0.32  -0.05   0.03
  20   1     0.04   0.03   0.06     0.15  -0.05   0.00     0.05   0.01   0.01
  21   1     0.06  -0.02   0.00     0.09  -0.01   0.02    -0.10  -0.08  -0.18
  22   1    -0.10  -0.06   0.05    -0.05  -0.04   0.07    -0.17  -0.10  -0.16
  23   1     0.07  -0.08  -0.01     0.07  -0.04  -0.16     0.03  -0.06   0.09
  24   1    -0.03  -0.00  -0.01     0.07  -0.03   0.01     0.00  -0.06  -0.07
  25   1    -0.00   0.04   0.05     0.06   0.03   0.04    -0.08   0.01   0.01
  26   1    -0.05  -0.08  -0.03    -0.10   0.02   0.00    -0.35  -0.00  -0.05
  27   1    -0.09  -0.05  -0.04    -0.03  -0.01  -0.17     0.12   0.07   0.16
  28   1     0.01  -0.02  -0.05    -0.03   0.02   0.04     0.10   0.05   0.12
                     31                     32                     33
                        a                      a                      a 
 Frequencies --  1072.9815              1106.6416              1108.3329
 Red. masses --     1.9123                 6.6287                 8.3116
 Frc consts  --     0.0000                 0.0000                 0.0000
 IR Inten    --     0.8218                 5.1280                 0.0421
 Raman Activ --     0.0000                 0.0000                 0.0000
 Depolar     --     0.0000                 0.0000                 0.0000
 Atom AN      X      Y      Z        X      Y      Z        X      Y      Z
   1   7    -0.04   0.01   0.06    -0.08   0.00   0.11     0.01   0.00  -0.02
   2   6     0.09   0.02  -0.09     0.16   0.12  -0.17    -0.03  -0.04   0.03
   3   6    -0.09  -0.01   0.04    -0.26  -0.14   0.07     0.06   0.04  -0.01
   4   6     0.05  -0.00  -0.06     0.37  -0.03  -0.19    -0.04  -0.05  -0.05
   5   6     0.01   0.01   0.04    -0.22   0.04   0.05    -0.24  -0.05  -0.09
   6   6    -0.05   0.01  -0.10     0.08   0.11   0.04     0.15   0.11   0.35
   7   6    -0.01   0.02   0.08     0.01  -0.10  -0.00     0.21  -0.19  -0.34
   8   6    -0.02  -0.06  -0.04    -0.06   0.07  -0.11    -0.38   0.09   0.03
   9   6     0.05   0.05   0.10    -0.00  -0.05   0.22     0.22   0.11   0.12
  10  17     0.00   0.00  -0.00     0.00   0.00  -0.00    -0.00  -0.00  -0.00
  11   1     0.02  -0.02   0.02     0.02  -0.02   0.02    -0.00   0.00  -0.02
  12   1    -0.00  -0.02   0.05     0.01  -0.03   0.10    -0.00  -0.00  -0.01
  13   1     0.02   0.00  -0.03     0.02   0.01  -0.04    -0.01  -0.01   0.01
  14   1    -0.01   0.10   0.01     0.00   0.14  -0.01     0.00  -0.03  -0.01
  15   1    -0.03  -0.04  -0.05    -0.02   0.02  -0.12     0.00  -0.02   0.03
  16   1    -0.08  -0.02  -0.07    -0.14  -0.03  -0.12     0.04   0.03   0.02
  17   1     0.02  -0.06  -0.01    -0.08  -0.25  -0.04     0.02   0.04   0.00
  18   1     0.19  -0.15  -0.24     0.21  -0.02  -0.00     0.02  -0.06  -0.10
  19   1    -0.18   0.06  -0.01     0.06   0.05   0.01    -0.05  -0.04  -0.02
  20   1     0.34  -0.07   0.01    -0.16   0.01  -0.05    -0.08  -0.00  -0.00
  21   1     0.17   0.08   0.24     0.06   0.01  -0.00     0.13   0.07   0.22
  22   1    -0.15  -0.09  -0.22    -0.08  -0.05  -0.09     0.06   0.03   0.14
  23   1     0.06  -0.06  -0.07    -0.13   0.15   0.16     0.11  -0.11  -0.17
  24   1    -0.18   0.17   0.27     0.11  -0.07  -0.06     0.09  -0.09  -0.16
  25   1    -0.34   0.05  -0.03     0.06   0.05   0.08    -0.26   0.03  -0.05
  26   1     0.17  -0.05   0.01     0.11  -0.11  -0.00    -0.14   0.07  -0.00
  27   1     0.12   0.06   0.22    -0.11  -0.05  -0.19     0.07   0.04   0.06
  28   1    -0.12  -0.08  -0.24     0.06   0.07   0.24     0.05   0.02   0.02
                     34                     35                     36
                        a                      a                      a 
 Frequencies --  1126.1047              1155.0244              1183.8334
 Red. masses --     6.4388                 8.2308                 4.0605
 Frc consts  --     0.0000                 0.0000                 0.0000
 IR Inten    --     4.1864                 1.1700                 3.0695
 Raman Activ --     0.0000                 0.0000                 0.0000
 Depolar     --     0.0000                 0.0000                 0.0000
 Atom AN      X      Y      Z        X      Y      Z        X      Y      Z
   1   7     0.01  -0.10   0.05    -0.06  -0.06  -0.03     0.09  -0.10  -0.06
   2   6    -0.03   0.37  -0.04     0.10   0.15   0.07    -0.16   0.20   0.12
   3   6    -0.06  -0.38  -0.14    -0.19  -0.10  -0.16     0.09  -0.14  -0.11
   4   6     0.09   0.25   0.19     0.24  -0.22   0.27    -0.10   0.15   0.15
   5   6     0.05  -0.15   0.01     0.06   0.23  -0.14    -0.04  -0.18  -0.04
   6   6    -0.04   0.09  -0.02    -0.10  -0.20   0.13     0.01   0.08   0.05
   7   6     0.01  -0.08   0.03     0.10   0.22  -0.08     0.03  -0.08  -0.05
   8   6     0.03   0.08  -0.05    -0.07  -0.25   0.05    -0.05   0.05   0.03
   9   6    -0.03  -0.11  -0.07     0.05   0.26  -0.09     0.10   0.02  -0.09
  10  17    -0.00  -0.00   0.00    -0.00  -0.00   0.00     0.00  -0.00   0.00
  11   1    -0.04   0.00   0.12    -0.00  -0.02   0.09    -0.06   0.03   0.06
  12   1     0.02   0.06  -0.09     0.04   0.03  -0.01     0.02   0.06  -0.14
  13   1    -0.01   0.05   0.05     0.02   0.06  -0.05    -0.02   0.04   0.08
  14   1     0.03   0.04  -0.06    -0.00   0.07   0.05     0.04  -0.02  -0.08
  15   1     0.09   0.21  -0.01    -0.02   0.02  -0.02     0.03   0.03   0.18
  16   1    -0.01  -0.15   0.06    -0.10  -0.11  -0.02    -0.15  -0.28   0.02
  17   1    -0.25  -0.14  -0.06    -0.05   0.03  -0.02     0.08   0.21   0.05
  18   1     0.03   0.08   0.10     0.01  -0.05   0.05    -0.05   0.06   0.07
  19   1    -0.25   0.07  -0.03    -0.15  -0.10  -0.02     0.24  -0.06   0.01
  20   1     0.12  -0.07  -0.02    -0.05   0.15   0.14     0.04  -0.07  -0.04
  21   1     0.07  -0.01  -0.02    -0.16   0.00   0.05     0.12   0.03   0.09
  22   1     0.07   0.03   0.23     0.06   0.07   0.00    -0.19  -0.12  -0.24
  23   1     0.12  -0.10  -0.21     0.04  -0.10   0.10    -0.15   0.16   0.21
  24   1     0.03  -0.00   0.05    -0.14   0.03  -0.11     0.04  -0.03  -0.02
  25   1     0.04   0.04   0.05    -0.07  -0.11  -0.13    -0.16   0.03  -0.02
  26   1    -0.22  -0.01  -0.02     0.08   0.07  -0.00     0.32  -0.03   0.03
  27   1     0.07   0.05   0.02    -0.14  -0.10  -0.08    -0.07  -0.04  -0.20
  28   1    -0.07  -0.00  -0.00     0.16  -0.02  -0.11    -0.01  -0.00  -0.06
                     37                     38                     39
                        a                      a                      a 
 Frequencies --  1227.6013              1228.8536              1242.5005
 Red. masses --     3.5304                 3.5633                 3.3147
 Frc consts  --     0.0000                 0.0000                 0.0000
 IR Inten    --     7.7266                 0.7391                 6.4334
 Raman Activ --     0.0000                 0.0000                 0.0000
 Depolar     --     0.0000                 0.0000                 0.0000
 Atom AN      X      Y      Z        X      Y      Z        X      Y      Z
   1   7    -0.16   0.07   0.01     0.10  -0.07  -0.04     0.09   0.00   0.04
   2   6     0.16  -0.10   0.00    -0.07   0.10   0.06    -0.05  -0.05  -0.08
   3   6    -0.00  -0.01  -0.07    -0.06   0.03   0.01     0.02   0.08   0.05
   4   6    -0.02   0.00   0.18     0.10  -0.14  -0.11    -0.10   0.09  -0.05
   5   6     0.06  -0.06  -0.01     0.05   0.14   0.05     0.17   0.05  -0.03
   6   6    -0.05   0.11  -0.05    -0.02   0.08  -0.12    -0.17  -0.18   0.13
   7   6     0.04  -0.22   0.10    -0.01  -0.19   0.19     0.10  -0.03  -0.04
   8   6    -0.06   0.10  -0.05    -0.02   0.06  -0.11    -0.07   0.14  -0.02
   9   6     0.09   0.07  -0.08     0.01   0.02   0.11     0.05  -0.08  -0.00
  10  17    -0.00   0.00  -0.00     0.00  -0.00   0.00     0.00  -0.00   0.00
  11   1     0.06  -0.04   0.02    -0.04   0.02   0.03    -0.02   0.02  -0.04
  12   1     0.01  -0.03   0.13     0.01   0.03  -0.10    -0.04  -0.01  -0.05
  13   1     0.04   0.00  -0.15    -0.02   0.02   0.08    -0.02  -0.04   0.06
  14   1    -0.10  -0.14   0.25     0.06   0.08  -0.13     0.06   0.14  -0.17
  15   1     0.04   0.22  -0.31    -0.05  -0.19   0.24    -0.04  -0.16   0.13
  16   1     0.19   0.16   0.08    -0.19  -0.15  -0.08     0.08   0.13  -0.00
  17   1    -0.09  -0.05  -0.03     0.19   0.19   0.06    -0.14  -0.15  -0.04
  18   1    -0.23   0.06   0.04    -0.02  -0.09  -0.19    -0.03   0.01  -0.05
  19   1    -0.03   0.01  -0.01    -0.09   0.05   0.00    -0.40   0.04  -0.03
  20   1    -0.07   0.00  -0.01    -0.18   0.08  -0.00     0.36  -0.03   0.07
  21   1    -0.03  -0.07  -0.19    -0.13  -0.10  -0.33    -0.15  -0.04   0.00
  22   1     0.02  -0.00   0.15     0.15   0.08   0.31     0.03   0.03   0.06
  23   1    -0.05   0.07   0.06     0.06  -0.03  -0.12    -0.14   0.12   0.27
  24   1     0.10  -0.05   0.06     0.07  -0.02   0.12     0.16  -0.17  -0.28
  25   1    -0.32   0.10   0.01    -0.22   0.09   0.04    -0.02   0.05   0.03
  26   1     0.32  -0.09   0.02     0.13  -0.11  -0.00     0.18  -0.04   0.02
  27   1    -0.02  -0.02  -0.08    -0.02  -0.00  -0.01     0.02   0.01  -0.07
  28   1    -0.04  -0.03  -0.15    -0.03  -0.02  -0.03    -0.04   0.02   0.04
                     40                     41                     42
                        a                      a                      a 
 Frequencies --  1249.6730              1260.4292              1299.2751
 Red. masses --     3.3763                 2.9507                 3.3457
 Frc consts  --     0.0000                 0.0000                 0.0000
 IR Inten    --     6.9658                 1.1732                 0.8026
 Raman Activ --     0.0000                 0.0000                 0.0000
 Depolar     --     0.0000                 0.0000                 0.0000
 Atom AN      X      Y      Z        X      Y      Z        X      Y      Z
   1   7     0.06   0.00   0.02     0.12   0.01   0.03    -0.01  -0.03  -0.03
   2   6    -0.05  -0.06  -0.06    -0.02  -0.03  -0.08     0.08   0.06  -0.00
   3   6     0.06   0.08   0.04    -0.10   0.06  -0.01    -0.13   0.03  -0.04
   4   6    -0.10   0.11  -0.09     0.05  -0.14   0.24     0.27  -0.02  -0.00
   5   6     0.02  -0.12   0.10    -0.03  -0.02  -0.05     0.18  -0.20   0.07
   6   6     0.00   0.07  -0.10     0.06   0.10  -0.01    -0.02   0.10   0.06
   7   6     0.04   0.05   0.05    -0.04  -0.07  -0.00    -0.01   0.05  -0.05
   8   6    -0.11  -0.26   0.02     0.05   0.05   0.03     0.03   0.01  -0.02
   9   6     0.12   0.14   0.01    -0.01   0.08  -0.14    -0.04  -0.04   0.07
  10  17     0.00  -0.00   0.00     0.00  -0.00  -0.00    -0.00  -0.00  -0.00
  11   1    -0.03   0.02  -0.05    -0.01   0.02  -0.02     0.00  -0.01   0.04
  12   1    -0.00  -0.02   0.00    -0.04  -0.01  -0.05     0.02   0.00  -0.00
  13   1    -0.03  -0.01   0.07    -0.02  -0.04   0.08     0.00   0.02  -0.01
  14   1     0.04   0.08  -0.13     0.11   0.24  -0.28     0.00  -0.04   0.04
  15   1    -0.02  -0.09   0.07    -0.08  -0.26   0.18    -0.08  -0.18   0.09
  16   1     0.07   0.10   0.00     0.15   0.21   0.03     0.04   0.10  -0.01
  17   1    -0.15  -0.14  -0.04    -0.27  -0.29  -0.09     0.08   0.10   0.02
  18   1    -0.15   0.12   0.11     0.02   0.03   0.23    -0.59   0.12  -0.18
  19   1    -0.05   0.07   0.01     0.23  -0.07   0.01    -0.31   0.10  -0.02
  20   1     0.06  -0.08  -0.06    -0.26   0.06  -0.01    -0.24  -0.02  -0.08
  21   1     0.08   0.01   0.01     0.04  -0.00  -0.04     0.12   0.05   0.14
  22   1     0.02   0.00   0.08    -0.06  -0.04  -0.07    -0.18  -0.11  -0.17
  23   1     0.14  -0.14  -0.15    -0.02   0.03  -0.02    -0.01   0.01   0.01
  24   1    -0.19   0.16   0.23     0.01   0.01   0.06    -0.02   0.00  -0.03
  25   1    -0.11  -0.09  -0.09    -0.10   0.03  -0.01     0.11  -0.01   0.01
  26   1     0.15   0.00   0.01     0.01   0.02   0.01    -0.11  -0.00  -0.01
  27   1    -0.22  -0.13  -0.36     0.08   0.04   0.18    -0.00   0.00   0.01
  28   1     0.26   0.12   0.30    -0.06  -0.07  -0.24    -0.07  -0.02  -0.04
                     43                     44                     45
                        a                      a                      a 
 Frequencies --  1317.9107              1330.2431              1338.2476
 Red. masses --     3.4087                 3.5578                 4.1305
 Frc consts  --     0.0000                 0.0000                 0.0000
 IR Inten    --     4.1281                19.9442                 3.5962
 Raman Activ --     0.0000                 0.0000                 0.0000
 Depolar     --     0.0000                 0.0000                 0.0000
 Atom AN      X      Y      Z        X      Y      Z        X      Y      Z
   1   7    -0.02  -0.02  -0.00     0.01   0.05   0.21    -0.01  -0.01   0.03
   2   6    -0.00   0.03   0.00    -0.08  -0.27   0.19    -0.01  -0.06   0.05
   3   6    -0.04  -0.06   0.06    -0.12  -0.10  -0.12    -0.09  -0.06  -0.01
   4   6     0.02  -0.08  -0.23     0.05   0.02   0.00     0.07  -0.04  -0.12
   5   6     0.13  -0.05   0.05     0.01  -0.03  -0.00    -0.02  -0.00   0.09
   6   6    -0.01   0.03   0.02     0.03   0.01   0.03    -0.18  -0.06  -0.22
   7   6    -0.01   0.01   0.05    -0.03   0.05   0.06     0.13  -0.13  -0.19
   8   6    -0.13   0.00   0.08    -0.09   0.01  -0.04     0.26  -0.03   0.08
   9   6    -0.12   0.02  -0.29     0.03  -0.00   0.04    -0.07   0.06  -0.00
  10  17    -0.00  -0.00  -0.00     0.00   0.00   0.00     0.00  -0.00   0.00
  11   1     0.00  -0.01  -0.05     0.08  -0.03  -0.21     0.02  -0.01  -0.08
  12   1     0.07   0.02   0.04    -0.10   0.12  -0.19     0.05   0.05   0.00
  13   1    -0.01   0.05   0.02     0.09  -0.11  -0.16    -0.00   0.03   0.02
  14   1    -0.01  -0.04   0.02     0.14   0.45  -0.33     0.04   0.12  -0.08
  15   1     0.01   0.02  -0.01     0.11   0.30  -0.22     0.02   0.05  -0.04
  16   1    -0.05  -0.05  -0.01     0.07   0.06   0.02     0.03   0.04   0.00
  17   1     0.15   0.06   0.04     0.15   0.22   0.04     0.12   0.11   0.03
  18   1     0.10   0.15   0.42    -0.04   0.01  -0.02    -0.04   0.09   0.16
  19   1    -0.23   0.07  -0.01    -0.04   0.01  -0.01     0.04   0.05   0.02
  20   1    -0.14   0.01  -0.02    -0.02  -0.00   0.00     0.00  -0.01  -0.01
  21   1     0.02   0.01   0.02     0.00  -0.00  -0.01     0.14   0.09   0.24
  22   1    -0.06  -0.03  -0.06    -0.03  -0.02  -0.06     0.14   0.07   0.31
  23   1     0.03  -0.04  -0.03     0.06  -0.06  -0.09    -0.21   0.21   0.33
  24   1     0.04  -0.04  -0.05     0.02  -0.02  -0.04    -0.08   0.07   0.12
  25   1    -0.07  -0.00  -0.02     0.12  -0.02   0.01    -0.28   0.05  -0.02
  26   1     0.28   0.02   0.04     0.08  -0.03   0.00    -0.30   0.10  -0.01
  27   1     0.23   0.13   0.39    -0.01  -0.01  -0.02    -0.03  -0.01   0.03
  28   1     0.24   0.09   0.24    -0.04  -0.01  -0.04     0.04   0.01   0.03
                     46                     47                     48
                        a                      a                      a 
 Frequencies --  1342.8997              1349.2512              1353.8892
 Red. masses --     4.0086                 4.5151                 4.4644
 Frc consts  --     0.0000                 0.0000                 0.0000
 IR Inten    --     0.8966                 1.9899                 3.7348
 Raman Activ --     0.0000                 0.0000                 0.0000
 Depolar     --     0.0000                 0.0000                 0.0000
 Atom AN      X      Y      Z        X      Y      Z        X      Y      Z
   1   7     0.00   0.02   0.01    -0.00  -0.03  -0.03    -0.02  -0.03   0.03
   2   6    -0.06  -0.07   0.03     0.08   0.08  -0.03     0.03   0.04  -0.02
   3   6     0.14   0.10   0.01    -0.16  -0.12  -0.05    -0.08  -0.05   0.01
   4   6    -0.15   0.04   0.12     0.04   0.08   0.12     0.14  -0.01  -0.11
   5   6     0.25  -0.04   0.01    -0.10   0.01   0.06    -0.22   0.02  -0.00
   6   6    -0.05  -0.02  -0.08    -0.12  -0.14  -0.31     0.14  -0.06   0.09
   7   6    -0.14   0.10   0.16    -0.01   0.14   0.20    -0.22   0.09   0.18
   8   6     0.24  -0.05  -0.01    -0.15   0.03  -0.06     0.28  -0.06  -0.05
   9   6    -0.04  -0.01  -0.05    -0.01  -0.06  -0.07    -0.04   0.10   0.04
  10  17    -0.00   0.00  -0.00    -0.00  -0.00  -0.00    -0.00  -0.00   0.00
  11   1     0.00   0.00  -0.02    -0.01   0.00   0.03     0.03  -0.02  -0.07
  12   1     0.01  -0.01   0.03     0.02  -0.00   0.01     0.05   0.07  -0.04
  13   1    -0.01   0.00   0.02    -0.00   0.03   0.00     0.02   0.02  -0.02
  14   1     0.03   0.02  -0.07    -0.01  -0.03   0.05    -0.02  -0.02   0.04
  15   1     0.04   0.12  -0.09    -0.06  -0.15   0.09    -0.02  -0.08   0.06
  16   1    -0.10  -0.12  -0.03     0.19   0.20   0.07     0.05   0.07   0.01
  17   1    -0.14  -0.10  -0.04     0.10   0.09   0.03     0.08   0.06   0.02
  18   1     0.16  -0.16  -0.24    -0.00  -0.05  -0.14    -0.16   0.15   0.20
  19   1    -0.11   0.02  -0.01     0.27  -0.02   0.03     0.10  -0.03   0.01
  20   1    -0.38   0.08  -0.02     0.01  -0.02  -0.02     0.34  -0.09   0.00
  21   1     0.12   0.07   0.19     0.20   0.12   0.35    -0.10  -0.03  -0.07
  22   1    -0.05  -0.03  -0.08     0.17   0.09   0.21    -0.03  -0.02  -0.15
  23   1     0.03  -0.02  -0.07     0.10  -0.11  -0.05     0.08  -0.08  -0.19
  24   1     0.17  -0.16  -0.25     0.12  -0.12  -0.21     0.20  -0.17  -0.25
  25   1    -0.34   0.06  -0.03     0.12  -0.01   0.03    -0.38   0.08  -0.02
  26   1    -0.11  -0.00  -0.01     0.24  -0.06   0.01    -0.18  -0.00  -0.03
  27   1    -0.05  -0.03  -0.08     0.05   0.03   0.03    -0.07  -0.03  -0.05
  28   1     0.09   0.05   0.15     0.03   0.02   0.07     0.04  -0.01  -0.02
                     49                     50                     51
                        a                      a                      a 
 Frequencies --  1359.1817              1368.9265              1373.9975
 Red. masses --     4.3379                 3.8412                 3.1360
 Frc consts  --     0.0000                 0.0000                 0.0000
 IR Inten    --     3.8449                33.7984                84.2470
 Raman Activ --     0.0000                 0.0000                 0.0000
 Depolar     --     0.0000                 0.0000                 0.0000
 Atom AN      X      Y      Z        X      Y      Z        X      Y      Z
   1   7     0.03   0.05  -0.02     0.08   0.02  -0.15    -0.13  -0.05   0.19
   2   6    -0.07  -0.05   0.02     0.06   0.02   0.01     0.04   0.16  -0.07
   3   6     0.19   0.19   0.06    -0.14  -0.20  -0.01     0.02  -0.07   0.07
   4   6     0.05  -0.21  -0.19    -0.21   0.03  -0.15    -0.18  -0.01  -0.08
   5   6    -0.03  -0.01   0.10     0.17  -0.03   0.02     0.13  -0.01   0.02
   6   6    -0.07  -0.07  -0.16    -0.01   0.02   0.03    -0.04   0.01  -0.02
   7   6     0.00   0.09   0.11    -0.02   0.03   0.03     0.02   0.01  -0.00
   8   6    -0.10   0.03  -0.09     0.02  -0.01  -0.05    -0.02  -0.00  -0.03
   9   6     0.10   0.10   0.17     0.13   0.08   0.18     0.10   0.05   0.10
  10  17     0.00   0.00   0.00     0.00   0.00  -0.00    -0.00  -0.00   0.01
  11   1    -0.01   0.01   0.08    -0.16   0.10   0.26     0.26  -0.17  -0.29
  12   1    -0.09  -0.06   0.00    -0.09  -0.25   0.19     0.11   0.38  -0.33
  13   1    -0.00  -0.07  -0.01    -0.05   0.04   0.11     0.11  -0.09  -0.22
  14   1    -0.00  -0.02  -0.01     0.00   0.06   0.01    -0.04  -0.23   0.11
  15   1     0.04   0.12  -0.06     0.00  -0.01   0.01    -0.08  -0.18   0.11
  16   1    -0.27  -0.27  -0.09     0.21   0.20   0.08     0.06   0.08  -0.02
  17   1    -0.14  -0.15  -0.05     0.20   0.16   0.06    -0.01   0.00   0.02
  18   1    -0.17   0.15   0.32     0.31   0.02   0.26     0.22  -0.01   0.15
  19   1    -0.01   0.05   0.02    -0.17   0.02  -0.01    -0.09   0.00  -0.00
  20   1    -0.01  -0.03  -0.03    -0.15   0.02  -0.03    -0.16   0.03  -0.02
  21   1     0.11   0.08   0.22     0.01   0.00   0.01     0.05   0.01   0.04
  22   1     0.08   0.04   0.12    -0.05  -0.02  -0.07    -0.01   0.00   0.00
  23   1     0.06  -0.06  -0.04     0.02  -0.00  -0.04    -0.00   0.01   0.00
  24   1     0.07  -0.08  -0.14     0.01  -0.02  -0.05    -0.02   0.01  -0.00
  25   1     0.13   0.01   0.04     0.01   0.01   0.02     0.04  -0.01   0.01
  26   1     0.07  -0.04  -0.01    -0.07  -0.01  -0.02    -0.01  -0.00  -0.01
  27   1    -0.03  -0.02  -0.03    -0.13  -0.09  -0.18    -0.09  -0.06  -0.12
  28   1    -0.16  -0.11  -0.32    -0.14  -0.06  -0.20    -0.10  -0.04  -0.14
                     52                     53                     54
                        a                      a                      a 
 Frequencies --  1399.5365              1432.6434              1478.8081
 Red. masses --     1.6508                 1.9087                 1.8546
 Frc consts  --     0.0000                 0.0000                 0.0000
 IR Inten    --    90.5344                90.8799                10.6032
 Raman Activ --     0.0000                 0.0000                 0.0000
 Depolar     --     0.0000                 0.0000                 0.0000
 Atom AN      X      Y      Z        X      Y      Z        X      Y      Z
   1   7    -0.11  -0.07  -0.12    -0.06   0.20  -0.15    -0.00  -0.00   0.02
   2   6    -0.05  -0.08   0.02    -0.02   0.01   0.00    -0.01   0.05   0.04
   3   6     0.01   0.01  -0.01    -0.02  -0.02  -0.02    -0.13   0.18  -0.13
   4   6    -0.02  -0.01   0.01     0.01   0.02  -0.00    -0.02   0.02  -0.01
   5   6     0.00  -0.00  -0.01    -0.01  -0.01  -0.00     0.01   0.03   0.02
   6   6     0.01  -0.00   0.01     0.00   0.00   0.00     0.00   0.00   0.00
   7   6    -0.00   0.01   0.02    -0.00  -0.00  -0.00     0.00  -0.00  -0.00
   8   6    -0.04   0.02  -0.03     0.01  -0.01   0.01     0.00  -0.00  -0.00
   9   6     0.02  -0.01   0.07    -0.03  -0.01  -0.02    -0.03  -0.01   0.04
  10  17    -0.01  -0.00  -0.00     0.00   0.00  -0.00    -0.00  -0.00   0.00
  11   1     0.21  -0.14  -0.17     0.50  -0.26   0.41     0.02  -0.01  -0.02
  12   1     0.59   0.22   0.34    -0.02   0.03  -0.03     0.02   0.03  -0.01
  13   1    -0.20   0.26   0.41    -0.19  -0.60   0.13    -0.00   0.00   0.01
  14   1     0.02   0.11  -0.08    -0.02   0.08   0.01     0.08  -0.10  -0.12
  15   1     0.04   0.06  -0.03     0.04   0.01   0.08    -0.11  -0.03  -0.11
  16   1     0.01   0.02  -0.01     0.01   0.00   0.02     0.09  -0.27   0.59
  17   1    -0.03   0.02  -0.00     0.04   0.02   0.01     0.45  -0.43  -0.10
  18   1    -0.00  -0.00   0.00     0.00   0.00  -0.01     0.00  -0.00  -0.01
  19   1    -0.01   0.00  -0.00     0.00   0.03  -0.00    -0.03  -0.08   0.01
  20   1     0.00   0.00   0.01     0.02   0.01   0.02     0.01  -0.04  -0.07
  21   1    -0.01  -0.00  -0.01    -0.00  -0.00  -0.01    -0.01   0.00   0.00
  22   1    -0.01  -0.00  -0.02    -0.00  -0.00  -0.00    -0.01  -0.01   0.01
  23   1     0.02  -0.02  -0.03    -0.00   0.00   0.00    -0.00   0.00  -0.00
  24   1     0.00  -0.01  -0.02     0.00  -0.00   0.00    -0.01   0.00  -0.00
  25   1     0.09  -0.00   0.02    -0.03   0.00  -0.01     0.00  -0.00   0.00
  26   1     0.02  -0.02  -0.00    -0.00   0.01   0.00    -0.01  -0.00  -0.00
  27   1     0.01   0.03  -0.07     0.02   0.03  -0.01     0.02   0.06  -0.08
  28   1    -0.06  -0.06  -0.12     0.08   0.01   0.05     0.07  -0.04  -0.04
                     55                     56                     57
                        a                      a                      a 
 Frequencies --  1491.8936              1497.4292              1510.0726
 Red. masses --     1.9085                 1.9582                 1.9389
 Frc consts  --     0.0000                 0.0000                 0.0000
 IR Inten    --     5.3212                19.8034                 2.0994
 Raman Activ --     0.0000                 0.0000                 0.0000
 Depolar     --     0.0000                 0.0000                 0.0000
 Atom AN      X      Y      Z        X      Y      Z        X      Y      Z
   1   7     0.00   0.02  -0.00     0.01  -0.02   0.02     0.00   0.00   0.00
   2   6     0.03   0.12   0.18    -0.01  -0.07  -0.11     0.00   0.02   0.03
   3   6     0.04  -0.07   0.04     0.00   0.00   0.00     0.00  -0.00   0.01
   4   6    -0.01   0.01   0.00    -0.03   0.00   0.00     0.00  -0.01  -0.02
   5   6     0.01   0.09   0.04     0.02  -0.01  -0.00    -0.01  -0.06  -0.02
   6   6     0.01   0.00   0.00     0.01   0.01  -0.01    -0.15  -0.04   0.08
   7   6     0.00  -0.01  -0.01    -0.02   0.01  -0.04    -0.04   0.03  -0.04
   8   6    -0.00  -0.02  -0.00    -0.01  -0.02  -0.01     0.03   0.17   0.10
   9   6    -0.10  -0.03   0.07    -0.20  -0.05   0.15    -0.03   0.00   0.03
  10  17     0.00   0.00  -0.00     0.00  -0.00   0.00     0.00   0.00  -0.00
  11   1     0.02  -0.00   0.05    -0.05   0.03  -0.04    -0.00   0.00   0.00
  12   1    -0.03  -0.03   0.03    -0.03  -0.00  -0.04    -0.00  -0.01   0.01
  13   1    -0.02  -0.04   0.03     0.04   0.04  -0.06    -0.00   0.00   0.00
  14   1     0.26  -0.31  -0.33    -0.15   0.18   0.21     0.04  -0.05  -0.05
  15   1    -0.35  -0.11  -0.39     0.21   0.06   0.23    -0.06  -0.02  -0.06
  16   1    -0.02   0.09  -0.18     0.01   0.01   0.00    -0.00   0.00  -0.00
  17   1    -0.13   0.15   0.04    -0.00  -0.00  -0.00     0.00   0.01   0.00
  18   1     0.01  -0.00   0.01     0.01  -0.01  -0.00    -0.00   0.01   0.02
  19   1    -0.04  -0.22   0.03    -0.01   0.02  -0.00     0.03   0.17  -0.02
  20   1     0.04  -0.09  -0.19    -0.04   0.01   0.01     0.01   0.07   0.15
  21   1    -0.03   0.01   0.00    -0.03   0.02   0.02     0.34  -0.17  -0.13
  22   1    -0.01  -0.02   0.02    -0.02  -0.03   0.02     0.19   0.29  -0.21
  23   1    -0.00  -0.00   0.01     0.01  -0.08   0.06     0.01  -0.12   0.10
  24   1     0.00   0.00   0.01     0.08   0.02   0.06     0.13   0.02   0.08
  25   1     0.00   0.02   0.05     0.00   0.02   0.05    -0.00  -0.18  -0.44
  26   1     0.00   0.05  -0.00    -0.00   0.06  -0.00    -0.09  -0.47   0.06
  27   1     0.13   0.22  -0.15     0.25   0.43  -0.33     0.03   0.06  -0.04
  28   1     0.24  -0.11  -0.10     0.46  -0.24  -0.22     0.06  -0.04  -0.04
                     58                     59                     60
                        a                      a                      a 
 Frequencies --  1513.7714              1516.7278              1524.8015
 Red. masses --     1.9131                 1.9284                 1.9873
 Frc consts  --     0.0000                 0.0000                 0.0000
 IR Inten    --     1.9414                 0.3261                 1.0147
 Raman Activ --     0.0000                 0.0000                 0.0000
 Depolar     --     0.0000                 0.0000                 0.0000
 Atom AN      X      Y      Z        X      Y      Z        X      Y      Z
   1   7    -0.00   0.00  -0.00    -0.00   0.00  -0.01    -0.00   0.00  -0.01
   2   6     0.00   0.03   0.03    -0.01  -0.04  -0.05    -0.01  -0.03  -0.03
   3   6    -0.00  -0.00   0.00     0.00  -0.01   0.00    -0.00   0.01  -0.00
   4   6    -0.02   0.00  -0.01     0.01   0.01   0.01     0.02   0.00   0.01
   5   6     0.00  -0.07  -0.05     0.03   0.16   0.09     0.02   0.14   0.09
   6   6     0.13   0.03  -0.09     0.08   0.03  -0.06    -0.11  -0.01   0.07
   7   6    -0.12   0.10  -0.14     0.03  -0.01   0.02    -0.11   0.07  -0.13
   8   6    -0.01   0.03   0.01     0.01   0.15   0.10    -0.00  -0.07  -0.05
   9   6     0.03   0.01  -0.00     0.00   0.01  -0.02     0.04   0.01  -0.03
  10  17    -0.00   0.00  -0.00    -0.00  -0.00   0.00    -0.00  -0.00   0.00
  11   1     0.01  -0.00   0.01     0.01  -0.00  -0.00     0.01  -0.01  -0.00
  12   1     0.00  -0.00   0.01     0.01   0.01  -0.00     0.01   0.01  -0.00
  13   1    -0.00  -0.00   0.01    -0.00  -0.00   0.00    -0.00  -0.01   0.01
  14   1     0.04  -0.06  -0.06    -0.07   0.09   0.09    -0.05   0.06   0.06
  15   1    -0.07  -0.03  -0.07     0.10   0.04   0.10     0.07   0.03   0.07
  16   1     0.00  -0.00   0.01    -0.00   0.01  -0.02    -0.00  -0.00   0.00
  17   1     0.01  -0.00   0.00    -0.02   0.01   0.00    -0.01  -0.00  -0.00
  18   1     0.02  -0.00   0.01     0.01   0.01   0.01    -0.02   0.00  -0.01
  19   1     0.04   0.19  -0.03    -0.09  -0.43   0.05    -0.09  -0.37   0.05
  20   1     0.00   0.08   0.17    -0.02  -0.17  -0.40    -0.02  -0.15  -0.35
  21   1    -0.33   0.16   0.13    -0.20   0.11   0.09     0.25  -0.12  -0.10
  22   1    -0.18  -0.28   0.19    -0.11  -0.17   0.14     0.12   0.21  -0.15
  23   1     0.05  -0.41   0.29    -0.00   0.06  -0.03     0.03  -0.33   0.24
  24   1     0.43   0.06   0.25    -0.06  -0.00  -0.03     0.35   0.05   0.21
  25   1     0.00  -0.03  -0.08     0.01  -0.16  -0.39    -0.01   0.08   0.19
  26   1    -0.02  -0.09   0.01    -0.07  -0.41   0.05     0.03   0.20  -0.03
  27   1    -0.03  -0.04   0.02    -0.01  -0.02   0.03    -0.05  -0.08   0.06
  28   1    -0.05   0.02   0.01    -0.02   0.02   0.02    -0.09   0.05   0.04
                     61                     62                     63
                        a                      a                      a 
 Frequencies --  2858.8146              2900.1218              2903.1952
 Red. masses --     1.7485                 1.9772                 1.9243
 Frc consts  --     0.0000                 0.0000                 0.0000
 IR Inten    --    13.8674              1364.0585                38.7699
 Raman Activ --     0.0000                 0.0000                 0.0000
 Depolar     --     0.0000                 0.0000                 0.0000
 Atom AN      X      Y      Z        X      Y      Z        X      Y      Z
   1   7    -0.00   0.01   0.00    -0.14   0.18   0.11     0.04  -0.05  -0.03
   2   6     0.00  -0.00  -0.00     0.03  -0.02  -0.01    -0.01   0.01   0.00
   3   6     0.00   0.00   0.01     0.00  -0.00  -0.01    -0.00   0.00   0.00
   4   6     0.07   0.23  -0.09    -0.00  -0.00  -0.00    -0.00  -0.00   0.00
   5   6    -0.00  -0.01   0.02     0.01   0.04  -0.05     0.00   0.00   0.01
   6   6     0.00  -0.01   0.00     0.03  -0.05   0.00     0.11  -0.20   0.01
   7   6     0.00   0.00  -0.00     0.02   0.02  -0.00     0.11   0.12  -0.01
   8   6    -0.00  -0.01   0.01    -0.00   0.00   0.01     0.00  -0.00  -0.01
   9   6     0.00  -0.01  -0.00     0.00   0.01  -0.00    -0.00  -0.01   0.00
  10  17     0.00  -0.00  -0.00     0.00  -0.01  -0.01    -0.00   0.00   0.00
  11   1     0.00   0.00   0.00    -0.02  -0.01   0.01     0.01   0.00  -0.00
  12   1     0.02  -0.02  -0.02     0.49  -0.60  -0.45    -0.13   0.15   0.11
  13   1    -0.00   0.00  -0.00     0.03   0.00   0.03    -0.01  -0.00  -0.01
  14   1     0.00   0.00   0.00    -0.02  -0.01  -0.02     0.00   0.00   0.00
  15   1    -0.01   0.00   0.00    -0.10   0.09   0.06     0.02  -0.02  -0.01
  16   1    -0.00   0.00   0.00    -0.01   0.01   0.00     0.00  -0.00  -0.00
  17   1     0.00   0.01  -0.05    -0.00  -0.01   0.04    -0.00   0.00  -0.00
  18   1    -0.26  -0.85   0.35     0.00   0.02  -0.01     0.01   0.02  -0.01
  19   1     0.00  -0.01  -0.04    -0.01   0.02   0.11     0.00  -0.00  -0.05
  20   1     0.01   0.06  -0.02    -0.04  -0.17   0.07    -0.01  -0.03   0.01
  21   1     0.00   0.02  -0.01     0.03   0.09  -0.05     0.11   0.33  -0.18
  22   1    -0.02   0.01   0.01    -0.13   0.11   0.04    -0.48   0.41   0.14
  23   1    -0.01  -0.00  -0.00    -0.07  -0.03  -0.03    -0.32  -0.12  -0.14
  24   1    -0.00  -0.00   0.00    -0.01  -0.06   0.03    -0.05  -0.33   0.18
  25   1     0.00   0.02  -0.01     0.00   0.01  -0.00     0.00   0.03  -0.01
  26   1     0.00  -0.00  -0.02     0.00  -0.01  -0.05    -0.00   0.00   0.04
  27   1    -0.02   0.01   0.00    -0.01   0.01  -0.00     0.01  -0.01  -0.00
  28   1     0.01   0.04  -0.02    -0.01  -0.04   0.02     0.00   0.02  -0.01
                     64                     65                     66
                        a                      a                      a 
 Frequencies --  2904.1609              2908.5153              2910.6921
 Red. masses --     1.9365                 1.9393                 1.8873
 Frc consts  --     0.0000                 0.0000                 0.0000
 IR Inten    --    13.3069                64.4700                43.2302
 Raman Activ --     0.0000                 0.0000                 0.0000
 Depolar     --     0.0000                 0.0000                 0.0000
 Atom AN      X      Y      Z        X      Y      Z        X      Y      Z
   1   7     0.01  -0.02  -0.01    -0.03   0.04   0.02     0.00  -0.01  -0.00
   2   6    -0.00   0.00  -0.00     0.01  -0.00  -0.00    -0.00   0.00  -0.00
   3   6    -0.00  -0.00   0.01     0.01   0.00  -0.02    -0.00  -0.00   0.01
   4   6     0.00   0.01  -0.00    -0.00  -0.01   0.01     0.00   0.01  -0.01
   5   6     0.02   0.05  -0.09    -0.03  -0.08   0.22     0.01   0.04  -0.11
   6   6     0.07  -0.12  -0.01     0.03  -0.02  -0.01    -0.04   0.04   0.01
   7   6    -0.15  -0.15  -0.01    -0.02  -0.03  -0.00     0.08   0.04   0.02
   8   6     0.01   0.04  -0.06     0.02   0.05  -0.14     0.03   0.07  -0.22
   9   6    -0.00   0.00   0.00    -0.00   0.01  -0.00    -0.00  -0.03   0.00
  10  17    -0.00   0.00   0.00     0.00  -0.00  -0.00    -0.00   0.00   0.00
  11   1     0.00   0.00  -0.00    -0.00  -0.00   0.00     0.00   0.00  -0.00
  12   1    -0.05   0.06   0.05     0.10  -0.12  -0.09    -0.01   0.02   0.01
  13   1    -0.00  -0.00  -0.00     0.00   0.00   0.00    -0.00  -0.00  -0.00
  14   1     0.01   0.00   0.00    -0.01  -0.00  -0.00     0.00   0.00   0.00
  15   1     0.01  -0.01  -0.01    -0.02   0.01   0.01     0.00  -0.00  -0.00
  16   1     0.00  -0.00  -0.00    -0.02   0.02   0.01     0.00  -0.00  -0.00
  17   1     0.00   0.01  -0.02    -0.00  -0.02   0.07     0.00   0.01  -0.04
  18   1    -0.01  -0.02   0.01     0.01   0.04  -0.01    -0.01  -0.04   0.02
  19   1    -0.01   0.04   0.21     0.03  -0.09  -0.63    -0.02   0.05   0.32
  20   1    -0.05  -0.23   0.10     0.09   0.39  -0.15    -0.04  -0.18   0.07
  21   1     0.06   0.15  -0.08    -0.01  -0.04   0.02    -0.00   0.02  -0.00
  22   1    -0.32   0.28   0.10    -0.11   0.10   0.03     0.17  -0.15  -0.05
  23   1     0.52   0.20   0.21     0.09   0.03   0.04    -0.29  -0.12  -0.11
  24   1     0.04   0.34  -0.19     0.01   0.08  -0.04     0.01  -0.02   0.02
  25   1    -0.04  -0.18   0.07    -0.05  -0.25   0.09    -0.07  -0.34   0.12
  26   1    -0.01   0.02   0.15    -0.02   0.05   0.40    -0.04   0.09   0.68
  27   1     0.00  -0.00  -0.00     0.02  -0.01  -0.01    -0.01   0.01   0.01
  28   1     0.00   0.01  -0.00    -0.00  -0.02   0.01     0.02   0.09  -0.04
                     67                     68                     69
                        a                      a                      a 
 Frequencies --  2932.1631              2936.7842              2938.2019
 Red. masses --     1.8923                 1.7955                 1.8819
 Frc consts  --     0.0000                 0.0000                 0.0000
 IR Inten    --    13.7540                12.3764                34.7435
 Raman Activ --     0.0000                 0.0000                 0.0000
 Depolar     --     0.0000                 0.0000                 0.0000
 Atom AN      X      Y      Z        X      Y      Z        X      Y      Z
   1   7     0.01  -0.01  -0.00    -0.00   0.00  -0.00     0.02  -0.03  -0.02
   2   6    -0.03   0.02   0.01     0.00   0.00   0.00     0.26  -0.05   0.04
   3   6     0.09   0.00  -0.27     0.00  -0.00   0.01    -0.01   0.02  -0.02
   4   6     0.01   0.01  -0.01    -0.00   0.01  -0.00    -0.00   0.01  -0.00
   5   6     0.00   0.01  -0.02    -0.00  -0.03  -0.02     0.01   0.06   0.02
   6   6    -0.01  -0.00   0.01     0.03  -0.00  -0.01    -0.00   0.00   0.00
   7   6     0.00  -0.00   0.00     0.04  -0.06   0.06     0.02  -0.02   0.03
   8   6    -0.00  -0.00   0.00    -0.01  -0.06  -0.01    -0.00  -0.00   0.01
   9   6    -0.01   0.00   0.01    -0.11   0.21  -0.01     0.00  -0.01   0.00
  10  17    -0.00   0.00   0.00    -0.00   0.00   0.00    -0.00   0.00   0.00
  11   1     0.00   0.00   0.00    -0.00  -0.00   0.00     0.01   0.01  -0.00
  12   1    -0.02   0.02   0.02    -0.00   0.00   0.00    -0.07   0.09   0.07
  13   1    -0.01  -0.00  -0.00     0.02  -0.00   0.01     0.01  -0.00   0.01
  14   1     0.02   0.01   0.02    -0.01  -0.00  -0.00    -0.60  -0.09  -0.37
  15   1     0.10  -0.09  -0.07     0.00  -0.00  -0.00    -0.33   0.29   0.23
  16   1    -0.27   0.23   0.12    -0.01   0.01   0.01     0.07  -0.06  -0.05
  17   1    -0.04  -0.22   0.83     0.00   0.01  -0.03    -0.01  -0.03   0.13
  18   1    -0.01  -0.05   0.02    -0.01  -0.02   0.01    -0.00  -0.01   0.01
  19   1    -0.00   0.01   0.04    -0.01   0.01   0.11     0.01  -0.01  -0.19
  20   1    -0.01  -0.05   0.02     0.02   0.08  -0.05    -0.05  -0.21   0.11
  21   1     0.01   0.04  -0.02    -0.02  -0.07   0.04     0.00   0.01  -0.00
  22   1     0.03  -0.03  -0.01    -0.08   0.08   0.02     0.02  -0.02  -0.00
  23   1    -0.01  -0.00  -0.00    -0.21  -0.10  -0.08    -0.09  -0.04  -0.03
  24   1     0.00   0.01  -0.00     0.07   0.31  -0.15     0.03   0.12  -0.06
  25   1     0.00   0.01  -0.00     0.05   0.24  -0.11     0.00   0.01  -0.00
  26   1    -0.00  -0.00  -0.00    -0.01   0.00   0.14     0.00  -0.00  -0.02
  27   1     0.04  -0.03  -0.01     0.49  -0.41  -0.15    -0.02   0.02   0.01
  28   1     0.01   0.03  -0.01    -0.11  -0.35   0.18     0.01   0.02  -0.01
                     70                     71                     72
                        a                      a                      a 
 Frequencies --  2939.5764              2942.8362              2944.3058
 Red. masses --     1.5679                 1.5183                 1.5850
 Frc consts  --     0.0000                 0.0000                 0.0000
 IR Inten    --    52.1177                24.4369                40.4201
 Raman Activ --     0.0000                 0.0000                 0.0000
 Depolar     --     0.0000                 0.0000                 0.0000
 Atom AN      X      Y      Z        X      Y      Z        X      Y      Z
   1   7    -0.00  -0.00  -0.00    -0.00   0.00   0.00    -0.00   0.00  -0.00
   2   6     0.08  -0.02   0.01     0.06  -0.01   0.01    -0.01   0.00  -0.00
   3   6    -0.00   0.01  -0.01    -0.01   0.01  -0.02    -0.00  -0.00   0.02
   4   6    -0.00   0.00  -0.00    -0.00  -0.01  -0.00    -0.00  -0.00   0.00
   5   6    -0.01  -0.07  -0.03    -0.02  -0.15  -0.05    -0.01  -0.01   0.03
   6   6    -0.03  -0.00   0.01     0.03  -0.01  -0.02    -0.12  -0.11   0.11
   7   6    -0.08   0.09  -0.11     0.03  -0.02   0.03    -0.01  -0.02   0.02
   8   6    -0.01  -0.03  -0.05     0.02   0.10   0.03     0.01   0.08   0.03
   9   6    -0.04   0.07  -0.00     0.02  -0.02  -0.00    -0.03   0.07  -0.01
  10  17    -0.00   0.00   0.00     0.00  -0.00  -0.00    -0.00  -0.00  -0.00
  11   1     0.00   0.00  -0.00     0.00   0.00  -0.00    -0.00  -0.00   0.00
  12   1    -0.00   0.00   0.00     0.01  -0.01  -0.00     0.00  -0.00  -0.00
  13   1     0.01  -0.00   0.00    -0.00   0.00  -0.00     0.00  -0.00   0.00
  14   1    -0.19  -0.03  -0.12    -0.15  -0.02  -0.09     0.03   0.00   0.02
  15   1    -0.10   0.09   0.07    -0.06   0.06   0.05     0.01  -0.01  -0.01
  16   1     0.02  -0.02  -0.01     0.03  -0.03  -0.02    -0.00   0.00   0.00
  17   1    -0.00  -0.01   0.04    -0.01  -0.02   0.08     0.00   0.01  -0.06
  18   1    -0.00  -0.01   0.00     0.01   0.01  -0.00     0.00   0.01  -0.00
  19   1    -0.02   0.02   0.24    -0.03   0.03   0.46     0.01  -0.01  -0.11
  20   1     0.05   0.22  -0.12     0.12   0.52  -0.27     0.00   0.02  -0.01
  21   1     0.02   0.09  -0.05    -0.02  -0.08   0.04     0.16   0.67  -0.33
  22   1     0.08  -0.08  -0.02    -0.11   0.10   0.03     0.27  -0.28  -0.06
  23   1     0.41   0.19   0.15    -0.13  -0.06  -0.05    -0.01  -0.01   0.00
  24   1    -0.11  -0.52   0.26     0.03   0.13  -0.06     0.02   0.09  -0.04
  25   1     0.03   0.12  -0.06    -0.08  -0.36   0.17    -0.06  -0.26   0.13
  26   1    -0.02   0.02   0.22     0.02  -0.01  -0.27     0.02  -0.01  -0.22
  27   1     0.19  -0.16  -0.06    -0.07   0.06   0.02     0.14  -0.12  -0.04
  28   1    -0.04  -0.11   0.06     0.01   0.02  -0.01    -0.04  -0.12   0.06
                     73                     74                     75
                        a                      a                      a 
 Frequencies --  2949.1660              2968.3340              2969.5690
 Red. masses --     1.6608                 1.5388                 1.5754
 Frc consts  --     0.0000                 0.0000                 0.0000
 IR Inten    --   156.0134                56.0457                71.1966
 Raman Activ --     0.0000                 0.0000                 0.0000
 Depolar     --     0.0000                 0.0000                 0.0000
 Atom AN      X      Y      Z        X      Y      Z        X      Y      Z
   1   7     0.00  -0.01  -0.01     0.01  -0.00   0.00     0.01  -0.01  -0.01
   2   6    -0.01   0.00  -0.00    -0.01  -0.05  -0.08    -0.04  -0.02  -0.05
   3   6     0.01  -0.01   0.00    -0.08   0.07  -0.00    -0.11   0.12  -0.01
   4   6     0.00   0.01  -0.00    -0.01  -0.01   0.01     0.00   0.02  -0.01
   5   6     0.02   0.08   0.00    -0.00  -0.01   0.01     0.00   0.02  -0.01
   6   6     0.04   0.07  -0.05    -0.01  -0.01   0.01     0.00   0.01  -0.01
   7   6     0.00   0.07  -0.04    -0.00  -0.01   0.01     0.00   0.01  -0.01
   8   6     0.02   0.15   0.01    -0.01  -0.02   0.02     0.01   0.02  -0.01
   9   6    -0.08   0.09   0.02    -0.10  -0.08   0.09     0.08   0.08  -0.08
  10  17    -0.00   0.00   0.00    -0.00   0.00   0.00     0.00   0.00   0.00
  11   1     0.00   0.00  -0.00     0.00   0.01  -0.00     0.00  -0.00  -0.00
  12   1    -0.02   0.03   0.02     0.01   0.00  -0.00    -0.03   0.04   0.03
  13   1     0.00  -0.00   0.00    -0.04   0.01  -0.02     0.01  -0.01   0.01
  14   1     0.03   0.00   0.02     0.27   0.03   0.15     0.22   0.03   0.13
  15   1     0.01  -0.01  -0.01    -0.23   0.18   0.13    -0.10   0.07   0.05
  16   1    -0.03   0.03   0.02     0.30  -0.24  -0.18     0.44  -0.35  -0.26
  17   1     0.00   0.01  -0.03    -0.02  -0.04   0.18    -0.03  -0.06   0.31
  18   1    -0.01  -0.04   0.02     0.00   0.02  -0.00    -0.01  -0.04   0.02
  19   1     0.01  -0.00  -0.14    -0.00  -0.00   0.00     0.00   0.00  -0.01
  20   1    -0.06  -0.27   0.13     0.01   0.05  -0.02    -0.01  -0.07   0.03
  21   1    -0.08  -0.31   0.16     0.01   0.04  -0.02    -0.01  -0.04   0.02
  22   1    -0.05   0.06   0.01     0.01  -0.01  -0.00     0.00   0.00  -0.00
  23   1     0.04   0.03   0.01     0.00  -0.00   0.00    -0.00   0.00  -0.00
  24   1    -0.05  -0.26   0.13     0.01   0.05  -0.02    -0.01  -0.05   0.02
  25   1    -0.11  -0.51   0.24     0.01   0.07  -0.03    -0.01  -0.07   0.03
  26   1     0.02  -0.01  -0.28     0.00  -0.00  -0.02     0.00   0.00   0.02
  27   1     0.31  -0.27  -0.09     0.25  -0.25  -0.07    -0.17   0.18   0.04
  28   1    -0.02  -0.04   0.03     0.13   0.55  -0.26    -0.11  -0.48   0.23
                     76                     77                     78
                        a                      a                      a 
 Frequencies --  2976.6660              3213.0048              3227.2291
 Red. masses --     1.5939                 1.9735                 1.5580
 Frc consts  --     0.0000                 0.0000                 0.0000
 IR Inten    --     2.2902                89.5412                14.7670
 Raman Activ --     0.0000                 0.0000                 0.0000
 Depolar     --     0.0000                 0.0000                 0.0000
 Atom AN      X      Y      Z        X      Y      Z        X      Y      Z
   1   7     0.02  -0.02  -0.02     0.24   0.07   0.11    -0.03  -0.20   0.05
   2   6     0.04  -0.12  -0.14     0.01   0.00   0.01     0.00  -0.00   0.01
   3   6     0.09  -0.08  -0.03    -0.00  -0.00   0.00     0.00   0.00   0.00
   4   6     0.00  -0.00  -0.00    -0.00  -0.00  -0.00    -0.00  -0.00   0.00
   5   6    -0.00  -0.00  -0.00     0.00   0.00  -0.00     0.00   0.00  -0.00
   6   6     0.00   0.00  -0.00     0.00   0.00  -0.00     0.00   0.00  -0.00
   7   6     0.00   0.00  -0.00     0.00   0.00  -0.00    -0.00   0.00  -0.00
   8   6     0.00   0.00  -0.00     0.00   0.00  -0.00     0.00   0.00  -0.00
   9   6     0.03   0.02  -0.02     0.00   0.01  -0.00     0.00   0.01  -0.00
  10  17    -0.00   0.00   0.00     0.00   0.00   0.00    -0.00   0.00   0.00
  11   1     0.00  -0.00  -0.00    -0.18  -0.35   0.01     0.45   0.76   0.00
  12   1    -0.06   0.07   0.05     0.04  -0.02  -0.01     0.03  -0.06  -0.02
  13   1    -0.01   0.00  -0.01    -0.76   0.13  -0.41    -0.36   0.03  -0.19
  14   1     0.37   0.03   0.20    -0.02  -0.00  -0.01    -0.01   0.00  -0.01
  15   1    -0.50   0.39   0.29     0.00  -0.00  -0.00     0.00  -0.00  -0.00
  16   1    -0.33   0.26   0.19     0.00  -0.00  -0.00    -0.00   0.00   0.00
  17   1     0.02   0.01  -0.09     0.00   0.00  -0.00     0.00   0.00  -0.00
  18   1     0.00   0.00  -0.00     0.00   0.00   0.00     0.00   0.00  -0.00
  19   1    -0.00   0.00   0.02    -0.00   0.00   0.00    -0.00  -0.00   0.00
  20   1     0.00   0.02  -0.01    -0.00  -0.01   0.00    -0.00  -0.01   0.00
  21   1    -0.00  -0.01   0.00    -0.00  -0.00   0.00     0.00  -0.00   0.00
  22   1    -0.01   0.01   0.00    -0.00   0.00   0.00     0.00  -0.00  -0.00
  23   1    -0.00  -0.00  -0.00    -0.00  -0.00  -0.00     0.00   0.00   0.00
  24   1    -0.00  -0.01   0.00     0.00  -0.00   0.00     0.00  -0.00   0.00
  25   1    -0.00  -0.01   0.01    -0.00  -0.00   0.00    -0.00  -0.00   0.00
  26   1    -0.00   0.00   0.00     0.00   0.00   0.00     0.00   0.00   0.00
  27   1    -0.08   0.08   0.02    -0.00  -0.00  -0.00    -0.00   0.00   0.00
  28   1    -0.03  -0.14   0.07    -0.01  -0.04   0.01    -0.01  -0.02   0.01
