 Entering Gaussian System
 *********************************************
 Gaussian 98:
 frequency output generated by the xtb code
 *********************************************
                         Standard orientation:
 --------------------------------------------------------------------
  Center     Atomic     Atomic              Coordinates (Angstroms)
  Number     Number      Type              X           Y           Z
 --------------------------------------------------------------------
    1          7             0       -0.177028   -1.784069    0.324744
    2          6             0        1.034754   -1.084696   -0.179912
    3          6             0        1.253163    0.260584    0.501525
    4          6             0        2.405155    0.955518    0.038420
    5          7             0        3.348117    1.508002   -0.350754
    6         17             0       -2.931429    0.277995   -0.168790
    7          1             0       -0.330615   -2.687909   -0.149824
    8          1             0       -1.023186   -1.201834    0.178946
    9          1             0       -0.102706   -1.969197    1.336964
   10          1             0        0.954241   -0.938077   -1.264172
   11          1             0        1.917781   -1.718830   -0.035144
   12          1             0        1.332626    0.114696    1.585005
   13          1             0        0.370026    0.893189    0.356337
 --------------------------------------------------------------------
     1 basis functions        1 primitive gaussians
     1 alpha electrons        1 beta electrons

 Harmonic frequencies (cm**-1), IR intensities (km*mol⁻¹),
 Raman scattering activities (A**4/amu), Raman depolarization ratios,
 reduced masses (AMU), force constants (mDyne/A) and normal coordinates:
                      1                      2                      3
                        a                      a                      a 
 Frequencies --  -141.2395                64.0929                96.7858
 Red. masses --    22.2791                20.5643                 9.4488
 Frc consts  --     0.0000                 0.0000                 0.0000
 IR Inten    --   159.5893                20.6077                 5.9253
 Raman Activ --     0.0000                 0.0000                 0.0000
 Depolar     --     0.0000                 0.0000                 0.0000
 Atom AN      X      Y      Z        X      Y      Z        X      Y      Z
   1   7    -0.45   0.36  -0.11    -0.07   0.30  -0.02    -0.10   0.06  -0.07
   2   6    -0.24   0.09  -0.00    -0.06   0.22  -0.08     0.04  -0.05   0.11
   3   6    -0.06   0.05   0.02     0.23   0.11   0.04     0.36  -0.28   0.47
   4   6    -0.04  -0.00  -0.01     0.34  -0.06   0.04    -0.03   0.02  -0.05
   5   7    -0.02  -0.04  -0.01     0.43  -0.17   0.04    -0.23   0.19  -0.29
   6  17     0.58  -0.35   0.08    -0.53  -0.31   0.00    -0.06   0.06  -0.14
   7   1    -0.15   0.10  -0.03    -0.00   0.06   0.03     0.00   0.00   0.00
   8   1    -0.11   0.15  -0.05    -0.04   0.05  -0.03    -0.02   0.01  -0.10
   9   1    -0.15   0.09  -0.03    -0.02   0.11   0.00    -0.09   0.05  -0.01
  10   1    -0.04   0.03  -0.00    -0.05   0.10  -0.02     0.01   0.08   0.04
  11   1    -0.10  -0.02   0.02    -0.03   0.03  -0.08    -0.02  -0.08  -0.03
  12   1    -0.00   0.00   0.00     0.08  -0.01   0.01     0.32  -0.19   0.11
  13   1    -0.01   0.03   0.03     0.10   0.09   0.05     0.06  -0.09   0.36
                      4                      5                      6
                        a                      a                      a 
 Frequencies --   169.9698               223.5608               321.7908
 Red. masses --     8.3665                10.9230                 3.1703
 Frc consts  --     0.0000                 0.0000                 0.0000
 IR Inten    --     9.1133                 1.8657                 2.0908
 Raman Activ --     0.0000                 0.0000                 0.0000
 Depolar     --     0.0000                 0.0000                 0.0000
 Atom AN      X      Y      Z        X      Y      Z        X      Y      Z
   1   7    -0.16   0.15  -0.32    -0.16   0.11   0.25     0.10   0.14  -0.12
   2   6     0.36  -0.25   0.34    -0.05  -0.34  -0.18     0.16  -0.01  -0.08
   3   6     0.04   0.02  -0.08     0.20  -0.29  -0.34    -0.11  -0.03  -0.02
   4   6     0.02   0.05  -0.07     0.12   0.04  -0.06    -0.15   0.02   0.04
   5   7     0.05   0.05  -0.02     0.04   0.47   0.29    -0.05  -0.18   0.04
   6  17    -0.19  -0.01   0.12    -0.05   0.03   0.00     0.00   0.02   0.09
   7   1    -0.11   0.10  -0.19    -0.10  -0.02   0.19     0.29  -0.21   0.35
   8   1     0.03   0.15  -0.08    -0.02   0.05   0.01    -0.03  -0.15  -0.47
   9   1    -0.15  -0.07  -0.10    -0.03   0.16   0.09    -0.20   0.53   0.07
  10   1     0.35  -0.19   0.06    -0.06  -0.15  -0.05     0.10  -0.03  -0.03
  11   1     0.04  -0.10   0.36    -0.05  -0.15  -0.06     0.04   0.01   0.04
  12   1    -0.06   0.12  -0.00     0.05  -0.09  -0.10    -0.03  -0.03  -0.01
  13   1    -0.01  -0.05  -0.14     0.05  -0.09  -0.09    -0.06  -0.04   0.00
                      7                      8                      9
                        a                      a                      a 
 Frequencies --   372.4720               459.3141               557.7370
 Red. masses --     9.5343                10.4628                12.0452
 Frc consts  --     0.0000                 0.0000                 0.0000
 IR Inten    --    11.6957                 3.8222                 5.5035
 Raman Activ --     0.0000                 0.0000                 0.0000
 Depolar     --     0.0000                 0.0000                 0.0000
 Atom AN      X      Y      Z        X      Y      Z        X      Y      Z
   1   7     0.24   0.49   0.12     0.04   0.01   0.05     0.15   0.17  -0.01
   2   6     0.27  -0.05  -0.25     0.02  -0.01   0.00     0.04   0.16   0.09
   3   6    -0.08  -0.20   0.02    -0.00  -0.00  -0.01    -0.08   0.02   0.06
   4   6    -0.18  -0.04   0.22    -0.41   0.32  -0.52     0.04  -0.70  -0.46
   5   7    -0.21  -0.25  -0.05     0.28  -0.24   0.36    -0.22   0.19   0.29
   6  17    -0.05  -0.03  -0.04    -0.01  -0.01   0.00    -0.00   0.00   0.00
   7   1    -0.19   0.19  -0.01    -0.04   0.04  -0.03     0.06   0.04  -0.01
   8   1     0.13   0.28   0.21     0.03   0.04   0.06     0.03   0.03  -0.01
   9   1     0.21   0.04   0.00     0.03  -0.06   0.00     0.03   0.04  -0.00
  10   1     0.06  -0.00  -0.07    -0.00  -0.01   0.00     0.04   0.07   0.02
  11   1     0.07  -0.03  -0.08     0.01   0.01   0.00     0.03   0.07   0.03
  12   1    -0.07  -0.11   0.00     0.30  -0.05  -0.03     0.03   0.07   0.02
  13   1    -0.05  -0.10  -0.01    -0.12  -0.11   0.25     0.03   0.07   0.01
                     10                     11                     12
                        a                      a                      a 
 Frequencies --   785.7165               878.8827               911.3442
 Red. masses --     2.6144                 2.9978                 6.0590
 Frc consts  --     0.0000                 0.0000                 0.0000
 IR Inten    --    38.1173                 9.2806                32.4371
 Raman Activ --     0.0000                 0.0000                 0.0000
 Depolar     --     0.0000                 0.0000                 0.0000
 Atom AN      X      Y      Z        X      Y      Z        X      Y      Z
   1   7    -0.01  -0.01  -0.00    -0.10   0.09  -0.11     0.14   0.28   0.09
   2   6    -0.12   0.09  -0.15    -0.08   0.08  -0.07    -0.13   0.13   0.22
   3   6    -0.14   0.11  -0.16     0.19  -0.15   0.18     0.17  -0.21  -0.35
   4   6     0.11  -0.09   0.14    -0.11   0.08  -0.12    -0.09   0.02   0.12
   5   7    -0.03   0.03  -0.04     0.01  -0.03   0.04    -0.13  -0.10   0.03
   6  17     0.01   0.00  -0.01     0.01   0.01  -0.00     0.00   0.01   0.00
   7   1     0.02  -0.03   0.04     0.17  -0.08   0.11     0.50   0.16  -0.30
   8   1    -0.09  -0.09   0.13    -0.30  -0.29   0.28    -0.14  -0.20  -0.06
   9   1     0.19   0.02  -0.01     0.45   0.09  -0.05    -0.16  -0.24  -0.02
  10   1     0.30  -0.34  -0.11     0.26   0.09  -0.03    -0.13  -0.05   0.05
  11   1    -0.03   0.13   0.45    -0.19  -0.18   0.15    -0.07  -0.02   0.03
  12   1     0.24  -0.33  -0.10    -0.19   0.15   0.09     0.08  -0.09  -0.10
  13   1    -0.02   0.15   0.38     0.08  -0.06  -0.25     0.04  -0.06  -0.04
                     13                     14                     15
                        a                      a                      a 
 Frequencies --  1015.9442              1033.6477              1050.6554
 Red. masses --    11.0619                 5.7985                 5.9157
 Frc consts  --     0.0000                 0.0000                 0.0000
 IR Inten    --     3.5605                 9.5765                18.8634
 Raman Activ --     0.0000                 0.0000                 0.0000
 Depolar     --     0.0000                 0.0000                 0.0000
 Atom AN      X      Y      Z        X      Y      Z        X      Y      Z
   1   7    -0.39  -0.21   0.20     0.24  -0.08  -0.08     0.08  -0.02  -0.23
   2   6     0.47   0.32  -0.20    -0.35   0.02   0.02    -0.11  -0.13   0.25
   3   6     0.32   0.10  -0.16     0.35  -0.08   0.03     0.15   0.18  -0.32
   4   6    -0.15  -0.06   0.05    -0.21   0.10  -0.05    -0.03  -0.07   0.23
   5   7    -0.24  -0.15   0.10    -0.13  -0.12   0.08    -0.21  -0.12   0.05
   6  17     0.00   0.00   0.00    -0.00  -0.01   0.00    -0.00  -0.00  -0.00
   7   1    -0.08  -0.04   0.02    -0.16  -0.00   0.03    -0.14  -0.08   0.13
   8   1    -0.10  -0.06   0.03     0.23   0.20  -0.09     0.03   0.04   0.08
   9   1    -0.15  -0.09   0.05    -0.06   0.09   0.01     0.26   0.17  -0.04
  10   1     0.11   0.05  -0.05     0.00  -0.18  -0.03    -0.05   0.19   0.09
  11   1     0.11   0.08  -0.02    -0.02   0.14   0.18    -0.06  -0.11  -0.10
  12   1     0.10   0.04  -0.04    -0.15  -0.02   0.02     0.47   0.35  -0.07
  13   1     0.15   0.11  -0.08     0.41   0.39  -0.14    -0.03  -0.02   0.07
                     16                     17                     18
                        a                      a                      a 
 Frequencies --  1123.2979              1192.7607              1249.1683
 Red. masses --     8.2439                 4.2622                 1.9148
 Frc consts  --     0.0000                 0.0000                 0.0000
 IR Inten    --    16.9805                 6.5756                 6.4028
 Raman Activ --     0.0000                 0.0000                 0.0000
 Depolar     --     0.0000                 0.0000                 0.0000
 Atom AN      X      Y      Z        X      Y      Z        X      Y      Z
   1   7     0.01   0.16   0.06     0.15  -0.10   0.19     0.08  -0.05   0.15
   2   6     0.05  -0.48  -0.28    -0.24   0.16  -0.32     0.02  -0.06   0.02
   3   6     0.08   0.48   0.23     0.10   0.02   0.10    -0.15   0.05  -0.13
   4   6    -0.05  -0.05  -0.01     0.04  -0.05   0.06    -0.02   0.03  -0.02
   5   7    -0.10  -0.05   0.05    -0.03  -0.00  -0.00     0.02   0.00  -0.00
   6  17     0.00   0.00   0.00    -0.00  -0.00   0.00     0.00  -0.00   0.00
   7   1     0.22   0.06  -0.11    -0.03   0.07  -0.11    -0.01   0.04  -0.06
   8   1    -0.10  -0.12  -0.03     0.17   0.09  -0.15     0.09   0.03  -0.10
   9   1    -0.04  -0.13  -0.01    -0.25  -0.06   0.06    -0.08  -0.04   0.04
  10   1    -0.11  -0.26  -0.09     0.29  -0.03  -0.12     0.37   0.52   0.05
  11   1    -0.04  -0.22  -0.12    -0.23  -0.13   0.21    -0.30  -0.45  -0.05
  12   1     0.05   0.15   0.06     0.17   0.37   0.06    -0.07  -0.23  -0.06
  13   1     0.10   0.23   0.07    -0.22  -0.36  -0.11     0.15   0.31   0.12
                     19                     20                     21
                        a                      a                      a 
 Frequencies --  1287.0714              1345.2261              1371.1201
 Red. masses --     4.5473                 4.5946                 2.4979
 Frc consts  --     0.0000                 0.0000                 0.0000
 IR Inten    --    23.4152                12.5400               130.7293
 Raman Activ --     0.0000                 0.0000                 0.0000
 Depolar     --     0.0000                 0.0000                 0.0000
 Atom AN      X      Y      Z        X      Y      Z        X      Y      Z
   1   7     0.11  -0.07  -0.11     0.16  -0.03  -0.10    -0.27  -0.10  -0.03
   2   6     0.04   0.19   0.14     0.20   0.27   0.01     0.07   0.15   0.02
   3   6     0.27   0.36  -0.03    -0.29  -0.27   0.05    -0.06  -0.05   0.01
   4   6    -0.02  -0.07  -0.04     0.02   0.04   0.02     0.01   0.00  -0.00
   5   7    -0.09  -0.04   0.05     0.07   0.04  -0.03     0.01   0.00  -0.00
   6  17    -0.00  -0.00  -0.00     0.00  -0.00  -0.00    -0.01  -0.01  -0.00
   7   1    -0.18  -0.03   0.07    -0.16   0.01   0.01     0.53  -0.16   0.09
   8   1     0.02  -0.02   0.04    -0.09  -0.13   0.22     0.34   0.54   0.02
   9   1    -0.02   0.07  -0.01    -0.25   0.10   0.02     0.24  -0.06  -0.03
  10   1    -0.19  -0.22   0.02    -0.24  -0.31  -0.03    -0.07  -0.17  -0.02
  11   1    -0.26  -0.34  -0.03    -0.24  -0.35  -0.01    -0.14  -0.19  -0.04
  12   1    -0.24  -0.44  -0.06     0.20   0.22   0.03     0.03   0.03   0.01
  13   1    -0.20  -0.29  -0.05     0.15   0.25  -0.00     0.02   0.04   0.01
                     22                     23                     24
                        a                      a                      a 
 Frequencies --  1392.8764              1433.0198              1448.8166
 Red. masses --     1.8086                 1.9584                 1.9913
 Frc consts  --     0.0000                 0.0000                 0.0000
 IR Inten    --    58.0832                35.7488                84.7532
 Raman Activ --     0.0000                 0.0000                 0.0000
 Depolar     --     0.0000                 0.0000                 0.0000
 Atom AN      X      Y      Z        X      Y      Z        X      Y      Z
   1   7     0.06  -0.05  -0.15     0.02   0.01  -0.04     0.09   0.23  -0.11
   2   6    -0.07  -0.14  -0.05     0.02   0.02  -0.01    -0.02  -0.00  -0.04
   3   6     0.05   0.09   0.01     0.18  -0.09  -0.20    -0.02  -0.00   0.02
   4   6    -0.00  -0.01  -0.01    -0.00  -0.02  -0.01    -0.00   0.00   0.00
   5   7    -0.02  -0.01   0.01    -0.01  -0.01   0.01     0.00   0.00  -0.00
   6  17    -0.00  -0.00  -0.01     0.00   0.00  -0.00     0.00   0.00   0.00
   7   1     0.26  -0.08   0.04     0.00  -0.04   0.07    -0.07  -0.29   0.59
   8   1    -0.01   0.16   0.68    -0.01   0.01   0.08    -0.01  -0.00  -0.02
   9   1    -0.50   0.20   0.06    -0.08  -0.04  -0.00    -0.17  -0.64  -0.11
  10   1     0.09   0.18   0.01    -0.01  -0.02  -0.01    -0.03   0.09   0.01
  11   1     0.08   0.11   0.02    -0.01  -0.02  -0.01    -0.03   0.01   0.10
  12   1     0.02  -0.11  -0.02    -0.53   0.38   0.08     0.06  -0.02  -0.01
  13   1    -0.03  -0.05  -0.06    -0.09   0.00   0.67     0.01   0.00  -0.07
                     25                     26                     27
                        a                      a                      a 
 Frequencies --  1484.4264              2294.1761              2809.8345
 Red. masses --     1.8953                12.7383                 2.0270
 Frc consts  --     0.0000                 0.0000                 0.0000
 IR Inten    --     9.8567               174.8458              1981.1992
 Raman Activ --     0.0000                 0.0000                 0.0000
 Depolar     --     0.0000                 0.0000                 0.0000
 Atom AN      X      Y      Z        X      Y      Z        X      Y      Z
   1   7     0.01   0.03  -0.01     0.00   0.00   0.00    -0.22   0.17  -0.05
   2   6    -0.17   0.11   0.20    -0.01  -0.01  -0.00     0.01  -0.02   0.01
   3   6    -0.02  -0.01   0.00    -0.10  -0.05   0.04     0.01  -0.00   0.00
   4   6    -0.00   0.00   0.00     0.64   0.38  -0.26    -0.00  -0.00   0.00
   5   7     0.00   0.00  -0.00    -0.49  -0.29   0.20     0.00   0.00  -0.00
   6  17     0.00   0.00  -0.00     0.00  -0.00   0.00     0.01  -0.01   0.00
   7   1    -0.03  -0.03   0.08     0.00   0.00  -0.00    -0.01  -0.01  -0.02
   8   1    -0.04  -0.03   0.03     0.00  -0.00  -0.00     0.77  -0.55   0.15
   9   1    -0.06  -0.07  -0.01    -0.00  -0.00  -0.00    -0.01   0.01   0.03
  10   1     0.55  -0.36  -0.08     0.00   0.00   0.00     0.00  -0.00  -0.01
  11   1     0.11   0.01  -0.67     0.00   0.00  -0.00    -0.04   0.04  -0.01
  12   1     0.02  -0.00  -0.00    -0.02  -0.00  -0.01    -0.00  -0.00   0.00
  13   1     0.00   0.01  -0.01    -0.00  -0.02   0.01    -0.02   0.01  -0.00
                     28                     29                     30
                        a                      a                      a 
 Frequencies --  2936.8941              2955.3473              2966.7534
 Red. masses --     1.9161                 1.9541                 1.5562
 Frc consts  --     0.0000                 0.0000                 0.0000
 IR Inten    --     6.2485                 0.6861                11.2339
 Raman Activ --     0.0000                 0.0000                 0.0000
 Depolar     --     0.0000                 0.0000                 0.0000
 Atom AN      X      Y      Z        X      Y      Z        X      Y      Z
   1   7    -0.00   0.00  -0.00     0.02  -0.01   0.00    -0.00   0.00  -0.00
   2   6    -0.07   0.05  -0.08     0.17  -0.13   0.16    -0.00   0.01  -0.09
   3   6     0.13  -0.11   0.20     0.03  -0.03   0.12    -0.15   0.10   0.09
   4   6     0.00  -0.00   0.01    -0.00  -0.00   0.00    -0.02  -0.01   0.01
   5   7     0.00   0.00  -0.00     0.00   0.00  -0.00     0.01   0.01  -0.00
   6  17    -0.00  -0.00   0.00    -0.00   0.00  -0.00     0.00   0.00  -0.00
   7   1    -0.00   0.00   0.00     0.00   0.00   0.00     0.00   0.00   0.00
   8   1     0.01  -0.01   0.00    -0.04   0.03  -0.01     0.02  -0.01   0.00
   9   1     0.00   0.00  -0.01     0.00   0.00   0.01    -0.00   0.00  -0.01
  10   1     0.02  -0.03   0.27    -0.02   0.05  -0.46     0.03  -0.05   0.34
  11   1     0.23  -0.17   0.03    -0.57   0.41  -0.09    -0.03   0.02  -0.02
  12   1    -0.04   0.09  -0.68    -0.03   0.06  -0.42    -0.06   0.08  -0.47
  13   1    -0.43   0.31  -0.05    -0.07   0.04   0.00     0.62  -0.45   0.13
                     31                     32                     33
                        a                      a                      a 
 Frequencies --  2982.9042              3201.5400              3211.6972
 Red. masses --     1.5363                 2.0051                 1.5355
 Frc consts  --     0.0000                 0.0000                 0.0000
 IR Inten    --     2.7658                60.2372                21.4172
 Raman Activ --     0.0000                 0.0000                 0.0000
 Depolar     --     0.0000                 0.0000                 0.0000
 Atom AN      X      Y      Z        X      Y      Z        X      Y      Z
   1   7     0.01  -0.00   0.01     0.04   0.17   0.22    -0.01  -0.13   0.16
   2   6     0.11  -0.06  -0.17    -0.00   0.00   0.01    -0.00  -0.00   0.01
   3   6     0.04  -0.03  -0.05    -0.00  -0.00  -0.00     0.00   0.00  -0.00
   4   6     0.01   0.00  -0.00    -0.00   0.00   0.00    -0.00   0.00   0.00
   5   7    -0.00  -0.00   0.00     0.00  -0.00  -0.00     0.00   0.00  -0.00
   6  17    -0.00   0.00   0.00     0.00  -0.00  -0.00    -0.00   0.00  -0.00
   7   1     0.00  -0.00  -0.00    -0.12  -0.75  -0.40     0.07   0.39   0.24
   8   1    -0.02   0.02  -0.01    -0.01   0.02   0.02     0.04  -0.04   0.02
   9   1    -0.00   0.00  -0.02    -0.04   0.09  -0.43    -0.07   0.13  -0.85
  10   1     0.08  -0.12   0.71    -0.00   0.00  -0.01    -0.00   0.00  -0.02
  11   1    -0.46   0.33  -0.11     0.00  -0.00  -0.00     0.01  -0.00   0.00
  12   1     0.02  -0.03   0.21    -0.00  -0.00  -0.00    -0.00  -0.00   0.00
  13   1    -0.18   0.13  -0.04     0.00  -0.00   0.00     0.00  -0.00   0.00
