      -----------------------------------------------------------      
     |                   =====================                   |     
     |                           x T B                           |     
     |                   =====================                   |     
     |                         S. Grimme                         |     
     |          Mulliken Center for Theoretical Chemistry        |     
     |                    University of Bonn                     |     
      -----------------------------------------------------------      

   * xtb version 6.5.1 (fef0646) compiled by 'conda@b96dff2e9fd6' on 2023-01-04

   xtb is free software: you can redistribute it and/or modify it under
   the terms of the GNU Lesser General Public License as published by
   the Free Software Foundation, either version 3 of the License, or
   (at your option) any later version.
   
   xtb is distributed in the hope that it will be useful,
   but WITHOUT ANY WARRANTY; without even the implied warranty of
   MERCHANTABILITY or FITNESS FOR A PARTICULAR PURPOSE.  See the
   GNU Lesser General Public License for more details.
   
   Cite this work as:
   * C. Bannwarth, E. Caldeweyher, S. Ehlert, A. Hansen, P. Pracht,
     J. Seibert, S. Spicher, S. Grimme, WIREs Comput. Mol. Sci., 2020, 11,
     e01493. DOI: 10.1002/wcms.1493
   
   for GFN2-xTB:
   * C. Bannwarth, S. Ehlert and S. Grimme., J. Chem. Theory Comput., 2019,
     15, 1652-1671. DOI: 10.1021/acs.jctc.8b01176
   for GFN1-xTB:
   * S. Grimme, C. Bannwarth, P. Shushkov, J. Chem. Theory Comput., 2017,
     13, 1989-2009. DOI: 10.1021/acs.jctc.7b00118
   for GFN0-xTB:
   * P. Pracht, E. Caldeweyher, S. Ehlert, S. Grimme, ChemRxiv, 2019, preprint.
     DOI: 10.26434/chemrxiv.8326202.v1
   for GFN-FF:
   * S. Spicher and S. Grimme, Angew. Chem. Int. Ed., 2020, 59, 15665-15673.
     DOI: 10.1002/anie.202004239
   
   for ALPB and GBSA implicit solvation:
   * S. Ehlert, M. Stahn, S. Spicher, S. Grimme, J. Chem. Theory Comput.,
     2021, 17, 4250-4261. DOI: 10.1021/acs.jctc.1c00471
   
   for DFT-D4:
   * E. Caldeweyher, C. Bannwarth and S. Grimme, J. Chem. Phys., 2017,
     147, 034112. DOI: 10.1063/1.4993215
   * E. Caldeweyher, S. Ehlert, A. Hansen, H. Neugebauer, S. Spicher,
     C. Bannwarth and S. Grimme, J. Chem. Phys., 2019, 150, 154122.
     DOI: 10.1063/1.5090222
   * E. Caldeweyher, J.-M. Mewes, S. Ehlert and S. Grimme, Phys. Chem. Chem. Phys.
     2020, 22, 8499-8512. DOI: 10.1039/D0CP00502A
   
   for sTDA-xTB:
   * S. Grimme and C. Bannwarth, J. Chem. Phys., 2016, 145, 054103.
     DOI: 10.1063/1.4959605
   
   in the mass-spec context:
   * V. Asgeirsson, C. Bauer and S. Grimme, Chem. Sci., 2017, 8, 4879.
     DOI: 10.1039/c7sc00601b
   * J. Koopman and S. Grimme, ACS Omega 2019, 4, 12, 15120-15133.
     DOI: 10.1021/acsomega.9b02011
   
   for metadynamics refer to:
   * S. Grimme, J. Chem. Theory Comput., 2019, 155, 2847-2862
     DOI: 10.1021/acs.jctc.9b00143
   
   for SPH calculations refer to:
   * S. Spicher and S. Grimme, J. Chem. Theory Comput., 2021, 17, 1701-1714
     DOI: 10.1021/acs.jctc.0c01306
   
   with help from (in alphabetical order)
   P. Atkinson, C. Bannwarth, F. Bohle, G. Brandenburg, E. Caldeweyher
   M. Checinski, S. Dohm, S. Ehlert, S. Ehrlich, I. Gerasimov, C. Hölzer
   A. Katbashev, J. Koopman, C. Lavigne, S. Lehtola, F. März, M. Müller,
   F. Musil, H. Neugebauer, J. Pisarek, C. Plett, P. Pracht, F. Pultar,
   J. Seibert, P. Shushkov, S. Spicher, M. Stahn, M. Steiner, T. Strunk,
   J. Stückrath, T. Rose, and J. Unsleber
   
 * started run on 2023/01/24 at 14:55:54.160     

           -------------------------------------------------
          |                Calculation Setup                |
           -------------------------------------------------

          program call               : xtb init.xyz --opt -c 1 -u 0 -P 16 --alpb water
          hostname                   : gpg-woodward
          coordinate file            : init.xyz
          omp threads                :                    16

   ID    Z sym.   atoms
    1    7 N      1
    2    6 C      2-5
    3    1 H      6-17

           -------------------------------------------------
          |                 G F N 2 - x T B                 |
           -------------------------------------------------

        Reference                      10.1021/acs.jctc.8b01176
      * Hamiltonian:
        H0-scaling (s, p, d)           1.850000    2.230000    2.230000
        zeta-weighting                 0.500000
      * Dispersion:
        s8                             2.700000
        a1                             0.520000
        a2                             5.000000
        s9                             5.000000
      * Repulsion:
        kExp                           1.500000    1.000000
        rExp                           1.000000
      * Coulomb:
        alpha                          2.000000
        third order                    shell-resolved
        anisotropic                    true
        a3                             3.000000
        a5                             4.000000
        cn-shift                       1.200000
        cn-exp                         4.000000
        max-rad                        5.000000

      * Solvation model:               ALPB
        Solvent                        water
        Parameter file                 internal GFN2-xTB/ALPB
        Dielectric constant                8.0200E+01
        Reference state                gsolv [1 M gas/solution]
        Free energy shift                  1.0808E-03 Eh       6.7819E-01 kcal/mol
        Temperature                        2.9815E+02 K
        Density                            1.0000E+00 kg/L
        Solvent mass                       1.8000E+01 g/mol
        Interaction kernel             P16
        Born radius scaling (c1)           1.4744E+00
        Born radii integrator          GBOBC
        Born offset                        0.0000E+00 a0       0.0000E+00 AA
        H-bond correction              true
        Ion screening                  false
        Surface tension                    1.0000E-05 Eh       1.5569E+01 dyn/cm
        Grid points                               230 per atom

          ...................................................
          :                      SETUP                      :
          :.................................................:
          :  # basis functions                  32          :
          :  # atomic orbitals                  32          :
          :  # shells                           22          :
          :  # electrons                        32          :
          :  max. iterations                   250          :
          :  Hamiltonian                  GFN2-xTB          :
          :  restarted?                      false          :
          :  GBSA solvation                   true          :
          :  PC potential                    false          :
          :  electronic temp.          300.0000000     K    :
          :  accuracy                    1.0000000          :
          :  -> integral cutoff          0.2500000E+02      :
          :  -> integral neglect         0.1000000E-07      :
          :  -> SCF convergence          0.1000000E-05 Eh   :
          :  -> wf. convergence          0.1000000E-03 e    :
          :  Broyden damping             0.4000000          :
          ...................................................

 iter      E             dE          RMSdq      gap      omega  full diag
   1    -17.4546584 -0.174547E+02  0.321E+00   11.85       0.0  T
   2    -17.5211280 -0.664695E-01  0.173E+00   10.63       1.0  T
   3    -17.5237040 -0.257604E-02  0.987E-01   10.29       1.0  T
   4    -17.5239508 -0.246790E-03  0.176E-01   10.21       1.0  T
   5    -17.5240526 -0.101753E-03  0.774E-02   10.20       1.0  T
   6    -17.5240545 -0.196574E-05  0.244E-02   10.21       1.0  T
   7    -17.5240554 -0.833932E-06  0.592E-03   10.21       4.1  T
   8    -17.5240554 -0.270285E-07  0.346E-03   10.21       7.0  T
   9    -17.5240554 -0.107264E-07  0.247E-04   10.21      98.3  T
  10    -17.5240554 -0.331255E-10  0.125E-04   10.21     194.6  T

   *** convergence criteria satisfied after 10 iterations ***

         #    Occupation            Energy/Eh            Energy/eV
      -------------------------------------------------------------
         1        2.0000           -0.6918303             -18.8257
       ...           ...                  ...                  ...
        10        2.0000           -0.4969776             -13.5234
        11        2.0000           -0.4813291             -13.0976
        12        2.0000           -0.4661176             -12.6837
        13        2.0000           -0.4582358             -12.4692
        14        2.0000           -0.4460840             -12.1386
        15        2.0000           -0.4387414             -11.9388
        16        2.0000           -0.4308730             -11.7247 (HOMO)
        17                         -0.0555403              -1.5113 (LUMO)
        18                          0.0524263               1.4266
        19                          0.0660060               1.7961
        20                          0.0892801               2.4294
        21                          0.1032467               2.8095
       ...                                ...                  ...
        32                          0.2870522               7.8111
      -------------------------------------------------------------
                  HL-Gap            0.3753326 Eh           10.2133 eV
             Fermi-level           -0.2432067 Eh           -6.6180 eV

 SCC (total)                   0 d,  0 h,  0 min,  0.013 sec
 SCC setup                      ...        0 min,  0.000 sec (  2.604%)
 Dispersion                     ...        0 min,  0.000 sec (  1.772%)
 classical contributions        ...        0 min,  0.000 sec (  0.521%)
 integral evaluation            ...        0 min,  0.001 sec (  4.312%)
 iterations                     ...        0 min,  0.010 sec ( 76.588%)
 molecular gradient             ...        0 min,  0.001 sec ( 10.843%)
 printout                       ...        0 min,  0.000 sec (  1.156%)

         :::::::::::::::::::::::::::::::::::::::::::::::::::::
         ::                     SUMMARY                     ::
         :::::::::::::::::::::::::::::::::::::::::::::::::::::
         :: total energy             -17.280048519343 Eh    ::
         :: total w/o Gsasa/hb       -17.270302973826 Eh    ::
         :: gradient norm              0.023213366073 Eh/a0 ::
         :: HOMO-LUMO gap             10.213321200060 eV    ::
         ::.................................................::
         :: SCC energy               -17.524055394770 Eh    ::
         :: -> isotropic ES            0.122370322347 Eh    ::
         :: -> anisotropic ES         -0.011977638378 Eh    ::
         :: -> anisotropic XC          0.013650511150 Eh    ::
         :: -> dispersion             -0.007781369973 Eh    ::
         :: -> Gsolv                  -0.114467023384 Eh    ::
         ::    -> Gelec               -0.104721477867 Eh    ::
         ::    -> Gsasa               -0.000775399084 Eh    ::
         ::    -> Ghb                 -0.010050906131 Eh    ::
         ::    -> Gshift               0.001080759698 Eh    ::
         :: repulsion energy           0.243984034872 Eh    ::
         :: add. restraining           0.000000000000 Eh    ::
         :: total charge               1.000000000000 e     ::
         :::::::::::::::::::::::::::::::::::::::::::::::::::::

      ----------------------------------------------------------- 
     |                   =====================                   |
     |                        A N C O P T                        |
     |                   =====================                   |
     |               Approximate Normal Coordinate               |
     |                Rational Function Optimizer                |
      ----------------------------------------------------------- 

          ...................................................
          :                      SETUP                      :
          :.................................................:
          :   optimization level            normal          :
          :   max. optcycles                   200          :
          :   ANC micro-cycles                  20          :
          :   degrees of freedom                45          :
          :.................................................:
          :   RF solver                   davidson          :
          :   write xtbopt.log                true          :
          :   linear?                        false          :
          :   energy convergence         0.5000000E-05 Eh   :
          :   grad. convergence          0.1000000E-02 Eh/α :
          :   maximium RF displ.         1.0000000          :
          :   Hlow (freq-cutoff)         0.1000000E-01      :
          :   Hmax (freq-cutoff)         5.0000000          :
          :   S6 in model hess.         20.0000000          :
          ...................................................

generating ANC from model Hessian ...
Using Lindh-Hessian (1995)
 Shifting diagonal of input Hessian by    6.5434153827889302E-003
 Lowest  eigenvalues of input Hessian
    0.000000    0.000000    0.000000    0.000000    0.000000    0.000000
    0.010000    0.013038    0.014655    0.015229    0.017205    0.018351
    0.026645    0.028234    0.057386    0.058492    0.061337    0.062768
 Highest eigenvalues
    1.192538    1.225213    1.250234    1.393852    1.403715    1.447350


........................................................................
.............................. CYCLE    1 ..............................
........................................................................
   1    -17.5240554 -0.175241E+02  0.135E-05   10.21       0.0  T
   2    -17.5240554 -0.110134E-12  0.827E-06   10.21    2931.1  T
   3    -17.5240554 -0.284217E-13  0.182E-06   10.21   13334.0  T
     SCC iter.                  ...        0 min,  0.003 sec
     gradient                   ...        0 min,  0.001 sec
 * total energy  :   -17.2800485 Eh     change       -0.8963497E-11 Eh
   gradient norm :     0.0232134 Eh/α   predicted     0.0000000E+00 (-100.00%)
   displ. norm   :     0.1623180 α      lambda       -0.2106154E-02
   maximum displ.:     0.0625103 α      in ANC's #8, #13, #6, ...

........................................................................
.............................. CYCLE    2 ..............................
........................................................................
   1    -17.5319832 -0.175320E+02  0.188E-01   10.26       0.0  T
   2    -17.5319946 -0.113295E-04  0.109E-01   10.27       1.0  T
   3    -17.5319955 -0.932764E-06  0.126E-02   10.28       1.9  T
   4    -17.5319957 -0.226741E-06  0.388E-03   10.28       6.2  T
   5    -17.5319957 -0.118838E-07  0.202E-03   10.28      12.0  T
   6    -17.5319957 -0.254986E-08  0.338E-04   10.28      71.8  T
   7    -17.5319957 -0.294651E-09  0.187E-04   10.28     129.6  T
     SCC iter.                  ...        0 min,  0.006 sec
     gradient                   ...        0 min,  0.001 sec
 * total energy  :   -17.2812676 Eh     change       -0.1219111E-02 Eh
   gradient norm :     0.0071322 Eh/α   predicted    -0.1080823E-02 ( -11.34%)
   displ. norm   :     0.0918226 α      lambda       -0.2787116E-03
   maximum displ.:     0.0467643 α      in ANC's #8, #3, #2, ...

........................................................................
.............................. CYCLE    3 ..............................
........................................................................
   1    -17.5346353 -0.175346E+02  0.531E-02   10.37       0.0  T
   2    -17.5346378 -0.247993E-05  0.300E-02   10.37       1.0  T
   3    -17.5346379 -0.156300E-06  0.630E-03   10.38       3.8  T
   4    -17.5346379 -0.317791E-07  0.164E-03   10.38      14.8  T
   5    -17.5346379 -0.878629E-09  0.755E-04   10.38      32.1  T
   6    -17.5346379 -0.185466E-09  0.901E-05   10.38     269.2  T
     SCC iter.                  ...        0 min,  0.005 sec
     gradient                   ...        0 min,  0.001 sec
 * total energy  :   -17.2814362 Eh     change       -0.1685998E-03 Eh
   gradient norm :     0.0022274 Eh/α   predicted    -0.1405316E-03 ( -16.65%)
   displ. norm   :     0.0520308 α      lambda       -0.4604781E-04
   maximum displ.:     0.0290062 α      in ANC's #4, #3, #1, ...

........................................................................
.............................. CYCLE    4 ..............................
........................................................................
   1    -17.5348102 -0.175348E+02  0.206E-02   10.42       0.0  T
   2    -17.5348106 -0.351498E-06  0.118E-02   10.42       2.1  T
   3    -17.5348106 -0.216793E-07  0.239E-03   10.42      10.2  T
   4    -17.5348106 -0.844565E-08  0.614E-04   10.42      39.5  T
   5    -17.5348106 -0.602398E-10  0.187E-04   10.42     129.9  T
     SCC iter.                  ...        0 min,  0.004 sec
     gradient                   ...        0 min,  0.001 sec
 * total energy  :   -17.2814656 Eh     change       -0.2941278E-04 Eh
   gradient norm :     0.0009007 Eh/α   predicted    -0.2308718E-04 ( -21.51%)
   displ. norm   :     0.0623596 α      lambda       -0.1454216E-04
   maximum displ.:     0.0422208 α      in ANC's #4, #3, #1, ...

........................................................................
.............................. CYCLE    5 ..............................
........................................................................
   1    -17.5344857 -0.175345E+02  0.181E-02   10.44       0.0  T
   2    -17.5344858 -0.686876E-07  0.107E-02   10.44       2.3  T
   3    -17.5344858 -0.995388E-08  0.966E-04   10.44      25.1  T
   4    -17.5344858 -0.227676E-08  0.425E-04   10.44      57.0  T
     SCC iter.                  ...        0 min,  0.003 sec
     gradient                   ...        0 min,  0.001 sec
 * total energy  :   -17.2814789 Eh     change       -0.1322090E-04 Eh
   gradient norm :     0.0010293 Eh/α   predicted    -0.7283919E-05 ( -44.91%)
   displ. norm   :     0.0513945 α      lambda       -0.8835817E-05
   maximum displ.:     0.0352858 α      in ANC's #4, #3, #1, ...

........................................................................
.............................. CYCLE    6 ..............................
........................................................................
   1    -17.5344072 -0.175344E+02  0.132E-02   10.43       0.0  T
   2    -17.5344072 -0.334076E-07  0.786E-03   10.43       3.1  T
   3    -17.5344072 -0.392462E-08  0.614E-04   10.43      39.5  T
   4    -17.5344072 -0.878700E-09  0.254E-04   10.43      95.3  T
     SCC iter.                  ...        0 min,  0.003 sec
     gradient                   ...        0 min,  0.001 sec
 * total energy  :   -17.2814885 Eh     change       -0.9626098E-05 Eh
   gradient norm :     0.0008530 Eh/α   predicted    -0.4424499E-05 ( -54.04%)
   displ. norm   :     0.0434141 α      lambda       -0.4867130E-05
   maximum displ.:     0.0293336 α      in ANC's #4, #3, #1, ...

........................................................................
.............................. CYCLE    7 ..............................
........................................................................
   1    -17.5345599 -0.175346E+02  0.118E-02   10.42       0.0  T
   2    -17.5345599 -0.325970E-07  0.696E-03   10.42       3.5  T
   3    -17.5345599 -0.344614E-08  0.636E-04   10.42      38.2  T
   4    -17.5345599 -0.116137E-08  0.247E-04   10.42      98.4  T
     SCC iter.                  ...        0 min,  0.003 sec
     gradient                   ...        0 min,  0.001 sec
 * total energy  :   -17.2814927 Eh     change       -0.4238796E-05 Eh
   gradient norm :     0.0003150 Eh/α   predicted    -0.2437315E-05 ( -42.50%)
   displ. norm   :     0.0101742 α      lambda       -0.3739207E-06
   maximum displ.:     0.0076288 α      in ANC's #4, #3, #1, ...

   *** GEOMETRY OPTIMIZATION CONVERGED AFTER 7 ITERATIONS ***

------------------------------------------------------------------------
 total energy gain   :        -0.0014442 Eh       -0.9063 kcal/mol
 total RMSD          :         0.0883879 a0        0.0468 Å
 total power (kW/mol):        -0.5416814 (step)  -63.1489 (real)
------------------------------------------------------------------------

 ANCopt (total)                0 d,  0 h,  0 min,  0.060 sec
 optimizer setup                ...        0 min,  0.000 sec (  0.237%)
 model hessian                  ...        0 min,  0.010 sec ( 16.943%)
 ANC generation                 ...        0 min,  0.001 sec (  1.562%)
 coordinate transformation      ...        0 min,  0.000 sec (  0.371%)
 single point calculation       ...        0 min,  0.045 sec ( 74.629%)
 optimization log               ...        0 min,  0.001 sec (  1.526%)
 hessian update                 ...        0 min,  0.000 sec (  0.401%)
 rational function              ...        0 min,  0.001 sec (  2.225%)

================
 final structure:
================
17
 xtb: 6.5.1 (fef0646)
N            0.91993322352112        0.08227889528554        0.13165309720057
C            2.40033685382154        0.05481441507280        0.05333000815249
C            2.90410345585464       -1.09847917326301       -0.81830381534691
C            2.43113007411054       -0.95170412442153       -2.26437636146586
C            4.43039426657984       -1.12224487523700       -0.75886921203332
H            0.60686887920570        0.83824804702269        0.75038297347788
H            0.56683616284946       -0.81109552643652        0.49413288733572
H            0.52488525850578        0.23524469664923       -0.80313197046984
H            2.80702351791951       -0.05052737444970        1.05892614305017
H            2.75141425191533        0.99900632188641       -0.36392294212700
H            2.53435610444855       -2.04735766527953       -0.41785992936885
H            2.70898714682141        0.02098942023259       -2.66386193194886
H            1.35796749676710       -1.08899660633911       -2.36485899206572
H            2.90593925788106       -1.70695173195677       -2.88582582114626
H            4.84569720759042       -0.20153631795698       -1.16180284749909
H            4.82226400759392       -1.95032405932773       -1.34350335390183
H            4.78112283461407       -1.23888434148139        0.26347206815674

 Bond Distances (Angstroems)
 ---------------------------
N1-C2=1.4827         N1-H6=1.0258         N1-H7=1.0267         N1-H8=1.0263         C2-N1=1.4827         C2-C3=1.5309         
C2-H9=1.0898         C2-H10=1.0903        C3-C2=1.5309         C3-C4=1.5285         C3-C5=1.5276         C3-H11=1.0943        
C4-C3=1.5285         C4-H12=1.0876        C4-H13=1.0866        C4-H14=1.0872        C5-C3=1.5276         C5-H15=1.0874        
C5-H16=1.0868        C5-H17=1.0871        H6-N1=1.0258         H7-N1=1.0267         H8-N1=1.0263         H9-C2=1.0898         
H10-C2=1.0903        H11-C3=1.0943        H12-C4=1.0876        H13-C4=1.0866        H14-C4=1.0872        H15-C5=1.0874        
H16-C5=1.0868        H17-C5=1.0871        
 C  H  Rav=1.0886 sigma=0.0024  Rmin=1.0866  Rmax=1.0943     9
 C  C  Rav=1.5290 sigma=0.0014  Rmin=1.5276  Rmax=1.5309     3
 N  H  Rav=1.0263 sigma=0.0004  Rmin=1.0258  Rmax=1.0267     3
 N  C  Rav=1.4827 sigma=0.0000  Rmin=1.4827  Rmax=1.4827     1

 selected bond angles (degree)
 --------------------
H6-N1-C2=110.50                H7-N1-C2=110.24                H7-N1-H6=108.86                H8-N1-C2=109.81                
H8-N1-H6=108.79                H8-N1-H7=108.59                C3-C2-N1=111.87                H9-C2-N1=109.00                
H9-C2-C3=109.25                H10-C2-N1=109.01               H10-C2-C3=109.18               H10-C2-H9=108.46               
C4-C3-C2=111.38                C5-C3-C2=108.56                C5-C3-C4=110.33                H11-C3-C2=109.49               
H11-C3-C4=108.96               H11-C3-C5=108.05               H12-C4-C3=110.75               H13-C4-C3=112.39               
H13-C4-H12=109.35              H14-C4-C3=109.81               H14-C4-H12=107.44              H14-C4-H13=106.90              
H15-C5-C3=110.73               H16-C5-C3=110.56               H16-C5-H15=107.94              H17-C5-C3=111.14               
H17-C5-H15=108.43              H17-C5-H16=107.93              

 selected dihedral angles (degree)
 ---------------------------------
C3-C2-N1-H6=177.70            C3-C2-N1-H7= 57.32            C3-C2-N1-H8=297.71            H9-C2-N1-H6= 56.76            
H9-C2-N1-H7=296.38            H9-C2-N1-H8=176.77            H10-C2-N1-H6=298.54           H10-C2-N1-H7=178.16           
H10-C2-N1-H8= 58.55           C4-C3-C2-N1= 62.68            C4-C3-C2-H9=183.48            C4-C3-C2-H10=301.94           
C5-C3-C2-N1=184.36            C5-C3-C2-H9=305.15            C5-C3-C2-H10= 63.61           H11-C3-C2-N1=302.11           
H11-C3-C2-H9= 62.90           H11-C3-C2-H10=181.36          H12-C4-C3-C2= 54.17           H12-C4-C3-C5=293.54           
H12-C4-C3-H11=175.06          H13-C4-C3-C2=291.53           H13-C4-C3-C5=170.90           H13-C4-C3-H11= 52.42          
H14-C4-C3-C2=172.68           H14-C4-C3-C5= 52.04           H14-C4-C3-H11=293.57          H15-C5-C3-C2=297.83           
H15-C5-C3-C4= 60.14           H15-C5-C3-H11=179.16          H16-C5-C3-C2=178.24           H16-C5-C3-C4=300.55           
H16-C5-C3-H11= 59.57          H17-C5-C3-C2= 58.40           H17-C5-C3-C4=180.71           H17-C5-C3-H11=299.74          
           -------------------------------------------------
          |                Final Singlepoint                |
           -------------------------------------------------

          ...................................................
          :                      SETUP                      :
          :.................................................:
          :  # basis functions                  32          :
          :  # atomic orbitals                  32          :
          :  # shells                           22          :
          :  # electrons                        32          :
          :  max. iterations                   250          :
          :  Hamiltonian                  GFN2-xTB          :
          :  restarted?                      false          :
          :  GBSA solvation                   true          :
          :  PC potential                    false          :
          :  electronic temp.          300.0000000     K    :
          :  accuracy                    1.0000000          :
          :  -> integral cutoff          0.2500000E+02      :
          :  -> integral neglect         0.1000000E-07      :
          :  -> SCF convergence          0.1000000E-05 Eh   :
          :  -> wf. convergence          0.1000000E-03 e    :
          :  Broyden damping             0.4000000          :
          ...................................................

 iter      E             dE          RMSdq      gap      omega  full diag
   1    -17.5345599 -0.175346E+02  0.332E-05   10.42       0.0  T
   2    -17.5345599 -0.251887E-11  0.175E-05   10.42    1383.9  T
   3    -17.5345599 -0.639488E-13  0.767E-06   10.42    3162.7  T

   *** convergence criteria satisfied after 3 iterations ***

         #    Occupation            Energy/Eh            Energy/eV
      -------------------------------------------------------------
         1        2.0000           -0.6914818             -18.8162
       ...           ...                  ...                  ...
        10        2.0000           -0.4971135             -13.5271
        11        2.0000           -0.4818987             -13.1131
        12        2.0000           -0.4662470             -12.6872
        13        2.0000           -0.4585371             -12.4774
        14        2.0000           -0.4451384             -12.1128
        15        2.0000           -0.4404968             -11.9865
        16        2.0000           -0.4322589             -11.7624 (HOMO)
        17                         -0.0492546              -1.3403 (LUMO)
        18                          0.0481964               1.3115
        19                          0.0744520               2.0259
        20                          0.0904409               2.4610
        21                          0.1070077               2.9118
       ...                                ...                  ...
        32                          0.2964780               8.0676
      -------------------------------------------------------------
                  HL-Gap            0.3830042 Eh           10.4221 eV
             Fermi-level           -0.2407568 Eh           -6.5513 eV

 SCC (total)                   0 d,  0 h,  0 min,  0.005 sec
 SCC setup                      ...        0 min,  0.000 sec (  4.243%)
 Dispersion                     ...        0 min,  0.000 sec (  2.529%)
 classical contributions        ...        0 min,  0.000 sec (  0.788%)
 integral evaluation            ...        0 min,  0.000 sec (  8.857%)
 iterations                     ...        0 min,  0.003 sec ( 52.891%)
 molecular gradient             ...        0 min,  0.001 sec ( 23.411%)
 printout                       ...        0 min,  0.000 sec (  2.472%)

         :::::::::::::::::::::::::::::::::::::::::::::::::::::
         ::                     SUMMARY                     ::
         :::::::::::::::::::::::::::::::::::::::::::::::::::::
         :: total energy             -17.281492728239 Eh    ::
         :: total w/o Gsasa/hb       -17.271571491003 Eh    ::
         :: gradient norm              0.000315125639 Eh/a0 ::
         :: HOMO-LUMO gap             10.422075829453 eV    ::
         ::.................................................::
         :: SCC energy               -17.534559888228 Eh    ::
         :: -> isotropic ES            0.122267380177 Eh    ::
         :: -> anisotropic ES         -0.013205224985 Eh    ::
         :: -> anisotropic XC          0.013346771281 Eh    ::
         :: -> dispersion             -0.007804009415 Eh    ::
         :: -> Gsolv                  -0.114450998174 Eh    ::
         ::    -> Gelec               -0.104529760939 Eh    ::
         ::    -> Gsasa               -0.000788322994 Eh    ::
         ::    -> Ghb                 -0.010213673940 Eh    ::
         ::    -> Gshift               0.001080759698 Eh    ::
         :: repulsion energy           0.253044812947 Eh    ::
         :: add. restraining           0.000000000000 Eh    ::
         :: total charge               1.000000000000 e     ::
         :::::::::::::::::::::::::::::::::::::::::::::::::::::

           -------------------------------------------------
          |                Property Printout                |
           -------------------------------------------------

    * Orbital Energies and Occupations

         #    Occupation            Energy/Eh            Energy/eV
      -------------------------------------------------------------
         1        2.0000           -0.6914818             -18.8162
       ...           ...                  ...                  ...
         4        2.0000           -0.5974321             -16.2570
         5        2.0000           -0.5911465             -16.0859
         6        2.0000           -0.5820315             -15.8379
         7        2.0000           -0.5594420             -15.2232
         8        2.0000           -0.5457762             -14.8513
         9        2.0000           -0.5148533             -14.0099
        10        2.0000           -0.4971135             -13.5271
        11        2.0000           -0.4818987             -13.1131
        12        2.0000           -0.4662470             -12.6872
        13        2.0000           -0.4585371             -12.4774
        14        2.0000           -0.4451384             -12.1128
        15        2.0000           -0.4404968             -11.9865
        16        2.0000           -0.4322589             -11.7624 (HOMO)
        17                         -0.0492546              -1.3403 (LUMO)
        18                          0.0481964               1.3115
        19                          0.0744520               2.0259
        20                          0.0904409               2.4610
        21                          0.1070077               2.9118
        22                          0.1152545               3.1362
        23                          0.1526927               4.1550
        24                          0.1673758               4.5545
        25                          0.1777912               4.8379
        26                          0.2115639               5.7569
        27                          0.2193456               5.9687
       ...                                ...                  ...
        32                          0.2964780               8.0676
      -------------------------------------------------------------
                  HL-Gap            0.3830042 Eh           10.4221 eV
             Fermi-level           -0.2407568 Eh           -6.5513 eV

     #   Z          covCN         q      C6AA      α(0)
     1   7 N        3.484    -0.157    24.382     7.334
     2   6 C        3.737    -0.044    21.456     6.610
     3   6 C        3.849    -0.019    20.875     6.499
     4   6 C        3.755    -0.136    23.168     6.863
     5   6 C        3.758    -0.128    22.999     6.837
     6   1 H        0.859     0.317     0.666     1.279
     7   1 H        0.859     0.307     0.694     1.305
     8   1 H        0.859     0.302     0.707     1.317
     9   1 H        0.925     0.106     1.728     2.056
    10   1 H        0.924     0.108     1.712     2.046
    11   1 H        0.924     0.059     2.211     2.325
    12   1 H        0.925     0.053     2.289     2.366
    13   1 H        0.925     0.057     2.239     2.340
    14   1 H        0.925     0.041     2.436     2.441
    15   1 H        0.925     0.047     2.354     2.399
    16   1 H        0.925     0.042     2.425     2.435
    17   1 H        0.925     0.045     2.378     2.411

 Mol. C6AA /au·bohr⁶  :       1559.358099
 Mol. C8AA /au·bohr⁸  :      32056.835961
 Mol. α(0) /au        :         58.863007


Wiberg/Mayer (AO) data.
largest (>0.10) Wiberg bond orders for each atom

 ---------------------------------------------------------------------------
     #   Z sym  total        # sym  WBO       # sym  WBO       # sym  WBO
 ---------------------------------------------------------------------------
     1   7 N    3.656 --     2 C    0.966     7 H    0.891     8 H    0.890
                             6 H    0.887
     2   6 C    3.926 --     3 C    0.998     9 H    0.966     1 N    0.966
                            10 H    0.965
     3   6 C    3.993 --     4 C    1.009     5 C    1.006     2 C    0.998
                            11 H    0.965
     4   6 C    3.992 --     3 C    1.009    12 H    0.985    14 H    0.984
                            13 H    0.981
     5   6 C    3.993 --     3 C    1.006    15 H    0.986    16 H    0.985
                            17 H    0.985
     6   1 H    0.900 --     1 N    0.887
     7   1 H    0.906 --     1 N    0.891
     8   1 H    0.909 --     1 N    0.890
     9   1 H    0.989 --     2 C    0.966
    10   1 H    0.988 --     2 C    0.965
    11   1 H    0.997 --     3 C    0.965
    12   1 H    0.997 --     4 C    0.985
    13   1 H    0.997 --     4 C    0.981
    14   1 H    0.998 --     4 C    0.984
    15   1 H    0.998 --     5 C    0.986
    16   1 H    0.998 --     5 C    0.985
    17   1 H    0.998 --     5 C    0.985
 ---------------------------------------------------------------------------

Topologies differ in total number of bonds
Writing topology from bond orders to xtbtopo.mol

molecular dipole:
                 x           y           z       tot (Debye)
 q only:        1.996       0.131       0.189
   full:        1.928       0.104       0.160       4.924
molecular quadrupole (traceless):
                xx          xy          yy          xz          yz          zz
 q only:        5.344       0.169      -2.869       0.319       0.296      -2.474
  q+dip:        3.657       0.103      -1.734      -0.275       0.070      -1.923
   full:        4.405      -0.089      -2.301      -0.238       0.291      -2.104

           -------------------------------------------------
          |                Geometry Summary                 |
           -------------------------------------------------

      molecular mass/u    :       74.1449358
   center of mass at/Å    :        2.5688694      -0.5846680      -0.7170831
  moments of inertia/u·Å² :        0.6858003E+02   0.1509867E+03   0.1969627E+03
rotational constants/cm⁻¹ :        0.2458096E+00   0.1116498E+00   0.8558794E-01

 * 16 selected distances

     #   Z          #   Z                                           value/Å
     1   7 N        2   6 C                                       1.4827286
     2   6 C        3   6 C                                       1.5308863 (max)
     3   6 C        4   6 C                                       1.5285199
     3   6 C        5   6 C                                       1.5276326
     1   7 N        6   1 H                                       1.0258292 (min)
     1   7 N        7   1 H                                       1.0267362
     1   7 N        8   1 H                                       1.0262966
     2   6 C        9   1 H                                       1.0898233
     2   6 C       10   1 H                                       1.0903458
     3   6 C       11   1 H                                       1.0942756
     4   6 C       12   1 H                                       1.0876241
     4   6 C       13   1 H                                       1.0865653
     4   6 C       14   1 H                                       1.0872177
     5   6 C       15   1 H                                       1.0874449
     5   6 C       16   1 H                                       1.0867724
     5   6 C       17   1 H                                       1.0871050

 * 4 distinct bonds (by element types)

   Z      Z             #   av. dist./Å        max./Å        min./Å
   1 H    6 C           9     1.0885749     1.0942756     1.0865653
   6 C    6 C           3     1.5290129     1.5308863     1.5276326
   1 H    7 N           3     1.0262873     1.0267362     1.0258292
   6 C    7 N           1     1.4827286     1.4827286     1.4827286


optimized geometry written to: xtbopt.xyz


           -------------------------------------------------
          | TOTAL ENERGY              -17.281492728239 Eh   |
          | GRADIENT NORM               0.000315125639 Eh/α |
          | HOMO-LUMO GAP              10.422075829453 eV   |
           -------------------------------------------------

------------------------------------------------------------------------
 * finished run on 2023/01/24 at 14:55:54.254     
------------------------------------------------------------------------
 total:
 * wall-time:     0 d,  0 h,  0 min,  0.094 sec
 *  cpu-time:     0 d,  0 h,  0 min, 13.173 sec
 * ratio c/w:   139.745 speedup
 SCF:
 * wall-time:     0 d,  0 h,  0 min,  0.014 sec
 *  cpu-time:     0 d,  0 h,  0 min,  1.902 sec
 * ratio c/w:   139.740 speedup
 ANC optimizer:
 * wall-time:     0 d,  0 h,  0 min,  0.066 sec
 *  cpu-time:     0 d,  0 h,  0 min,  9.337 sec
 * ratio c/w:   141.298 speedup

